 Gaussian 09, Revision D.01,
 Gaussian 09:  ES64L-G09RevD.01 24-Apr-2013

 -----------------------------
 # b3lyp 6-31G(2df,p) opt Freq
 -----------------------------

 -----
 titel
 -----
 Symbolic Z-matrix:
 Charge =  0 Multiplicity = 1

 SCF Done:  E(RB3LYP) =  -423.074379291     A.U. after   12 cycles
 Optimization completed.
    -- Stationary point found.
 Normal termination of Gaussian 09 at Tue Jan 28 14:12:18 2020.

 ----------------------------------------------------------------------
 #N Geom=AllCheck Guess=TCheck SCRF=Check GenChk RB3LYP/6-31G(2df,p) Fr
 eq
 ----------------------------------------------------------------------

 Structure from the checkpoint file:  "/scratch/puck/g09_a619e7d0-9b5e-4787-a195-60b37487089f/Gau-44171.chk"
 -----
 titel
 -----
 Charge =  0 Multiplicity = 1

                         Standard orientation:
 ---------------------------------------------------------------------
 Center     Atomic      Atomic             Coordinates (Angstroms)
 Number     Number       Type             X           Y           Z
 ---------------------------------------------------------------------
      1          6           0        3.235210    0.153163    0.000339
      2          8           0        1.844317    0.376864   -0.000488
      3          6           0        1.096212   -0.817508   -0.000339
      4          6           0       -0.358910   -0.455238   -0.000219
      5          8           0       -1.332589   -1.544079    0.000099
      6          6           0       -2.133832   -0.322613    0.000439
      7          6           0       -1.187811    0.460969    0.961185
      8          6           0       -1.103446    1.666896   -0.000079
      9          6           0       -1.188589    0.460854   -0.961106
     10          1           0        3.558038   -0.406505   -0.891335
     11          1           0        3.722198    1.131003    0.000471
     12          1           0        3.557011   -0.406254    0.892539
     13          1           0        1.321407   -1.431595   -0.888647
     14          1           0        1.321420   -1.431370    0.888122
     15          1           0       -3.219744   -0.409039    0.000874
     16          1           0       -1.189756    0.423410    2.050549
     17          1           0       -1.961651    2.344888    0.000201
     18          1           0       -0.164352    2.220944   -0.000508
     19          1           0       -1.191403    0.423098   -2.050465
 ---------------------------------------------------------------------

 SCF Done:  E(RB3LYP) =  -423.074379291     A.U. after    1 cycles

 The electronic state is 1-A.
 Alpha  occ. eigenvalues --  -19.14943 -19.12476 -10.24665 -10.24303 -10.23518
 Alpha  occ. eigenvalues --  -10.23018 -10.19611 -10.19610 -10.18301  -1.05842
 Alpha  occ. eigenvalues --   -1.04053  -0.86124  -0.75184  -0.66557  -0.64455
 Alpha  occ. eigenvalues --   -0.64048  -0.60825  -0.51104  -0.50223  -0.49491
 Alpha  occ. eigenvalues --   -0.48130  -0.44926  -0.44486  -0.42293  -0.42280
 Alpha  occ. eigenvalues --   -0.39615  -0.36869  -0.33583  -0.31848  -0.30208
 Alpha  occ. eigenvalues --   -0.29851  -0.29396  -0.26309  -0.22985
 Alpha virt. eigenvalues --    0.06493   0.09828   0.11458   0.12439   0.13170
 Alpha virt. eigenvalues --    0.13778   0.14277   0.15390   0.15975   0.16308
 Alpha virt. eigenvalues --    0.17083   0.17651   0.18172   0.18725   0.19186

 Mulliken charges:
               1
     1  C   -0.219744
     2  O   -0.235659
     3  C   -0.228358
     4  C    0.480739
     5  O   -0.369546
     6  C    0.080774
     7  C   -0.124278
     8  C   -0.276658
     9  C   -0.124299
    10  H    0.108212
    11  H    0.130311
    12  H    0.108212
    13  H    0.102365
    14  H    0.102366
    15  H    0.093268
    16  H    0.079873
    17  H    0.092629
    18  H    0.119908
    19  H    0.079882
 Sum of Mulliken charges =   0.00000

 Dipole moment (field-independent basis, Debye):
    X=              1.1017    Y=              0.8526    Z=              0.0008  Tot=              1.3931
 Quadrupole moment (field-independent basis, Debye-Ang):
   XX=            -46.0906   YY=            -57.2830   ZZ=            -52.2460
   XY=             -3.7266   XZ=              0.0017   YZ=              0.0010

  Exact polarizability:  88.093  -1.011  72.959   0.002   0.002  67.184
 Approx polarizability: 112.596  -0.067 111.987   0.003   0.001 103.511

                      1                      2                      3
                      A                      A                      A
 Frequencies --     61.6957                79.7011               122.2599
 Red. masses --      2.4334                 2.6155                 3.9034
 Frc consts  --      0.0055                 0.0098                 0.0344
 IR Inten    --      1.4871                 3.4394                 2.8271

                      4                      5                      6
                      A                      A                      A
 Frequencies --    226.2587               297.9386               317.5360
 Red. masses --      1.2492                 2.1552                 2.9314
 Frc consts  --      0.0377                 0.1127                 0.1741
 IR Inten    --      1.7362                 1.7292                 0.7844

                      7                      8                      9
                      A                      A                      A
 Frequencies --    366.9694               455.5218               537.4881
 Red. masses --      4.5521                 2.7560                 4.3693
 Frc consts  --      0.3612                 0.3369                 0.7437
 IR Inten    --      0.8297                 1.2907                 2.3347

                     10                     11                     12
                      A                      A                      A
 Frequencies --    695.4532               725.9664               776.8528
 Red. masses --      2.7806                 3.7015                 4.5526
 Frc consts  --      0.7924                 1.1494                 1.6188
 IR Inten    --      1.5072                 0.1090                 7.2277

                     13                     14                     15
                      A                      A                      A
 Frequencies --    827.0571               843.2317               880.7159
 Red. masses --      4.4297                 1.9323                 1.8946
 Frc consts  --      1.7852                 0.8095                 0.8658
 IR Inten    --     25.7514                 0.4753                 6.9094

                     16                     17                     18
                      A                      A                      A
 Frequencies --    887.3025               925.8634               980.9465
 Red. masses --      2.3392                 2.6482                 1.1434
 Frc consts  --      1.0851                 1.3375                 0.6483
 IR Inten    --     14.6764                 7.8341                 0.0250

                     19                     20                     21
                      A                      A                      A
 Frequencies --    987.2520              1016.4300              1069.0683
 Red. masses --      3.9158                 1.6509                 2.7852
 Frc consts  --      2.2487                 1.0049                 1.8755
 IR Inten    --     53.1604                 2.9141                 3.2519

                     22                     23                     24
                      A                      A                      A
 Frequencies --   1084.5769              1084.6381              1115.9656
 Red. masses --      3.4292                 1.3478                 1.8345
 Frc consts  --      2.3767                 0.9342                 1.3461
 IR Inten    --      5.7735                 0.0305                 1.0044

                     25                     26                     27
                      A                      A                      A
 Frequencies --   1148.1518              1164.6805              1166.5887
 Red. masses --      1.4060                 4.6167                 1.5143
 Frc consts  --      1.0920                 3.6898                 1.2142
 IR Inten    --      0.5484               155.3503                 0.8142

                     28                     29                     30
                      A                      A                      A
 Frequencies --   1181.8007              1187.5285              1227.3501
 Red. masses --      2.0337                 1.3296                 1.7438
 Frc consts  --      1.6735                 1.1047                 1.5477
 IR Inten    --      2.0073                 2.3036                52.7119

                     31                     32                     33
                      A                      A                      A
 Frequencies --   1229.3192              1252.2490              1263.2710
 Red. masses --      1.2904                 1.8321                 1.9690
 Frc consts  --      1.1490                 1.6927                 1.8514
 IR Inten    --     11.6274                 4.5237                11.4810

                     34                     35                     36
                      A                      A                      A
 Frequencies --   1267.1558              1373.0306              1434.1074
 Red. masses --      1.4408                 2.0167                 2.2637
 Frc consts  --      1.3631                 2.2400                 2.7431
 IR Inten    --      0.0570                23.8822                 7.6161

                     37                     38                     39
                      A                      A                      A
 Frequencies --   1481.6246              1485.6814              1502.3584
 Red. masses --      1.1758                 1.0465                 1.0654
 Frc consts  --      1.5208                 1.3610                 1.4168
 IR Inten    --      1.5849                 5.2186                 9.9402

                     40                     41                     42
                      A                      A                      A
 Frequencies --   1509.4479              1524.4051              2956.6017
 Red. masses --      1.1175                 1.0885                 1.0522
 Frc consts  --      1.5002                 1.4903                 5.4193
 IR Inten    --      1.5057                 2.0240                30.9825

                     43                     44                     45
                      A                      A                      A
 Frequencies --   2976.1797              2987.9205              3020.9428
 Red. masses --      1.0382                 1.1050                 1.1035
 Frc consts  --      5.4182                 5.8126                 5.9333
 IR Inten    --     77.6510                46.5952                49.3141

                     46                     47                     48
                      A                      A                      A
 Frequencies --   3060.3982              3116.5699              3118.7284
 Red. masses --      1.0592                 1.0882                 1.0964
 Frc consts  --      5.8448                 6.2274                 6.2831
 IR Inten    --     47.6182                10.7747                25.5419

                     49                     50                     51
                      A                      A                      A
 Frequencies --   3118.8865              3133.2966              3136.4042
 Red. masses --      1.0911                 1.1000                 1.1038
 Frc consts  --      6.2532                 6.3628                 6.3976
 IR Inten    --     79.3016                58.9090                 1.1708

 - Thermochemistry -
 -------------------
 Temperature   298.150 Kelvin.  Pressure   1.00000 Atm.
 Atom     1 has atomic number  6 and mass  12.00000

 Molecular mass:   126.06808 amu.
 Principal axes and moments of inertia in atomic units:
                           1         2         3
     Eigenvalues --   504.595261505.083121767.98485
           X            0.99969  -0.02478   0.00001
           Y            0.02478   0.99969   0.00001
           Z           -0.00001  -0.00001   1.00000
 This molecule is an asymmetric top.
 Rotational symmetry number  1.
 Warning -- assumption of classical behavior for rotation
           may cause significant error
 Rotational temperatures (Kelvin)      0.17165     0.05755     0.04899
 Rotational constants (GHZ):           3.57661     1.19910     1.02079
 Zero-point vibrational energy     415052.6 (Joules/Mol)
                                   99.19994 (Kcal/Mol)
 Warning -- explicit consideration of   9 degrees of freedom as
           vibrations may cause significant error
 Vibrational temperatures:     88.77   114.67   175.90   325.54   428.67
          (Kelvin)            456.86   527.99   655.39   773.32  1000.60
                             1044.50  1117.72  1189.95  1213.22  1267.15
                             1276.63  1332.11  1411.36  1420.43  1462.41
                             1538.15  1560.46  1560.55  1605.62  1651.93
                             1675.71  1678.46  1700.35  1708.59  1765.88
                             1768.71  1801.70  1817.56  1823.15  1975.48
                             2063.36  2131.72  2137.56  2161.56  2171.76
                             2193.28  4253.89  4282.05  4298.95  4346.46
                             4403.22  4484.04  4487.15  4487.38  4508.11
                             4512.58

 Zero-point correction=                           0.158085 (Hartree/Particle)
 Thermal correction to Energy=                    0.166362
 Thermal correction to Enthalpy=                  0.167306
 Thermal correction to Gibbs Free Energy=         0.124445
 Sum of electronic and zero-point Energies=           -422.916294
 Sum of electronic and thermal Energies=              -422.908017
 Sum of electronic and thermal Enthalpies=            -422.907073
 Sum of electronic and thermal Free Energies=         -422.949935

                     E (Thermal)             CV                S
                      KCal/Mol        Cal/Mol-Kelvin    Cal/Mol-Kelvin
 Total                  104.394             30.914             90.210
 Electronic               0.000              0.000              0.000
 Translational            0.889              2.981             40.409
 Rotational               0.889              2.981             28.686
 Vibrational            102.616             24.952             21.115
 Vibration     1          0.597              1.973              4.402
 Vibration     2          0.600              1.963              3.898
 Vibration     3          0.610              1.931              3.064
 Vibration     4          0.650              1.801              1.908
 Vibration     5          0.691              1.678              1.428
 Vibration     6          0.704              1.640              1.323
 Vibration     7          0.740              1.540              1.092
 Vibration     8          0.814              1.349              0.779
 Vibration     9          0.893              1.167              0.571

 Optimization completed.
    -- Stationary point found.
 Normal termination of Gaussian 09 at Tue Jan 28 14:58:26 2020.
