 Gaussian 09, Revision D.01,
 Gaussian 09:  ES64L-G09RevD.01 24-Apr-2013

 -----------------------------
 # b3lyp 6-31G(2df,p) opt Freq
 -----------------------------

 -----
 titel
 -----
 Symbolic Z-matrix:
 Charge =  0 Multiplicity = 1

 SCF Done:  E(RB3LYP) =  -423.171271146     A.U. after   14 cycles
 SCF Done:  E(RB3LYP) =  -423.171271451     A.U. after    7 cycles
 SCF Done:  E(RB3LYP) =  -423.171271601     A.U. after    7 cycles
 SCF Done:  E(RB3LYP) =  -423.171271656     A.U. after    7 cycles
 Optimization completed.
    -- Stationary point found.
 Normal termination of Gaussian 09 at Tue Jan 28 02:55:53 2020.

 ----------------------------------------------------------------------
 #N Geom=AllCheck Guess=TCheck SCRF=Check GenChk RB3LYP/6-31G(2df,p) Fr
 eq
 ----------------------------------------------------------------------

 Structure from the checkpoint file:  "/scratch/puck/g09_453175d9-c0d1-423d-9eca-227754dd171f/Gau-195689.chk"
 -----
 titel
 -----
 Charge =  0 Multiplicity = 1

                         Standard orientation:
 ---------------------------------------------------------------------
 Center     Atomic      Atomic             Coordinates (Angstroms)
 Number     Number       Type             X           Y           Z
 ---------------------------------------------------------------------
      1          8           0       -2.793410    0.757600    0.000000
      2          6           0       -2.003193   -0.415480    0.000000
      3          6           0       -0.895992   -0.487426   -1.089052
      4          6           0        0.186298   -0.190283    0.000000
      5          6           0       -0.895992   -0.487426    1.089052
      6          8           0        1.301663   -1.075023    0.000000
      7          6           0        2.528656   -0.351428    0.000000
      8          6           0        2.124531    1.094954    0.000000
      9          6           0        0.799742    1.179706    0.000000
     10          1           0       -2.211076    1.524195    0.000002
     11          1           0       -2.721182   -1.237578    0.000000
     12          1           0       -0.757649   -1.496925   -1.483968
     13          1           0       -0.989208    0.215786   -1.921669
     14          1           0       -0.757649   -1.496925    1.483968
     15          1           0       -0.989208    0.215787    1.921669
     16          1           0        3.124672   -0.622100    0.885625
     17          1           0        3.124672   -0.622100   -0.885624
     18          1           0        2.833387    1.912982    0.000000
     19          1           0        0.212915    2.090568    0.000000
 ---------------------------------------------------------------------

 SCF Done:  E(RB3LYP) =  -423.171271656     A.U. after    1 cycles

 The electronic state is 1-A.
 Alpha  occ. eigenvalues --  -19.13686 -19.13493 -10.24033 -10.23363 -10.22916
 Alpha  occ. eigenvalues --  -10.19273 -10.19105 -10.17493 -10.17493  -1.03707
 Alpha  occ. eigenvalues --   -1.01701  -0.82892  -0.78973  -0.70576  -0.66508
 Alpha  occ. eigenvalues --   -0.61574  -0.57681  -0.54768  -0.50553  -0.48973
 Alpha  occ. eigenvalues --   -0.47041  -0.46448  -0.41975  -0.41138  -0.40538
 Alpha  occ. eigenvalues --   -0.38816  -0.38062  -0.34691  -0.34493  -0.32552
 Alpha  occ. eigenvalues --   -0.29600  -0.27802  -0.25685  -0.23020
 Alpha virt. eigenvalues --    0.01035   0.06158   0.08277   0.11505   0.12266
 Alpha virt. eigenvalues --    0.14099   0.14856   0.15454   0.16816   0.17525
 Alpha virt. eigenvalues --    0.17573   0.17918   0.19593   0.19825   0.22479

 Mulliken charges:
               1
     1  O   -0.431639
     2  C    0.137670
     3  C   -0.314797
     4  C    0.405627
     5  C   -0.314798
     6  O   -0.313034
     7  C   -0.137235
     8  C   -0.107114
     9  C   -0.142922
    10  H    0.277038
    11  H    0.090733
    12  H    0.116288
    13  H    0.098077
    14  H    0.116288
    15  H    0.098077
    16  H    0.108259
    17  H    0.108259
    18  H    0.109057
    19  H    0.096165
 Sum of Mulliken charges =   0.00000

 Dipole moment (field-independent basis, Debye):
    X=              1.7983    Y=              1.2777    Z=              0.0000  Tot=              2.2060
 Quadrupole moment (field-independent basis, Debye-Ang):
   XX=            -56.5317   YY=            -50.6924   ZZ=            -53.6955
   XY=              3.2590   XZ=              0.0000   YZ=              0.0000

  Exact polarizability: 100.209   1.344  71.244   0.000   0.000  61.997
 Approx polarizability: 139.714  -1.892 106.982   0.000   0.000  91.439

                      1                      2                      3
                      A                      A                      A
 Frequencies --     62.9816                88.8463               173.1313
 Red. masses --      4.0080                 3.0242                 1.3673
 Frc consts  --      0.0094                 0.0141                 0.0241
 IR Inten    --      1.2439                 2.2194                29.9029

                      4                      5                      6
                      A                      A                      A
 Frequencies --    233.3539               300.2408               313.6204
 Red. masses --      1.7425                 3.7896                 3.6867
 Frc consts  --      0.0559                 0.2013                 0.2136
 IR Inten    --     45.6439                 5.2010                13.7779

                      7                      8                      9
                      A                      A                      A
 Frequencies --    380.7622               416.4204               496.3600
 Red. masses --      2.1681                 2.2618                 2.9227
 Frc consts  --      0.1852                 0.2311                 0.4243
 IR Inten    --      0.0255                 2.5231                 2.9679

                     10                     11                     12
                      A                      A                      A
 Frequencies --    508.5309               729.3081               778.6672
 Red. masses --      2.4616                 1.2747                 7.2471
 Frc consts  --      0.3751                 0.3995                 2.5889
 IR Inten    --      2.1789                20.6932                 4.4984

                     13                     14                     15
                      A                      A                      A
 Frequencies --    795.8318               800.7640               824.5780
 Red. masses --      3.8709                 1.6939                 2.7564
 Frc consts  --      1.4445                 0.6400                 1.1042
 IR Inten    --      1.6275                 0.1209                20.6639

                     16                     17                     18
                      A                      A                      A
 Frequencies --    848.7138               922.2916               945.2811
 Red. masses --      3.3035                 3.0561                 1.3677
 Frc consts  --      1.4020                 1.5316                 0.7201
 IR Inten    --      2.7003                 2.3574                 0.2535

                     19                     20                     21
                      A                      A                      A
 Frequencies --    955.7691               958.5002               994.4256
 Red. masses --      2.3915                 2.0470                 1.7976
 Frc consts  --      1.2872                 1.1080                 1.0473
 IR Inten    --      6.2318                 4.8722                 8.2877

                     22                     23                     24
                      A                      A                      A
 Frequencies --   1025.6185              1034.2605              1045.3092
 Red. masses --      2.7095                 2.4083                 1.6497
 Frc consts  --      1.6792                 1.5178                 1.0620
 IR Inten    --     23.9828                28.4658                 3.1105

                     25                     26                     27
                      A                      A                      A
 Frequencies --   1069.2900              1115.8084              1127.8069
 Red. masses --      1.3107                 2.7503                 1.3930
 Frc consts  --      0.8830                 2.0175                 1.0440
 IR Inten    --      3.1465               223.6862                22.2868

                     28                     29                     30
                      A                      A                      A
 Frequencies --   1188.8998              1193.2179              1204.5745
 Red. masses --      2.7718                 1.1865                 1.3422
 Frc consts  --      2.3083                 0.9953                 1.1474
 IR Inten    --     25.2188                 0.0020                 2.7539

                     31                     32                     33
                      A                      A                      A
 Frequencies --   1249.3002              1262.0168              1278.4658
 Red. masses --      1.7070                 1.4269                 1.9206
 Frc consts  --      1.5697                 1.3390                 1.8495
 IR Inten    --      2.5454                 2.0989                30.2349

                     34                     35                     36
                      A                      A                      A
 Frequencies --   1313.6610              1370.1580              1381.1748
 Red. masses --      1.5319                 1.8960                 1.5840
 Frc consts  --      1.5575                 2.0972                 1.7804
 IR Inten    --      2.4524                 4.5264                 4.0509

                     37                     38                     39
                      A                      A                      A
 Frequencies --   1434.8552              1449.8136              1473.0295
 Red. masses --      1.2038                 1.0875                 1.1378
 Frc consts  --      1.4603                 1.3468                 1.4546
 IR Inten    --     55.8978                 6.2899                 4.2023

                     40                     41                     42
                      A                      A                      A
 Frequencies --   1518.8781              1687.9772              2977.4293
 Red. masses --      1.0865                 6.6924                 1.0557
 Frc consts  --      1.4768                11.2349                 5.5141
 IR Inten    --      2.1134                 0.7494                94.6401

                     43                     44                     45
                      A                      A                      A
 Frequencies --   2994.5339              3054.5891              3059.1632
 Red. masses --      1.1060                 1.0580                 1.0603
 Frc consts  --      5.8435                 5.8164                 5.8463
 IR Inten    --     43.0095                39.5702                 0.4677

                     46                     47                     48
                      A                      A                      A
 Frequencies --   3094.1231              3119.6239              3121.5510
 Red. masses --      1.0901                 1.1078                 1.1053
 Frc consts  --      6.1489                 6.3523                 6.3453
 IR Inten    --     34.3802                 2.9496                26.5717

                     49                     50                     51
                      A                      A                      A
 Frequencies --   3196.0729              3227.1288              3810.1350
 Red. masses --      1.0869                 1.1047                 1.0659
 Frc consts  --      6.5412                 6.7782                 9.1168
 IR Inten    --      6.1605                 8.6013                 6.1085

 - Thermochemistry -
 -------------------
 Temperature   298.150 Kelvin.  Pressure   1.00000 Atm.
 Atom     1 has atomic number  8 and mass  15.99491

 Molecular mass:   126.06808 amu.
 Principal axes and moments of inertia in atomic units:
                           1         2         3
     Eigenvalues --   455.997531584.192721740.73523
           X            0.99993   0.01194   0.00000
           Y           -0.01194   0.99993   0.00000
           Z            0.00000   0.00000   1.00000
 This molecule is an asymmetric top.
 Rotational symmetry number  1.
 Warning -- assumption of classical behavior for rotation
           may cause significant error
 Rotational temperatures (Kelvin)      0.18994     0.05467     0.04976
 Rotational constants (GHZ):           3.95779     1.13922     1.03677
 Zero-point vibrational energy     416341.4 (Joules/Mol)
                                   99.50798 (Kcal/Mol)
 Warning -- explicit consideration of  10 degrees of freedom as
           vibrations may cause significant error
 Vibrational temperatures:     90.62   127.83   249.10   335.74   431.98
          (Kelvin)            451.23   547.83   599.14   714.15   731.66
                             1049.31  1120.33  1145.02  1152.12  1186.38
                             1221.11  1326.97  1360.05  1375.14  1379.07
                             1430.75  1475.63  1488.07  1503.96  1538.47
                             1605.40  1622.66  1710.56  1716.77  1733.11
                             1797.46  1815.76  1839.42  1890.06  1971.35
                             1987.20  2064.43  2085.96  2119.36  2185.32
                             2428.62  4283.85  4308.46  4394.87  4401.45
                             4451.75  4488.44  4491.21  4598.43  4643.11
                             5481.93

 Zero-point correction=                           0.158576 (Hartree/Particle)
 Thermal correction to Energy=                    0.166990
 Thermal correction to Enthalpy=                  0.167935
 Thermal correction to Gibbs Free Energy=         0.125198
 Sum of electronic and zero-point Energies=           -423.012696
 Sum of electronic and thermal Energies=              -423.004281
 Sum of electronic and thermal Enthalpies=            -423.003337
 Sum of electronic and thermal Free Energies=         -423.046074

                     E (Thermal)             CV                S
                      KCal/Mol        Cal/Mol-Kelvin    Cal/Mol-Kelvin
 Total                  104.788             32.136             89.947
 Electronic               0.000              0.000              0.000
 Translational            0.889              2.981             40.409
 Rotational               0.889              2.981             28.621
 Vibrational            103.011             26.175             20.918
 Vibration     1          0.597              1.972              4.362
 Vibration     2          0.602              1.957              3.685
 Vibration     3          0.627              1.876              2.401
 Vibration     4          0.654              1.790              1.853
 Vibration     5          0.693              1.673              1.416
 Vibration     6          0.701              1.648              1.343
 Vibration     7          0.750              1.511              1.036
 Vibration     8          0.780              1.435              0.904
 Vibration     9          0.852              1.258              0.667
 Vibration    10          0.864              1.231              0.637

 Optimization completed.
    -- Stationary point found.
 Normal termination of Gaussian 09 at Tue Jan 28 03:37:39 2020.
