 Gaussian 09, Revision D.01,
 Gaussian 09:  ES64L-G09RevD.01 24-Apr-2013

 -----------------------------
 # b3lyp 6-31G(2df,p) opt Freq
 -----------------------------

 -----
 titel
 -----
 Symbolic Z-matrix:
 Charge =  0 Multiplicity = 1

 SCF Done:  E(RB3LYP) =  -423.151604401     A.U. after   14 cycles
 Optimization completed.
    -- Stationary point found.
 Normal termination of Gaussian 09 at Tue Jan 28 02:33:45 2020.

 ----------------------------------------------------------------------
 #N Geom=AllCheck Guess=TCheck SCRF=Check GenChk RB3LYP/6-31G(2df,p) Fr
 eq
 ----------------------------------------------------------------------

 Structure from the checkpoint file:  "/scratch/puck/g09_fa167d23-7491-420b-9118-5af96e4cd898/Gau-5524.chk"
 -----
 titel
 -----
 Charge =  0 Multiplicity = 1

                         Standard orientation:
 ---------------------------------------------------------------------
 Center     Atomic      Atomic             Coordinates (Angstroms)
 Number     Number       Type             X           Y           Z
 ---------------------------------------------------------------------
      1          6           0       -0.736586    1.774742   -0.668699
      2          6           0       -0.583892    0.520742    0.178141
      3          6           0        0.627184    0.526902    1.124714
      4          6           0        1.642670   -0.419150    0.389247
      5          8           0        2.539144    0.266660   -0.482948
      6          6           0        0.713120   -1.410474   -0.315595
      7          6           0       -0.467547   -0.823894   -0.482386
      8          6           0       -1.952235   -1.005813   -0.304364
      9          8           0       -1.916531    0.083939    0.665686
     10          1           0       -1.453993    1.630051   -1.481574
     11          1           0       -1.092111    2.599562   -0.042444
     12          1           0        0.227447    2.069639   -1.096694
     13          1           0        1.060974    1.510786    1.320821
     14          1           0        0.335694    0.067973    2.074052
     15          1           0        2.289918   -0.926103    1.111795
     16          1           0        2.077593    0.410495   -1.315185
     17          1           0        0.987831   -2.436524   -0.527806
     18          1           0       -2.586597   -0.756376   -1.164597
     19          1           0       -2.283938   -1.952626    0.133382
 ---------------------------------------------------------------------

 SCF Done:  E(RB3LYP) =  -423.151604401     A.U. after    1 cycles

 The electronic state is 1-A.
 Alpha  occ. eigenvalues --  -19.13936 -19.13450 -10.24467 -10.23947 -10.23738
 Alpha  occ. eigenvalues --  -10.19614 -10.18884 -10.18191 -10.17989  -1.03739
 Alpha  occ. eigenvalues --   -1.01561  -0.83190  -0.75396  -0.71885  -0.67054
 Alpha  occ. eigenvalues --   -0.65055  -0.58435  -0.51079  -0.50746  -0.48876
 Alpha  occ. eigenvalues --   -0.47132  -0.45218  -0.41948  -0.41515  -0.40629
 Alpha  occ. eigenvalues --   -0.39591  -0.38878  -0.35372  -0.34201  -0.32065
 Alpha  occ. eigenvalues --   -0.30929  -0.27157  -0.25811  -0.24592
 Alpha virt. eigenvalues --   -0.00891   0.07476   0.07683   0.10884   0.11814
 Alpha virt. eigenvalues --    0.13829   0.14191   0.14840   0.15996   0.16536
 Alpha virt. eigenvalues --    0.18040   0.18195   0.19389   0.20520   0.22411

 Mulliken charges:
               1
     1  C   -0.445219
     2  C    0.415264
     3  C   -0.314495
     4  C    0.111232
     5  O   -0.437095
     6  C   -0.255296
     7  C    0.152599
     8  C   -0.171111
     9  O   -0.344513
    10  H    0.116949
    11  H    0.132855
    12  H    0.114800
    13  H    0.101220
    14  H    0.115744
    15  H    0.090130
    16  H    0.278936
    17  H    0.105028
    18  H    0.110084
    19  H    0.122887
 Sum of Mulliken charges =   0.00000

 Dipole moment (field-independent basis, Debye):
    X=             -0.6063    Y=             -0.8118    Z=             -1.1396  Tot=              1.5249
 Quadrupole moment (field-independent basis, Debye-Ang):
   XX=            -60.6745   YY=            -49.9115   ZZ=            -51.7561
   XY=              0.4297   XZ=              3.2526   YZ=             -0.7353

  Exact polarizability:  90.068  -1.419  77.658   4.814   0.075  63.242
 Approx polarizability: 136.893  -6.483 111.307   3.829   0.818  98.476

                      1                      2                      3
                      A                      A                      A
 Frequencies --     99.2954               170.0218               244.7155
 Red. masses --      4.2593                 3.2910                 2.3336
 Frc consts  --      0.0247                 0.0561                 0.0823
 IR Inten    --      6.8922                 0.3731                 2.9488

                      4                      5                      6
                      A                      A                      A
 Frequencies --    247.6769               289.7433               306.5760
 Red. masses --      1.0818                 1.2634                 3.2140
 Frc consts  --      0.0391                 0.0625                 0.1780
 IR Inten    --      6.6542                50.1094                 8.8714

                      7                      8                      9
                      A                      A                      A
 Frequencies --    362.1431               386.5987               436.9210
 Red. masses --      2.7599                 2.6334                 2.0716
 Frc consts  --      0.2133                 0.2319                 0.2330
 IR Inten    --     11.7185                 1.6836                 3.4467

                     10                     11                     12
                      A                      A                      A
 Frequencies --    510.5578               588.4903               688.0061
 Red. masses --      3.0049                 3.7797                 3.8214
 Frc consts  --      0.4615                 0.7712                 1.0657
 IR Inten    --      2.4323                 7.4467                 4.6481

                     13                     14                     15
                      A                      A                      A
 Frequencies --    736.8165               788.5752               837.3841
 Red. masses --      4.7194                 3.5025                 2.0523
 Frc consts  --      1.5096                 1.2833                 0.8479
 IR Inten    --      4.9004                 5.0104                10.3581

                     16                     17                     18
                      A                      A                      A
 Frequencies --    849.1941               871.5623               910.3382
 Red. masses --      1.6563                 3.9009                 2.4937
 Frc consts  --      0.7037                 1.7459                 1.2176
 IR Inten    --     17.6288                65.3773                10.0015

                     19                     20                     21
                      A                      A                      A
 Frequencies --    941.0025               951.6894               996.4059
 Red. masses --      4.0690                 1.7868                 2.2614
 Frc consts  --      2.1229                 0.9535                 1.3228
 IR Inten    --     31.4980                 2.9195                19.3611

                     22                     23                     24
                      A                      A                      A
 Frequencies --   1006.5441              1015.9712              1072.3242
 Red. masses --      1.7616                 2.3863                 2.0580
 Frc consts  --      1.0515                 1.4512                 1.3943
 IR Inten    --      4.7819                61.7986                 0.6983

                     25                     26                     27
                      A                      A                      A
 Frequencies --   1108.2088              1139.3362              1179.3607
 Red. masses --      2.0591                 1.1627                 2.0713
 Frc consts  --      1.4899                 0.8892                 1.6974
 IR Inten    --    101.1517                 4.4756                 8.2228

                     28                     29                     30
                      A                      A                      A
 Frequencies --   1219.8000              1225.6181              1232.5107
 Red. masses --      2.0799                 1.9628                 1.5847
 Frc consts  --      1.8234                 1.7371                 1.4184
 IR Inten    --     13.8364                 6.6986                 0.9029

                     31                     32                     33
                      A                      A                      A
 Frequencies --   1273.8674              1307.8986              1334.0560
 Red. masses --      1.3571                 1.5353                 1.4884
 Frc consts  --      1.2975                 1.5473                 1.5607
 IR Inten    --      5.5628                 9.3864                12.4949

                     34                     35                     36
                      A                      A                      A
 Frequencies --   1340.9668              1407.0377              1423.9955
 Red. masses --      2.0022                 1.2579                 1.1970
 Frc consts  --      2.1213                 1.4673                 1.4301
 IR Inten    --     12.3596                 8.1125                62.2128

                     37                     38                     39
                      A                      A                      A
 Frequencies --   1469.9125              1486.8231              1490.8627
 Red. masses --      1.0984                 1.0576                 1.0620
 Frc consts  --      1.3983                 1.3775                 1.3908
 IR Inten    --      5.4329                 2.1135                 2.2091

                     40                     41                     42
                      A                      A                      A
 Frequencies --   1511.3444              1731.7975              3016.8676
 Red. masses --      1.0961                 8.8570                 1.0609
 Frc consts  --      1.4751                15.6506                 5.6890
 IR Inten    --      0.5425                 9.0716                65.2872

                     43                     44                     45
                      A                      A                      A
 Frequencies --   3034.1805              3056.0860              3068.0277
 Red. masses --      1.0349                 1.0682                 1.0763
 Frc consts  --      5.6135                 5.8782                 5.9691
 IR Inten    --     16.2168                13.3107                36.9641

                     46                     47                     48
                      A                      A                      A
 Frequencies --   3079.6656              3104.7502              3112.8854
 Red. masses --      1.1031                 1.1007                 1.1030
 Frc consts  --      6.1639                 6.2513                 6.2974
 IR Inten    --     30.5822                15.6585                15.2263

                     49                     50                     51
                      A                      A                      A
 Frequencies --   3117.2688              3206.7529              3819.4361
 Red. masses --      1.1058                 1.0957                 1.0662
 Frc consts  --      6.3308                 6.6383                 9.1639
 IR Inten    --     25.6352                 8.3306                13.8951

 - Thermochemistry -
 -------------------
 Temperature   298.150 Kelvin.  Pressure   1.00000 Atm.
 Atom     1 has atomic number  6 and mass  12.00000

 Molecular mass:   126.06808 amu.
 Principal axes and moments of inertia in atomic units:
                           1         2         3
     Eigenvalues --   614.529141228.572041467.44315
           X            0.99968  -0.00095   0.02513
           Y            0.00183   0.99939  -0.03485
           Z           -0.02509   0.03488   0.99908
 This molecule is an asymmetric top.
 Rotational symmetry number  1.
 Warning -- assumption of classical behavior for rotation
           may cause significant error
 Rotational temperatures (Kelvin)      0.14094     0.07050     0.05902
 Rotational constants (GHZ):           2.93679     1.46897     1.22985
 Zero-point vibrational energy     417543.8 (Joules/Mol)
                                   99.79536 (Kcal/Mol)
 Warning -- explicit consideration of  11 degrees of freedom as
           vibrations may cause significant error
 Vibrational temperatures:    142.86   244.62   352.09   356.35   416.88
          (Kelvin)            441.09   521.04   556.23   628.63   734.58
                              846.71   989.89  1060.11  1134.58  1204.81
                             1221.80  1253.98  1309.77  1353.89  1369.27
                             1433.60  1448.19  1461.75  1542.83  1594.46
                             1639.25  1696.83  1755.02  1763.39  1773.31
                             1832.81  1881.77  1919.41  1929.35  2024.41
                             2048.81  2114.87  2139.20  2145.02  2174.48
                             2491.67  4340.59  4365.50  4397.02  4414.20
                             4430.95  4467.04  4478.74  4485.05  4613.80
                             5495.31

 Zero-point correction=                           0.159034 (Hartree/Particle)
 Thermal correction to Energy=                    0.167327
 Thermal correction to Enthalpy=                  0.168271
 Thermal correction to Gibbs Free Energy=         0.126591
 Sum of electronic and zero-point Energies=           -422.992570
 Sum of electronic and thermal Energies=              -422.984277
 Sum of electronic and thermal Enthalpies=            -422.983333
 Sum of electronic and thermal Free Energies=         -423.025013

                     E (Thermal)             CV                S
                      KCal/Mol        Cal/Mol-Kelvin    Cal/Mol-Kelvin
 Total                  104.999             32.591             87.723
 Electronic               0.000              0.000              0.000
 Translational            0.889              2.981             40.409
 Rotational               0.889              2.981             28.495
 Vibrational            103.222             26.629             18.819
 Vibration     1          0.604              1.950              3.468
 Vibration     2          0.625              1.879              2.435
 Vibration     3          0.660              1.772              1.768
 Vibration     4          0.661              1.767              1.747
 Vibration     5          0.686              1.693              1.475
 Vibration     6          0.697              1.661              1.381
 Vibration     7          0.736              1.550              1.113
 Vibration     8          0.755              1.499              1.013
 Vibration     9          0.797              1.390              0.836
 Vibration    10          0.866              1.227              0.632
 Vibration    11          0.946              1.056              0.470

 Normal termination of Gaussian 09 at Tue Jan 28 03:18:09 2020.
