 Gaussian 09, Revision D.01,
 Gaussian 09:  ES64L-G09RevD.01 24-Apr-2013

 -----------------------------
 # b3lyp 6-31G(2df,p) opt Freq
 -----------------------------

 -----
 titel
 -----
 Symbolic Z-matrix:
 Charge =  0 Multiplicity = 1

 SCF Done:  E(RB3LYP) =  -423.149536025     A.U. after   14 cycles
 Optimization completed.
    -- Stationary point found.
 Normal termination of Gaussian 09 at Tue Jan 28 08:19:19 2020.

 ----------------------------------------------------------------------
 #N Geom=AllCheck Guess=TCheck SCRF=Check GenChk RB3LYP/6-31G(2df,p) Fr
 eq
 ----------------------------------------------------------------------

 Structure from the checkpoint file:  "/scratch/puck/g09_ddd413c6-5138-4013-8d3c-b696d76007f5/Gau-14789.chk"
 -----
 titel
 -----
 Charge =  0 Multiplicity = 1

                         Standard orientation:
 ---------------------------------------------------------------------
 Center     Atomic      Atomic             Coordinates (Angstroms)
 Number     Number       Type             X           Y           Z
 ---------------------------------------------------------------------
      1          6           0        1.276887    1.942418   -0.088096
      2          6           0        0.981122    0.506078    0.393194
      3          6           0        2.088766   -0.384269    0.048584
      4          6           0        3.010835   -1.092378   -0.258297
      5          6           0       -0.370656   -0.027139   -0.168678
      6          6           0       -0.649967   -1.476840    0.264129
      7          8           0       -1.951981   -1.901836   -0.101818
      8          6           0       -1.512551    0.845107    0.324980
      9          8           0       -2.198300    1.547912   -0.368706
     10          1           0        0.475039    2.625497    0.204747
     11          1           0        2.215333    2.301121    0.341192
     12          1           0        1.367253    1.970063   -1.177599
     13          1           0        0.893980    0.524189    1.489923
     14          1           0        3.827418   -1.720893   -0.515499
     15          1           0       -0.351852    0.039701   -1.263094
     16          1           0        0.130716   -2.136821   -0.133806
     17          1           0       -0.613446   -1.551130    1.357594
     18          1           0       -2.015520   -1.887437   -1.062554
     19          1           0       -1.673300    0.789236    1.428381
 ---------------------------------------------------------------------

 SCF Done:  E(RB3LYP) =  -423.149536025     A.U. after    1 cycles

 The electronic state is 1-A.
 Alpha  occ. eigenvalues --  -19.14660 -19.14363 -10.27438 -10.24029 -10.23350
 Alpha  occ. eigenvalues --  -10.20716 -10.19159 -10.19152 -10.18258  -1.05143
 Alpha  occ. eigenvalues --   -1.02763  -0.84315  -0.75936  -0.73183  -0.65722
 Alpha  occ. eigenvalues --   -0.64558  -0.58516  -0.53584  -0.51256  -0.48948
 Alpha  occ. eigenvalues --   -0.47570  -0.46278  -0.44324  -0.42157  -0.40404
 Alpha  occ. eigenvalues --   -0.39980  -0.38246  -0.37930  -0.36279  -0.33395
 Alpha  occ. eigenvalues --   -0.29328  -0.27716  -0.26797  -0.25138
 Alpha virt. eigenvalues --   -0.02653   0.04126   0.04747   0.07322   0.09677
 Alpha virt. eigenvalues --    0.10469   0.12092   0.12909   0.14805   0.15726
 Alpha virt. eigenvalues --    0.15878   0.16922   0.17357   0.20581   0.22469

 Mulliken charges:
               1
     1  C   -0.397005
     2  C   -0.185111
     3  C    0.321112
     4  C   -0.455212
     5  C   -0.100007
     6  C   -0.090622
     7  O   -0.413321
     8  C    0.167916
     9  O   -0.251580
    10  H    0.133746
    11  H    0.130362
    12  H    0.135347
    13  H    0.112356
    14  H    0.200123
    15  H    0.094061
    16  H    0.117735
    17  H    0.116072
    18  H    0.289253
    19  H    0.074775
 Sum of Mulliken charges =   0.00000

 Dipole moment (field-independent basis, Debye):
    X=              2.4456    Y=             -0.8237    Z=              0.0184  Tot=              2.5806
 Quadrupole moment (field-independent basis, Debye-Ang):
   XX=            -59.0884   YY=            -55.5703   ZZ=            -50.3949
   XY=              0.9698   XZ=             -0.3419   YZ=              4.6525

  Exact polarizability:  92.321 -12.284  78.817  -2.318   1.552  63.535
 Approx polarizability: 130.971 -26.897 112.691  -3.155   1.800 102.879

                      1                      2                      3
                      A                      A                      A
 Frequencies --     46.6780                69.8578                97.5534
 Red. masses --      3.9904                 5.3252                 2.8462
 Frc consts  --      0.0051                 0.0153                 0.0160
 IR Inten    --      1.5874                 6.7999                 5.0068

                      4                      5                      6
                      A                      A                      A
 Frequencies --    136.6918               185.5272               203.4248
 Red. masses --      3.9054                 3.5762                 1.7188
 Frc consts  --      0.0430                 0.0725                 0.0419
 IR Inten    --      0.7447                 1.5025                 0.2861

                      7                      8                      9
                      A                      A                      A
 Frequencies --    239.4879               260.9076               304.9812
 Red. masses --      1.4322                 2.3338                 1.5845
 Frc consts  --      0.0484                 0.0936                 0.0868
 IR Inten    --      2.3637                16.3046                69.0110

                     10                     11                     12
                      A                      A                      A
 Frequencies --    350.4283               360.2354               409.0404
 Red. masses --      1.9638                 3.5677                 5.5042
 Frc consts  --      0.1421                 0.2728                 0.5426
 IR Inten    --     25.0708                 3.4636                 3.5190

                     13                     14                     15
                      A                      A                      A
 Frequencies --    525.2984               545.1978               582.4468
 Red. masses --      4.0592                 3.5675                 4.1805
 Frc consts  --      0.6599                 0.6248                 0.8356
 IR Inten    --     11.7921                 0.5899                11.3204

                     16                     17                     18
                      A                      A                      A
 Frequencies --    634.4437               643.2349               829.4478
 Red. masses --      1.2165                 1.2210                 2.4053
 Frc consts  --      0.2885                 0.2977                 0.9750
 IR Inten    --     39.7123                44.3358                 1.6079

                     19                     20                     21
                      A                      A                      A
 Frequencies --    875.1527               938.3548               963.9623
 Red. masses --      1.8161                 1.9346                 1.6776
 Frc consts  --      0.8195                 1.0037                 0.9184
 IR Inten    --     20.3663                 2.7284                 1.2972

                     22                     23                     24
                      A                      A                      A
 Frequencies --   1016.1961              1056.2252              1089.6083
 Red. masses --      3.4419                 3.3133                 1.9622
 Frc consts  --      2.0941                 2.1778                 1.3726
 IR Inten    --     24.9976                52.7014                16.5133

                     25                     26                     27
                      A                      A                      A
 Frequencies --   1110.7898              1120.0398              1136.7363
 Red. masses --      2.4248                 2.6783                 1.6139
 Frc consts  --      1.7628                 1.9796                 1.2287
 IR Inten    --     14.9666                19.4354                37.7630

                     28                     29                     30
                      A                      A                      A
 Frequencies --   1210.1007              1242.4119              1321.3912
 Red. masses --      1.5334                 1.3082                 1.3111
 Frc consts  --      1.3230                 1.1897                 1.3488
 IR Inten    --     12.4457                 3.9704                 3.7150

                     31                     32                     33
                      A                      A                      A
 Frequencies --   1337.2048              1350.9985              1384.9763
 Red. masses --      1.2522                 1.4207                 1.2960
 Frc consts  --      1.3192                 1.5278                 1.4647
 IR Inten    --      0.0265                21.8400                 2.0803

                     34                     35                     36
                      A                      A                      A
 Frequencies --   1411.5768              1415.0738              1428.9588
 Red. masses --      1.1995                 1.2035                 1.2032
 Frc consts  --      1.4082                 1.4198                 1.4475
 IR Inten    --     30.4935                 1.8452                13.2042

                     37                     38                     39
                      A                      A                      A
 Frequencies --   1490.3928              1499.6561              1507.0168
 Red. masses --      1.0442                 1.0480                 1.0846
 Frc consts  --      1.3665                 1.3886                 1.4513
 IR Inten    --      4.2874                 2.9233                 0.7189

                     40                     41                     42
                      A                      A                      A
 Frequencies --   1838.1860              2232.3700              2846.1936
 Red. masses --     10.4614                 5.9292                 1.0815
 Frc consts  --     20.8265                17.4093                 5.1620
 IR Inten    --    170.9297                 0.9717                92.0896

                     43                     44                     45
                      A                      A                      A
 Frequencies --   2995.2243              3025.5437              3045.8563
 Red. masses --      1.0806                 1.0580                 1.0800
 Frc consts  --      5.7119                 5.7063                 5.9035
 IR Inten    --     10.4535                29.3831                 6.1886

                     46                     47                     48
                      A                      A                      A
 Frequencies --   3048.9818              3073.9308              3124.4204
 Red. masses --      1.0396                 1.1042                 1.1024
 Frc consts  --      5.6941                 6.1476                 6.3404
 IR Inten    --     16.9372                32.0968                16.6942

                     49                     50                     51
                      A                      A                      A
 Frequencies --   3129.2385              3502.5087              3813.7420
 Red. masses --      1.1030                 1.1619                 1.0662
 Frc consts  --      6.3634                 8.3983                 9.1368
 IR Inten    --     18.0331                71.1762                23.7038

 - Thermochemistry -
 -------------------
 Temperature   298.150 Kelvin.  Pressure   1.00000 Atm.
 Atom     1 has atomic number  6 and mass  12.00000

 Molecular mass:   126.06808 amu.
 Principal axes and moments of inertia in atomic units:
                           1         2         3
     Eigenvalues --   871.831821475.168542216.50080
           X            0.99934   0.03593  -0.00519
           Y           -0.03588   0.99931   0.00910
           Z            0.00552  -0.00890   0.99995
 This molecule is an asymmetric top.
 Rotational symmetry number  1.
 Warning -- assumption of classical behavior for rotation
           may cause significant error
 Rotational temperatures (Kelvin)      0.09935     0.05871     0.03908
 Rotational constants (GHZ):           2.07006     1.22341     0.81423
 Zero-point vibrational energy     406777.6 (Joules/Mol)
                                   97.22218 (Kcal/Mol)
 Warning -- explicit consideration of  15 degrees of freedom as
           vibrations may cause significant error
 Vibrational temperatures:     67.16   100.51   140.36   196.67   266.93
          (Kelvin)            292.68   344.57   375.39   438.80   504.19
                              518.30   588.52   755.79   784.42   838.01
                              912.82   925.47  1193.39  1259.15  1350.08
                             1386.93  1462.08  1519.67  1567.70  1598.18
                             1611.49  1635.51  1741.06  1787.55  1901.18
                             1923.94  1943.78  1992.67  2030.94  2035.97
                             2055.95  2144.34  2157.67  2168.26  2644.74
                             3211.88  4095.03  4309.45  4353.08  4382.30
                             4386.80  4422.70  4495.34  4502.27  5039.32
                             5487.12

 Zero-point correction=                           0.154933 (Hartree/Particle)
 Thermal correction to Energy=                    0.165675
 Thermal correction to Enthalpy=                  0.166619
 Thermal correction to Gibbs Free Energy=         0.118454
 Sum of electronic and zero-point Energies=           -422.994603
 Sum of electronic and thermal Energies=              -422.983861
 Sum of electronic and thermal Enthalpies=            -422.982917
 Sum of electronic and thermal Free Energies=         -423.031082

                     E (Thermal)             CV                S
                      KCal/Mol        Cal/Mol-Kelvin    Cal/Mol-Kelvin
 Total                  103.963             37.747            101.372
 Electronic               0.000              0.000              0.000
 Translational            0.889              2.981             40.409
 Rotational               0.889              2.981             29.434
 Vibrational            102.185             31.785             31.529
 Vibration     1          0.595              1.979              4.953
 Vibration     2          0.598              1.968              4.157
 Vibration     3          0.603              1.951              3.503
 Vibration     4          0.614              1.917              2.850
 Vibration     5          0.632              1.860              2.272
 Vibration     6          0.639              1.835              2.102
 Vibration     7          0.657              1.780              1.807
 Vibration     8          0.669              1.744              1.656
 Vibration     9          0.696              1.664              1.389
 Vibration    10          0.727              1.574              1.164
 Vibration    11          0.735              1.554              1.121
 Vibration    12          0.773              1.451              0.930
 Vibration    13          0.880              1.194              0.598
 Vibration    14          0.900              1.150              0.554
 Vibration    15          0.939              1.069              0.481

 Optimization completed.
    -- Stationary point found.
 Normal termination of Gaussian 09 at Tue Jan 28 09:02:29 2020.
