 Gaussian 09, Revision D.01,
 Gaussian 09:  ES64L-G09RevD.01 24-Apr-2013

 -----------------------------
 # b3lyp 6-31G(2df,p) opt Freq
 -----------------------------

 -----
 titel
 -----
 Symbolic Z-matrix:
 Charge =  0 Multiplicity = 1

 SCF Done:  E(RB3LYP) =  -423.174903148     A.U. after   14 cycles
 Optimization completed.
    -- Stationary point found.
 Normal termination of Gaussian 09 at Mon Jan 27 16:22:58 2020.

 ----------------------------------------------------------------------
 #N Geom=AllCheck Guess=TCheck SCRF=Check GenChk RB3LYP/6-31G(2df,p) Fr
 eq
 ----------------------------------------------------------------------

 Structure from the checkpoint file:  "/scratch/puck/g09_35db5f65-544d-4a08-87ad-1524cb6d1470/Gau-176588.chk"
 -----
 titel
 -----
 Charge =  0 Multiplicity = 1

                         Standard orientation:
 ---------------------------------------------------------------------
 Center     Atomic      Atomic             Coordinates (Angstroms)
 Number     Number       Type             X           Y           Z
 ---------------------------------------------------------------------
      1          8           0       -0.608165    1.659156    0.339097
      2          6           0       -0.060657    0.388817    0.044807
      3          6           0        1.051243    0.385169   -1.066194
      4          6           0        2.008661   -0.220151   -0.028506
      5          8           0        3.088175   -0.731654   -0.099115
      6          6           0        1.010583    0.005859    1.112986
      7          6           0       -1.119843   -0.678032   -0.155245
      8          6           0       -2.453543   -0.364397   -0.785283
      9          6           0       -2.366106   -0.689234    0.687538
     10          1           0       -1.058062    1.982228   -0.448846
     11          1           0        0.875646   -0.202082   -1.971278
     12          1           0        1.352082    1.400907   -1.343863
     13          1           0        0.801277   -0.848889    1.760404
     14          1           0        1.281990    0.868650    1.729270
     15          1           0       -0.701092   -1.649731   -0.405680
     16          1           0       -2.680786    0.662742   -1.052465
     17          1           0       -2.885283   -1.096357   -1.458408
     18          1           0       -2.497033    0.136327    1.377574
     19          1           0       -2.750856   -1.642000    1.032819
 ---------------------------------------------------------------------

 SCF Done:  E(RB3LYP) =  -423.174903148     A.U. after    1 cycles

 The electronic state is 1-A.
 Alpha  occ. eigenvalues --  -19.15198 -19.13571 -10.27097 -10.25383 -10.19875
 Alpha  occ. eigenvalues --  -10.19461 -10.19045 -10.18878 -10.18842  -1.04540
 Alpha  occ. eigenvalues --   -1.03609  -0.86520  -0.83397  -0.68792  -0.65521
 Alpha  occ. eigenvalues --   -0.60623  -0.57926  -0.52920  -0.51721  -0.49950
 Alpha  occ. eigenvalues --   -0.47406  -0.45173  -0.43937  -0.41386  -0.40832
 Alpha  occ. eigenvalues --   -0.38847  -0.38168  -0.36861  -0.35132  -0.33402
 Alpha  occ. eigenvalues --   -0.30409  -0.28857  -0.27667  -0.24028
 Alpha virt. eigenvalues --   -0.02053   0.05909   0.08500   0.11131   0.12314
 Alpha virt. eigenvalues --    0.12704   0.13353   0.14913   0.16202   0.16479
 Alpha virt. eigenvalues --    0.17443   0.18837   0.19826   0.21875   0.22555

 Mulliken charges:
               1
     1  O   -0.477214
     2  C    0.367484
     3  C   -0.413631
     4  C    0.414820
     5  O   -0.291209
     6  C   -0.383284
     7  C   -0.010049
     8  C   -0.295950
     9  C   -0.267322
    10  H    0.282583
    11  H    0.125617
    12  H    0.130223
    13  H    0.130029
    14  H    0.142513
    15  H    0.088365
    16  H    0.098590
    17  H    0.117181
    18  H    0.128027
    19  H    0.113228
 Sum of Mulliken charges =   0.00000

 Dipole moment (field-independent basis, Debye):
    X=             -2.7968    Y=              0.5858    Z=             -0.9882  Tot=              3.0235
 Quadrupole moment (field-independent basis, Debye-Ang):
   XX=            -63.8260   YY=            -51.6575   ZZ=            -51.3918
   XY=              3.8613   XZ=              2.0431   YZ=             -2.6020

  Exact polarizability:  88.430  -1.763  66.967   0.482  -2.107  72.081
 Approx polarizability: 119.055  -8.666 102.887   0.187  -1.899 107.939

                      1                      2                      3
                      A                      A                      A
 Frequencies --     42.0455                75.4753               204.3169
 Red. masses --      4.9204                 2.8561                 2.2927
 Frc consts  --      0.0051                 0.0096                 0.0564
 IR Inten    --      3.5839                 0.4316                 0.9193

                      4                      5                      6
                      A                      A                      A
 Frequencies --    248.5755               288.8474               330.6335
 Red. masses --      3.7259                 1.3524                 3.3112
 Frc consts  --      0.1356                 0.0665                 0.2133
 IR Inten    --      7.0564                64.9606                 3.5978

                      7                      8                      9
                      A                      A                      A
 Frequencies --    362.4301               392.0615               424.0250
 Red. masses --      1.9877                 3.0544                 3.4309
 Frc consts  --      0.1538                 0.2766                 0.3634
 IR Inten    --     54.3839                 7.0836                 2.9178

                     10                     11                     12
                      A                      A                      A
 Frequencies --    447.6170               546.4443               649.8089
 Red. masses --      2.2737                 2.7120                 2.9744
 Frc consts  --      0.2684                 0.4771                 0.7400
 IR Inten    --      6.4034                 2.4925                 1.4247

                     13                     14                     15
                      A                      A                      A
 Frequencies --    668.1577               715.9910               790.3590
 Red. masses --      1.5176                 2.7785                 1.0777
 Frc consts  --      0.3992                 0.8392                 0.3966
 IR Inten    --      1.6899                 0.1159                 0.1671

                     16                     17                     18
                      A                      A                      A
 Frequencies --    815.2109               826.5377               912.1814
 Red. masses --      2.5248                 1.2295                 4.2898
 Frc consts  --      0.9886                 0.4949                 2.1030
 IR Inten    --      0.9217                 5.7384                 9.7414

                     19                     20                     21
                      A                      A                      A
 Frequencies --    922.3715               949.3227               974.0658
 Red. masses --      3.9913                 2.6928                 3.0087
 Frc consts  --      2.0007                 1.4298                 1.6819
 IR Inten    --      7.1811                 4.2674                15.3278

                     22                     23                     24
                      A                      A                      A
 Frequencies --   1007.6314              1057.0066              1065.8301
 Red. masses --      1.1835                 1.3672                 1.8364
 Frc consts  --      0.7080                 0.9000                 1.2291
 IR Inten    --      3.1748                 8.3981                28.7540

                     25                     26                     27
                      A                      A                      A
 Frequencies --   1083.5783              1087.0513              1115.3956
 Red. masses --      1.6126                 1.8429                 3.7464
 Frc consts  --      1.1156                 1.2831                 2.7462
 IR Inten    --      8.9226                29.8657                64.4321

                     28                     29                     30
                      A                      A                      A
 Frequencies --   1141.8523              1146.2998              1184.3244
 Red. masses --      1.1484                 1.6788                 1.4523
 Frc consts  --      0.8822                 1.2997                 1.2002
 IR Inten    --      2.2170                12.0393                 4.1563

                     31                     32                     33
                      A                      A                      A
 Frequencies --   1197.0869              1226.8907              1244.9103
 Red. masses --      1.3689                 2.0307                 1.7628
 Frc consts  --      1.1558                 1.8010                 1.6096
 IR Inten    --      1.4432                 1.2702                44.0354

                     34                     35                     36
                      A                      A                      A
 Frequencies --   1295.5473              1336.7528              1413.6400
 Red. masses --      2.0887                 1.6377                 1.6839
 Frc consts  --      2.0655                 1.7242                 1.9826
 IR Inten    --     47.3235                25.6068                 8.3484

                     37                     38                     39
                      A                      A                      A
 Frequencies --   1415.0267              1435.9210              1460.0916
 Red. masses --      1.1062                 1.1317                 1.0914
 Frc consts  --      1.3050                 1.3748                 1.3709
 IR Inten    --     19.2899                 3.1670                 2.7007

                     40                     41                     42
                      A                      A                      A
 Frequencies --   1504.8120              1894.2726              3052.4446
 Red. masses --      1.4415                12.6963                 1.0587
 Frc consts  --      1.9232                26.8418                 5.8116
 IR Inten    --      0.8331               282.5601                 5.2325

                     43                     44                     45
                      A                      A                      A
 Frequencies --   3063.4990              3115.7783              3124.3016
 Red. masses --      1.0596                 1.1053                 1.1047
 Frc consts  --      5.8590                 6.3221                 6.3533
 IR Inten    --      3.2524                 5.9263                 3.5090

                     46                     47                     48
                      A                      A                      A
 Frequencies --   3129.9779              3135.9820              3142.3090
 Red. masses --      1.0546                 1.0813                 1.0618
 Frc consts  --      6.0873                 6.2653                 6.1771
 IR Inten    --     20.6503                13.0073                 7.6346

                     49                     50                     51
                      A                      A                      A
 Frequencies --   3210.1267              3232.5976              3809.2456
 Red. masses --      1.1161                 1.1162                 1.0657
 Frc consts  --      6.7761                 6.8721                 9.1113
 IR Inten    --      6.3726                10.2178                15.7683

 - Thermochemistry -
 -------------------
 Temperature   298.150 Kelvin.  Pressure   1.00000 Atm.
 Atom     1 has atomic number  8 and mass  15.99491

 Molecular mass:   126.06808 amu.
 Principal axes and moments of inertia in atomic units:
                           1         2         3
     Eigenvalues --   522.873441731.049281810.07607
           X            0.99979   0.02028   0.00258
           Y           -0.01991   0.99457  -0.10215
           Z           -0.00464   0.10208   0.99477
 This molecule is an asymmetric top.
 Rotational symmetry number  1.
 Warning -- assumption of classical behavior for rotation
           may cause significant error
 Rotational temperatures (Kelvin)      0.16565     0.05004     0.04785
 Rotational constants (GHZ):           3.45158     1.04257     0.99705
 Zero-point vibrational energy     412213.2 (Joules/Mol)
                                   98.52131 (Kcal/Mol)
 Warning -- explicit consideration of  11 degrees of freedom as
           vibrations may cause significant error
 Vibrational temperatures:     60.49   108.59   293.97   357.64   415.59
          (Kelvin)            475.71   521.46   564.09   610.08   644.02
                              786.21   934.93   961.33  1030.15  1137.15
                             1172.91  1189.20  1312.42  1327.09  1365.86
                             1401.46  1449.75  1520.79  1533.49  1559.03
                             1564.02  1604.80  1642.87  1649.27  1703.98
                             1722.34  1765.22  1791.15  1864.00  1923.29
                             2033.91  2035.91  2065.97  2100.74  2165.09
                             2725.43  4391.78  4407.69  4482.90  4495.17
                             4503.33  4511.97  4521.08  4618.65  4650.98
                             5480.65

 Zero-point correction=                           0.157004 (Hartree/Particle)
 Thermal correction to Energy=                    0.165849
 Thermal correction to Enthalpy=                  0.166793
 Thermal correction to Gibbs Free Energy=         0.122954
 Sum of electronic and zero-point Energies=           -423.017899
 Sum of electronic and thermal Energies=              -423.009054
 Sum of electronic and thermal Enthalpies=            -423.008110
 Sum of electronic and thermal Free Energies=         -423.051949

                     E (Thermal)             CV                S
                      KCal/Mol        Cal/Mol-Kelvin    Cal/Mol-Kelvin
 Total                  104.072             33.981             92.267
 Electronic               0.000              0.000              0.000
 Translational            0.889              2.981             40.409
 Rotational               0.889              2.981             28.884
 Vibrational            102.294             28.020             22.974
 Vibration     1          0.595              1.980              5.160
 Vibration     2          0.599              1.965              4.005
 Vibration     3          0.640              1.834              2.094
 Vibration     4          0.662              1.765              1.741
 Vibration     5          0.685              1.694              1.481
 Vibration     6          0.713              1.614              1.257
 Vibration     7          0.736              1.550              1.112
 Vibration     8          0.760              1.487              0.992
 Vibration     9          0.786              1.418              0.878
 Vibration    10          0.807              1.366              0.803
 Vibration    11          0.902              1.147              0.552

 Optimization completed.
    -- Stationary point found.
 Normal termination of Gaussian 09 at Mon Jan 27 17:02:50 2020.
