 Gaussian 09, Revision D.01,
 Gaussian 09:  ES64L-G09RevD.01 24-Apr-2013

 -----------------------------
 # b3lyp 6-31G(2df,p) opt Freq
 -----------------------------

 -----
 titel
 -----
 Symbolic Z-matrix:
 Charge =  0 Multiplicity = 1

 SCF Done:  E(RB3LYP) =  -423.180368618     A.U. after   14 cycles
 Optimization completed.
    -- Stationary point found.
 Normal termination of Gaussian 09 at Tue Jan 28 02:23:13 2020.

 ----------------------------------------------------------------------
 #N Geom=AllCheck Guess=TCheck SCRF=Check GenChk RB3LYP/6-31G(2df,p) Fr
 eq
 ----------------------------------------------------------------------

 Structure from the checkpoint file:  "/scratch/puck/g09_d95924a7-3a96-4b70-855b-718396359e9d/Gau-76272.chk"
 -----
 titel
 -----
 Charge =  0 Multiplicity = 1

                         Standard orientation:
 ---------------------------------------------------------------------
 Center     Atomic      Atomic             Coordinates (Angstroms)
 Number     Number       Type             X           Y           Z
 ---------------------------------------------------------------------
      1          6           0        2.790155   -0.075795   -0.064507
      2          6           0        1.381940   -0.552191   -0.361166
      3          8           0        0.594223    0.483321   -1.018444
      4          6           0       -0.316704    0.590306    0.106084
      5          6           0       -0.534128    1.997469    0.584729
      6          6           0        0.397803   -0.613672    0.820711
      7          6           0       -0.829932   -1.527746    0.568686
      8          6           0       -1.527506   -0.349525   -0.147540
      9          8           0       -2.594085   -0.201409   -0.665656
     10          1           0        3.303774    0.188495   -0.993778
     11          1           0        2.779269    0.805573    0.584201
     12          1           0        3.362341   -0.866907    0.432911
     13          1           0        1.408715   -1.462407   -0.975019
     14          1           0       -1.173993    2.012334    1.472944
     15          1           0        0.417083    2.481323    0.824314
     16          1           0       -1.030794    2.578100   -0.199474
     17          1           0        0.801208   -0.566740    1.830729
     18          1           0       -0.667256   -2.432002   -0.025106
     19          1           0       -1.371215   -1.806146    1.479093
 ---------------------------------------------------------------------

 SCF Done:  E(RB3LYP) =  -423.180368618     A.U. after    1 cycles

 The electronic state is 1-A.
 Alpha  occ. eigenvalues --  -19.14409 -19.14110 -10.26812 -10.24473 -10.24365
 Alpha  occ. eigenvalues --  -10.20144 -10.19797 -10.18591 -10.18481  -1.05622
 Alpha  occ. eigenvalues --   -1.04048  -0.82858  -0.77220  -0.73554  -0.65756
 Alpha  occ. eigenvalues --   -0.63262  -0.57999  -0.50609  -0.49339  -0.48099
 Alpha  occ. eigenvalues --   -0.47251  -0.43955  -0.42599  -0.41907  -0.41251
 Alpha  occ. eigenvalues --   -0.39557  -0.39020  -0.37661  -0.37208  -0.35588
 Alpha  occ. eigenvalues --   -0.31294  -0.29636  -0.28127  -0.22990
 Alpha virt. eigenvalues --   -0.02863   0.08794   0.08967   0.10207   0.10985
 Alpha virt. eigenvalues --    0.12294   0.13418   0.14299   0.15486   0.15672
 Alpha virt. eigenvalues --    0.17479   0.18284   0.18675   0.20821   0.22445

 Mulliken charges:
               1
     1  C   -0.406482
     2  C    0.150208
     3  O   -0.336434
     4  C    0.334182
     5  C   -0.485860
     6  C   -0.156410
     7  C   -0.378713
     8  C    0.374968
     9  O   -0.293355
    10  H    0.132106
    11  H    0.120704
    12  H    0.117690
    13  H    0.079530
    14  H    0.124368
    15  H    0.126149
    16  H    0.148366
    17  H    0.083661
    18  H    0.130570
    19  H    0.134751
 Sum of Mulliken charges =   0.00000

 Dipole moment (field-independent basis, Debye):
    X=              2.4399    Y=             -0.7628    Z=              2.5092  Tot=              3.5821
 Quadrupole moment (field-independent basis, Debye-Ang):
   XX=            -58.8194   YY=            -50.3060   ZZ=            -54.0224
   XY=             -1.2953   XZ=             -3.0523   YZ=              1.0658

  Exact polarizability:  88.245  -1.469  76.976   0.498  -0.797  63.714
 Approx polarizability: 122.295  -3.953 108.143   4.198  -4.156 101.883

                      1                      2                      3
                      A                      A                      A
 Frequencies --     70.5365               136.7093               187.0451
 Red. masses --      4.0616                 3.7975                 1.0652
 Frc consts  --      0.0119                 0.0418                 0.0220
 IR Inten    --      1.7346                 3.4544                 0.3604

                      4                      5                      6
                      A                      A                      A
 Frequencies --    224.3766               232.0035               248.6320
 Red. masses --      1.7830                 1.3895                 2.5906
 Frc consts  --      0.0529                 0.0441                 0.0944
 IR Inten    --      0.3294                 0.0967                 1.3229

                      7                      8                      9
                      A                      A                      A
 Frequencies --    290.9630               357.4833               441.2312
 Red. masses --      2.6582                 3.1555                 3.4825
 Frc consts  --      0.1326                 0.2376                 0.3995
 IR Inten    --      0.2479                 4.7460                 2.5423

                     10                     11                     12
                      A                      A                      A
 Frequencies --    467.6879               518.9145               637.1288
 Red. masses --      3.7234                 1.9444                 3.9663
 Frc consts  --      0.4799                 0.3085                 0.9486
 IR Inten    --      4.6513                 3.6998                 0.3997

                     13                     14                     15
                      A                      A                      A
 Frequencies --    671.3062               790.7000               794.0852
 Red. masses --      4.2058                 2.0462                 2.8124
 Frc consts  --      1.1167                 0.7537                 1.0449
 IR Inten    --      4.9593                 3.2238                 0.7451

                     16                     17                     18
                      A                      A                      A
 Frequencies --    833.9359               898.2087               907.0363
 Red. masses --      2.1830                 2.9100                 2.3186
 Frc consts  --      0.8945                 1.3832                 1.1239
 IR Inten    --      6.9923                21.8582                11.0967

                     19                     20                     21
                      A                      A                      A
 Frequencies --    950.0497               994.8810              1030.5193
 Red. masses --      2.3376                 2.2799                 2.5435
 Frc consts  --      1.2431                 1.3296                 1.5915
 IR Inten    --     15.5081                21.8605                39.4232

                     22                     23                     24
                      A                      A                      A
 Frequencies --   1040.1313              1071.4228              1088.0599
 Red. masses --      2.2627                 1.7830                 1.6043
 Frc consts  --      1.4423                 1.2059                 1.1190
 IR Inten    --     42.8354                27.4819                13.8860

                     25                     26                     27
                      A                      A                      A
 Frequencies --   1119.5057              1151.5332              1158.6845
 Red. masses --      2.0408                 2.1422                 1.9398
 Frc consts  --      1.5070                 1.6737                 1.5344
 IR Inten    --      7.5755                15.6994                 2.4038

                     28                     29                     30
                      A                      A                      A
 Frequencies --   1187.8823              1228.3069              1273.7533
 Red. masses --      2.0915                 1.7820                 1.4431
 Frc consts  --      1.7389                 1.5841                 1.3795
 IR Inten    --      8.6170                 1.7000                 3.0279

                     31                     32                     33
                      A                      A                      A
 Frequencies --   1294.1843              1320.8597              1392.4999
 Red. masses --      2.3949                 1.8005                 1.3756
 Frc consts  --      2.3634                 1.8508                 1.5715
 IR Inten    --      7.3442                 4.6238                 7.3984

                     34                     35                     36
                      A                      A                      A
 Frequencies --   1402.8919              1408.3720              1437.4856
 Red. masses --      1.3286                 1.4206                 1.1080
 Frc consts  --      1.5406                 1.6602                 1.3489
 IR Inten    --     12.9580                10.0130                10.3143

                     37                     38                     39
                      A                      A                      A
 Frequencies --   1474.6591              1482.8000              1484.8845
 Red. masses --      1.0494                 1.0555                 1.0590
 Frc consts  --      1.3446                 1.3673                 1.3757
 IR Inten    --      1.9063                 3.8977                 4.6143

                     40                     41                     42
                      A                      A                      A
 Frequencies --   1491.0710              1893.1009              3015.1959
 Red. masses --      1.0495                12.8787                 1.0847
 Frc consts  --      1.3747                27.1937                 5.8101
 IR Inten    --      3.3371               249.8455                43.8435

                     43                     44                     45
                      A                      A                      A
 Frequencies --   3033.3950              3036.8965              3052.7541
 Red. masses --      1.0353                 1.0345                 1.0592
 Frc consts  --      5.6128                 5.6215                 5.8158
 IR Inten    --     14.5476                11.2522                10.4425

                     46                     47                     48
                      A                      A                      A
 Frequencies --   3104.7227              3105.8026              3109.7213
 Red. masses --      1.1047                 1.1007                 1.1005
 Frc consts  --      6.2740                 6.2558                 6.2705
 IR Inten    --      4.2009                23.8791                10.8156

                     49                     50                     51
                      A                      A                      A
 Frequencies --   3114.6663              3116.5892              3130.1381
 Red. masses --      1.1021                 1.1023                 1.0902
 Frc consts  --      6.2996                 6.3085                 6.2936
 IR Inten    --     20.8393                11.8337                21.0380

 - Thermochemistry -
 -------------------
 Temperature   298.150 Kelvin.  Pressure   1.00000 Atm.
 Atom     1 has atomic number  6 and mass  12.00000

 Molecular mass:   126.06808 amu.
 Principal axes and moments of inertia in atomic units:
                           1         2         3
     Eigenvalues --   631.503071293.732151550.41457
           X            0.99985  -0.01229  -0.01194
           Y            0.01265   0.99944   0.03092
           Z            0.01156  -0.03107   0.99945
 This molecule is an asymmetric top.
 Rotational symmetry number  1.
 Warning -- assumption of classical behavior for rotation
           may cause significant error
 Rotational temperatures (Kelvin)      0.13716     0.06695     0.05586
 Rotational constants (GHZ):           2.85785     1.39499     1.16404
 Zero-point vibrational energy     412145.8 (Joules/Mol)
                                   98.50522 (Kcal/Mol)
 Warning -- explicit consideration of  11 degrees of freedom as
           vibrations may cause significant error
 Vibrational temperatures:    101.49   196.69   269.12   322.83   333.80
          (Kelvin)            357.73   418.63   514.34   634.83   672.90
                              746.60   916.69   965.86  1137.64  1142.51
                             1199.85  1292.32  1305.02  1366.91  1431.41
                             1482.69  1496.52  1541.54  1565.47  1610.72
                             1656.80  1667.09  1709.10  1767.26  1832.64
                             1862.04  1900.42  2003.49  2018.45  2026.33
                             2068.22  2121.70  2133.42  2136.41  2145.32
                             2723.75  4338.19  4364.37  4369.41  4392.23
                             4467.00  4468.55  4474.19  4481.30  4484.07
                             4503.57

 Zero-point correction=                           0.156978 (Hartree/Particle)
 Thermal correction to Energy=                    0.165875
 Thermal correction to Enthalpy=                  0.166819
 Thermal correction to Gibbs Free Energy=         0.123508
 Sum of electronic and zero-point Energies=           -423.023391
 Sum of electronic and thermal Energies=              -423.014494
 Sum of electronic and thermal Enthalpies=            -423.013550
 Sum of electronic and thermal Free Energies=         -423.056861

                     E (Thermal)             CV                S
                      KCal/Mol        Cal/Mol-Kelvin    Cal/Mol-Kelvin
 Total                  104.088             33.408             91.157
 Electronic               0.000              0.000              0.000
 Translational            0.889              2.981             40.409
 Rotational               0.889              2.981             28.629
 Vibrational            102.311             27.446             22.120
 Vibration     1          0.598              1.968              4.138
 Vibration     2          0.614              1.917              2.849
 Vibration     3          0.632              1.858              2.257
 Vibration     4          0.649              1.804              1.923
 Vibration     5          0.653              1.792              1.863
 Vibration     6          0.662              1.765              1.740
 Vibration     7          0.687              1.691              1.468
 Vibration     8          0.733              1.560              1.133
 Vibration     9          0.801              1.380              0.823
 Vibration    10          0.825              1.322              0.744
 Vibration    11          0.874              1.208              0.612

 Optimization completed.
    -- Stationary point found.
 Normal termination of Gaussian 09 at Tue Jan 28 03:06:01 2020.
