 Gaussian 09, Revision D.01,
 Gaussian 09:  ES64L-G09RevD.01 24-Apr-2013

 -----------------------------
 # b3lyp 6-31G(2df,p) opt Freq
 -----------------------------

 -----
 titel
 -----
 Symbolic Z-matrix:
 Charge =  0 Multiplicity = 1

 SCF Done:  E(RB3LYP) =  -423.101724008     A.U. after   12 cycles
 Optimization completed.
    -- Stationary point found.
 Normal termination of Gaussian 09 at Tue Jan 28 09:51:31 2020.

 ----------------------------------------------------------------------
 #N Geom=AllCheck Guess=TCheck SCRF=Check GenChk RB3LYP/6-31G(2df,p) Fr
 eq
 ----------------------------------------------------------------------

 Structure from the checkpoint file:  "/scratch/puck/g09_b77f364a-ca45-4a49-9ced-4e9f9cbe130b/Gau-96596.chk"
 -----
 titel
 -----
 Charge =  0 Multiplicity = 1

                         Standard orientation:
 ---------------------------------------------------------------------
 Center     Atomic      Atomic             Coordinates (Angstroms)
 Number     Number       Type             X           Y           Z
 ---------------------------------------------------------------------
      1          8           0        2.734087   -0.427482   -0.572522
      2          6           0        2.002483    0.217717    0.462615
      3          6           0        0.548998   -0.070930    0.249640
      4          6           0       -0.164332   -1.442947    0.267633
      5          6           0       -1.268122   -0.428921   -0.022895
      6          8           0       -2.591391   -0.769533   -0.208311
      7          6           0       -0.653899    0.663331    0.940300
      8          6           0       -0.706408    1.752848   -0.152045
      9          6           0       -0.341965    0.469889   -0.928024
     10          1           0        3.671467   -0.292204   -0.405157
     11          1           0        2.307539   -0.152122    1.455206
     12          1           0        2.171554    1.307083    0.453921
     13          1           0        0.093067   -2.136576   -0.537516
     14          1           0       -0.212073   -1.957862    1.233072
     15          1           0       -3.092336    0.027584   -0.415761
     16          1           0       -0.817300    0.744737    2.016782
     17          1           0       -1.683763    2.202768   -0.360711
     18          1           0        0.055671    2.536793   -0.106877
     19          1           0       -0.135925    0.329998   -1.989642
 ---------------------------------------------------------------------

 SCF Done:  E(RB3LYP) =  -423.101724008     A.U. after    1 cycles

 The electronic state is 1-A.
 Alpha  occ. eigenvalues --  -19.14548 -19.13361 -10.24195 -10.22868 -10.19896
 Alpha  occ. eigenvalues --  -10.19159 -10.18875 -10.18375 -10.17396  -1.03287
 Alpha  occ. eigenvalues --   -1.01420  -0.92880  -0.74429  -0.71141  -0.63150
 Alpha  occ. eigenvalues --   -0.60853  -0.59076  -0.51596  -0.50924  -0.49890
 Alpha  occ. eigenvalues --   -0.46650  -0.45537  -0.43236  -0.42862  -0.39039
 Alpha  occ. eigenvalues --   -0.36403  -0.35790  -0.31935  -0.31272  -0.30080
 Alpha  occ. eigenvalues --   -0.29443  -0.28665  -0.26612  -0.24477
 Alpha virt. eigenvalues --    0.06855   0.07367   0.11388   0.12209   0.13668
 Alpha virt. eigenvalues --    0.14124   0.14210   0.14273   0.16055   0.18329
 Alpha virt. eigenvalues --    0.18550   0.19051   0.20221   0.20346   0.21375

 Mulliken charges:
               1
     1  O   -0.420588
     2  C   -0.226698
     3  C    0.393321
     4  C   -0.344853
     5  C    0.403474
     6  O   -0.470297
     7  C   -0.167727
     8  C   -0.290613
     9  C   -0.138649
    10  H    0.287814
    11  H    0.088090
    12  H    0.087216
    13  H    0.104772
    14  H    0.089363
    15  H    0.284858
    16  H    0.068173
    17  H    0.079293
    18  H    0.095295
    19  H    0.077756
 Sum of Mulliken charges =   0.00000

 Dipole moment (field-independent basis, Debye):
    X=              1.0175    Y=              1.8269    Z=              0.7889  Tot=              2.2350
 Quadrupole moment (field-independent basis, Debye-Ang):
   XX=            -46.0697   YY=            -55.0948   ZZ=            -53.3049
   XY=             -2.8633   XZ=              3.0660   YZ=             -0.8840

  Exact polarizability:  84.506  -2.572  76.356   1.085  -0.740  67.430
 Approx polarizability: 115.762  -1.716 111.654   0.703   0.410 106.994

                      1                      2                      3
                      A                      A                      A
 Frequencies --     85.4721               139.5241               220.8888
 Red. masses --      4.0653                 4.3578                 1.4041
 Frc consts  --      0.0175                 0.0500                 0.0404
 IR Inten    --      1.8659                 4.6233                71.9585

                      4                      5                      6
                      A                      A                      A
 Frequencies --    247.2671               278.8643               286.1452
 Red. masses --      1.1768                 1.8866                 2.1460
 Frc consts  --      0.0424                 0.0864                 0.1035
 IR Inten    --     40.7647                52.2663                10.6645

                      7                      8                      9
                      A                      A                      A
 Frequencies --    329.3829               435.1805               440.5564
 Red. masses --      3.3630                 2.9566                 2.3006
 Frc consts  --      0.2150                 0.3299                 0.2631
 IR Inten    --     29.5224                 2.8197                 1.4887

                     10                     11                     12
                      A                      A                      A
 Frequencies --    505.5258               621.0879               666.6906
 Red. masses --      2.4974                 4.5190                 2.9119
 Frc consts  --      0.3760                 1.0271                 0.7626
 IR Inten    --      9.3289                13.6912                 2.0375

                     13                     14                     15
                      A                      A                      A
 Frequencies --    712.8505               781.6961               859.8042
 Red. masses --      3.5144                 4.0808                 2.1786
 Frc consts  --      1.0522                 1.4692                 0.9489
 IR Inten    --      1.2124                 6.7800                 2.4279

                     16                     17                     18
                      A                      A                      A
 Frequencies --    862.1973               907.2614               942.9602
 Red. masses --      2.0804                 1.9915                 2.2310
 Frc consts  --      0.9112                 0.9658                 1.1688
 IR Inten    --      1.8316                 0.6931                 5.4312

                     19                     20                     21
                      A                      A                      A
 Frequencies --    980.2712               988.7973              1041.0196
 Red. masses --      1.2596                 1.3380                 2.5269
 Frc consts  --      0.7132                 0.7707                 1.6134
 IR Inten    --      0.1927                 3.8502                38.1743

                     22                     23                     24
                      A                      A                      A
 Frequencies --   1057.3383              1065.7133              1089.3831
 Red. masses --      2.2830                 3.8624                 1.9856
 Frc consts  --      1.5037                 2.5846                 1.3883
 IR Inten    --     17.3215                39.7618                 3.5118

                     25                     26                     27
                      A                      A                      A
 Frequencies --   1105.3796              1112.4021              1117.6980
 Red. masses --      2.0018                 1.2729                 1.3910
 Frc consts  --      1.4411                 0.9280                 1.0239
 IR Inten    --     18.4624                 2.7834                 2.5079

                     28                     29                     30
                      A                      A                      A
 Frequencies --   1147.3272              1162.7631              1178.3328
 Red. masses --      1.9491                 1.7157                 1.7827
 Frc consts  --      1.5117                 1.3667                 1.4583
 IR Inten    --      8.4454                 3.7863                 1.9965

                     31                     32                     33
                      A                      A                      A
 Frequencies --   1225.8138              1242.7037              1259.0093
 Red. masses --      1.3951                 1.8066                 1.4949
 Frc consts  --      1.2351                 1.6438                 1.3961
 IR Inten    --      7.9600                75.2775                55.9482

                     34                     35                     36
                      A                      A                      A
 Frequencies --   1274.5971              1303.1832              1354.3183
 Red. masses --      1.2337                 2.6290                 2.1834
 Frc consts  --      1.1809                 2.6305                 2.3595
 IR Inten    --     27.1810               153.5919                54.5841

                     37                     38                     39
                      A                      A                      A
 Frequencies --   1396.2263              1466.3298              1506.8859
 Red. masses --      2.1059                 1.6542                 1.0944
 Frc consts  --      2.4187                 2.0956                 1.4641
 IR Inten    --      9.4069                15.3134                 3.0807

                     40                     41                     42
                      A                      A                      A
 Frequencies --   1517.3180              1523.5823              2959.3197
 Red. masses --      1.1487                 1.3007                 1.0544
 Frc consts  --      1.5581                 1.7789                 5.4406
 IR Inten    --      0.9888                14.6588                54.7250

                     43                     44                     45
                      A                      A                      A
 Frequencies --   2985.7713              3032.4150              3042.5277
 Red. masses --      1.1056                 1.0574                 1.0567
 Frc consts  --      5.8069                 5.7288                 5.7633
 IR Inten    --     49.6615                71.6868                38.3605

                     46                     47                     48
                      A                      A                      A
 Frequencies --   3087.1228              3095.3470              3107.1950
 Red. masses --      1.1054                 1.0904                 1.1084
 Frc consts  --      6.2069                 6.1553                 6.3051
 IR Inten    --     40.6359                62.8873                22.1006

                     49                     50                     51
                      A                      A                      A
 Frequencies --   3113.8806              3797.1268              3827.8027
 Red. masses --      1.0914                 1.0654                 1.0663
 Frc consts  --      6.2351                 9.0508                 9.2054
 IR Inten    --     26.8363                18.3480                18.8490

 - Thermochemistry -
 -------------------
 Temperature   298.150 Kelvin.  Pressure   1.00000 Atm.
 Atom     1 has atomic number  8 and mass  15.99491

 Molecular mass:   126.06808 amu.
 Principal axes and moments of inertia in atomic units:
                           1         2         3
     Eigenvalues --   540.332461399.273531625.23014
           X            0.99989  -0.01062   0.01017
           Y            0.01078   0.99982  -0.01574
           Z           -0.01000   0.01585   0.99982
 This molecule is an asymmetric top.
 Rotational symmetry number  1.
 Warning -- assumption of classical behavior for rotation
           may cause significant error
 Rotational temperatures (Kelvin)      0.16030     0.06190     0.05329
 Rotational constants (GHZ):           3.34006     1.28977     1.11045
 Zero-point vibrational energy     415632.1 (Joules/Mol)
                                   99.33845 (Kcal/Mol)
 Warning -- explicit consideration of  10 degrees of freedom as
           vibrations may cause significant error
 Vibrational temperatures:    122.98   200.74   317.81   355.76   401.22
          (Kelvin)            411.70   473.91   626.13   633.86   727.34
                              893.61   959.22  1025.63  1124.68  1237.06
                             1240.51  1305.35  1356.71  1410.39  1422.66
                             1497.79  1521.27  1533.32  1567.38  1590.39
                             1600.50  1608.12  1650.75  1672.95  1695.36
                             1763.67  1787.97  1811.43  1833.86  1874.99
                             1948.56  2008.86  2109.72  2168.07  2183.08
                             2192.09  4257.80  4295.85  4362.96  4377.51
                             4441.68  4453.51  4470.55  4480.17  5463.21
                             5507.35

 Zero-point correction=                           0.158306 (Hartree/Particle)
 Thermal correction to Energy=                    0.166736
 Thermal correction to Enthalpy=                  0.167680
 Thermal correction to Gibbs Free Energy=         0.125485
 Sum of electronic and zero-point Energies=           -422.943418
 Sum of electronic and thermal Energies=              -422.934988
 Sum of electronic and thermal Enthalpies=            -422.934044
 Sum of electronic and thermal Free Energies=         -422.976239

                     E (Thermal)             CV                S
                      KCal/Mol        Cal/Mol-Kelvin    Cal/Mol-Kelvin
 Total                  104.629             32.783             88.809
 Electronic               0.000              0.000              0.000
 Translational            0.889              2.981             40.409
 Rotational               0.889              2.981             28.598
 Vibrational            102.851             26.821             19.802
 Vibration     1          0.601              1.959              3.761
 Vibration     2          0.615              1.914              2.810
 Vibration     3          0.648              1.809              1.952
 Vibration     4          0.661              1.767              1.750
 Vibration     5          0.679              1.713              1.541
 Vibration     6          0.684              1.699              1.497
 Vibration     7          0.712              1.617              1.263
 Vibration     8          0.796              1.394              0.842
 Vibration     9          0.800              1.382              0.825
 Vibration    10          0.861              1.238              0.644

 Optimization completed.
    -- Stationary point found.
 Normal termination of Gaussian 09 at Tue Jan 28 10:36:30 2020.
