 Gaussian 09, Revision D.01,
 Gaussian 09:  ES64L-G09RevD.01 24-Apr-2013

 -----------------------------
 # b3lyp 6-31G(2df,p) opt Freq
 -----------------------------

 -----
 titel
 -----
 Symbolic Z-matrix:
 Charge =  0 Multiplicity = 1

 SCF Done:  E(RB3LYP) =  -423.142683293     A.U. after   14 cycles
 Optimization completed.
    -- Stationary point found.
 Normal termination of Gaussian 09 at Mon Jan 27 15:37:29 2020.

 ----------------------------------------------------------------------
 #N Geom=AllCheck Guess=TCheck SCRF=Check GenChk RB3LYP/6-31G(2df,p) Fr
 eq
 ----------------------------------------------------------------------

 Structure from the checkpoint file:  "/scratch/puck/g09_1f656ed4-a1b6-4b66-a456-ea3a6cb87aef/Gau-161928.chk"
 -----
 titel
 -----
 Charge =  0 Multiplicity = 1

                         Standard orientation:
 ---------------------------------------------------------------------
 Center     Atomic      Atomic             Coordinates (Angstroms)
 Number     Number       Type             X           Y           Z
 ---------------------------------------------------------------------
      1          6           0       -1.781929    1.813311    0.125690
      2          6           0       -1.196496    0.436019   -0.221068
      3          6           0       -2.052536   -0.677725    0.358027
      4          8           0       -2.467994   -1.622995   -0.260661
      5          6           0        0.219712    0.275629    0.319408
      6          6           0        1.054671   -0.845776   -0.278650
      7          6           0        2.435088   -0.839666    0.367279
      8          8           0        2.603016    0.579952    0.084576
      9          6           0        1.356409    0.596703   -0.607815
     10          1           0       -1.870421    1.939730    1.210523
     11          1           0       -1.133120    2.609620   -0.249225
     12          1           0       -2.776176    1.944907   -0.311666
     13          1           0       -1.185842    0.287456   -1.307122
     14          1           0       -2.257465   -0.570322    1.450588
     15          1           0        0.351781    0.521871    1.372716
     16          1           0        0.622619   -1.636581   -0.876846
     17          1           0        2.500431   -1.061769    1.438877
     18          1           0        3.180072   -1.426605   -0.180820
     19          1           0        1.278432    1.185068   -1.515562
 ---------------------------------------------------------------------

 SCF Done:  E(RB3LYP) =  -423.142683294     A.U. after    1 cycles

 The electronic state is 1-A.
 Alpha  occ. eigenvalues --  -19.14371 -19.14208 -10.27210 -10.24760 -10.24132
 Alpha  occ. eigenvalues --  -10.20858 -10.20745 -10.20297 -10.19283  -1.05766
 Alpha  occ. eigenvalues --   -1.04887  -0.85714  -0.78499  -0.70577  -0.66764
 Alpha  occ. eigenvalues --   -0.60383  -0.57940  -0.55634  -0.51877  -0.49122
 Alpha  occ. eigenvalues --   -0.47234  -0.45209  -0.44717  -0.42563  -0.41365
 Alpha  occ. eigenvalues --   -0.40627  -0.38386  -0.36720  -0.35778  -0.34384
 Alpha  occ. eigenvalues --   -0.32934  -0.28134  -0.25778  -0.23545
 Alpha virt. eigenvalues --   -0.02371   0.07717   0.09108   0.09685   0.10961
 Alpha virt. eigenvalues --    0.11775   0.13308   0.13923   0.14615   0.15916
 Alpha virt. eigenvalues --    0.16725   0.17255   0.18439   0.19828   0.21136

 Mulliken charges:
               1
     1  C   -0.416100
     2  C   -0.101524
     3  C    0.174794
     4  O   -0.253482
     5  C   -0.053744
     6  C   -0.144003
     7  C   -0.099595
     8  O   -0.290878
     9  C    0.089807
    10  H    0.124576
    11  H    0.131887
    12  H    0.127802
    13  H    0.094395
    14  H    0.070789
    15  H    0.092147
    16  H    0.119689
    17  H    0.108724
    18  H    0.115332
    19  H    0.109383
 Sum of Mulliken charges =   0.00000

 Dipole moment (field-independent basis, Debye):
    X=              0.1614    Y=              1.0150    Z=              0.3713  Tot=              1.0928
 Quadrupole moment (field-independent basis, Debye-Ang):
   XX=            -60.7715   YY=            -55.9410   ZZ=            -51.0177
   XY=            -10.0268   XZ=             -2.2840   YZ=             -1.9829

  Exact polarizability:  88.007  -3.080  75.133  -0.393   0.008  66.753
 Approx polarizability: 114.676   4.525 115.649   1.128   3.805 105.075

                      1                      2                      3
                      A                      A                      A
 Frequencies --     42.5740                69.3907               142.0530
 Red. masses --      6.5019                 3.4978                 2.9847
 Frc consts  --      0.0069                 0.0099                 0.0355
 IR Inten    --      5.7518                 4.6129                 0.6040

                      4                      5                      6
                      A                      A                      A
 Frequencies --    173.8344               208.7561               270.8452
 Red. masses --      2.9428                 1.0490                 2.4672
 Frc consts  --      0.0524                 0.0269                 0.1066
 IR Inten    --      1.0095                 0.5423                 2.2432

                      7                      8                      9
                      A                      A                      A
 Frequencies --    335.5660               366.9497               387.6788
 Red. masses --      2.4549                 3.8276                 2.9044
 Frc consts  --      0.1629                 0.3037                 0.2572
 IR Inten    --      8.4151                 1.2982                 3.8862

                     10                     11                     12
                      A                      A                      A
 Frequencies --    439.6643               572.7913               753.4082
 Red. masses --      3.6047                 3.6368                 3.2454
 Frc consts  --      0.4106                 0.7030                 1.0854
 IR Inten    --      0.4525                12.4310                 7.4695

                     13                     14                     15
                      A                      A                      A
 Frequencies --    805.4222               884.8165               890.0621
 Red. masses --      1.5109                 1.8234                 2.1973
 Frc consts  --      0.5775                 0.8411                 1.0256
 IR Inten    --     13.5664                12.6033                 9.8438

                     16                     17                     18
                      A                      A                      A
 Frequencies --    919.3457               947.8217               957.8715
 Red. masses --      2.5102                 2.6947                 2.3054
 Frc consts  --      1.2500                 1.4263                 1.2462
 IR Inten    --      9.2491                 4.0543                19.0312

                     19                     20                     21
                      A                      A                      A
 Frequencies --    987.3883               997.2117              1019.9966
 Red. masses --      2.3476                 1.4770                 2.3458
 Frc consts  --      1.3485                 0.8654                 1.4379
 IR Inten    --     63.8181                 8.6650                 7.0458

                     22                     23                     24
                      A                      A                      A
 Frequencies --   1043.6267              1076.2906              1099.6720
 Red. masses --      1.7090                 2.1650                 1.5938
 Frc consts  --      1.0967                 1.4776                 1.1356
 IR Inten    --      2.4031                29.2003                 3.6548

                     25                     26                     27
                      A                      A                      A
 Frequencies --   1114.5249              1132.0102              1157.3990
 Red. masses --      2.4346                 2.2191                 1.2040
 Frc consts  --      1.7818                 1.6754                 0.9503
 IR Inten    --     10.1618                 5.7736                 3.8655

                     28                     29                     30
                      A                      A                      A
 Frequencies --   1163.5421              1207.1553              1247.5167
 Red. masses --      1.8659                 2.2549                 1.3358
 Frc consts  --      1.4883                 1.9360                 1.2249
 IR Inten    --      6.9502                 5.8700                13.0700

                     31                     32                     33
                      A                      A                      A
 Frequencies --   1251.9977              1293.5968              1324.1533
 Red. masses --      1.4003                 1.4548                 1.5314
 Frc consts  --      1.2933                 1.4343                 1.5820
 IR Inten    --      3.8443                 0.8064                 3.5979

                     34                     35                     36
                      A                      A                      A
 Frequencies --   1351.9984              1405.7208              1419.4535
 Red. masses --      1.4159                 1.2205                 1.7269
 Frc consts  --      1.5248                 1.4210                 2.0500
 IR Inten    --      6.1494                 2.8944                 4.8413

                     37                     38                     39
                      A                      A                      A
 Frequencies --   1429.3315              1496.3495              1497.5684
 Red. masses --      1.4440                 1.0423                 1.0578
 Frc consts  --      1.7381                 1.3750                 1.3978
 IR Inten    --      6.5357                 6.3663                 4.1107

                     40                     41                     42
                      A                      A                      A
 Frequencies --   1515.1349              1832.1832              2843.6571
 Red. masses --      1.1055                10.3803                 1.0814
 Frc consts  --      1.4952                20.5304                 5.1523
 IR Inten    --      0.9696               166.1068               104.6357

                     43                     44                     45
                      A                      A                      A
 Frequencies --   3026.8025              3035.5940              3047.4386
 Red. masses --      1.0549                 1.0360                 1.0834
 Frc consts  --      5.6940                 5.6248                 5.9277
 IR Inten    --     76.4845                17.2034                 8.5544

                     46                     47                     48
                      A                      A                      A
 Frequencies --   3077.5940              3103.6643              3110.6772
 Red. masses --      1.1115                 1.0993                 1.0886
 Frc consts  --      6.2025                 6.2388                 6.2062
 IR Inten    --     33.4567                13.5090                24.1240

                     49                     50                     51
                      A                      A                      A
 Frequencies --   3117.2943              3172.8956              3207.8409
 Red. masses --      1.1023                 1.0917                 1.0959
 Frc consts  --      6.3111                 6.4751                 6.6443
 IR Inten    --     16.2956                17.1602                 3.4122

 - Thermochemistry -
 -------------------
 Temperature   298.150 Kelvin.  Pressure   1.00000 Atm.
 Atom     1 has atomic number  6 and mass  12.00000

 Molecular mass:   126.06808 amu.
 Principal axes and moments of inertia in atomic units:
                           1         2         3
     Eigenvalues --   580.926621720.660022128.11443
           X            0.99849  -0.05471  -0.00387
           Y            0.05468   0.99847  -0.00798
           Z            0.00430   0.00775   0.99996
 This molecule is an asymmetric top.
 Rotational symmetry number  1.
 Warning -- assumption of classical behavior for rotation
           may cause significant error
 Rotational temperatures (Kelvin)      0.14910     0.05034     0.04070
 Rotational constants (GHZ):           3.10666     1.04887     0.84805
 Zero-point vibrational energy     412568.9 (Joules/Mol)
                                   98.60633 (Kcal/Mol)
 Warning -- explicit consideration of  11 degrees of freedom as
           vibrations may cause significant error
 Vibrational temperatures:     61.25    99.84   204.38   250.11   300.35
          (Kelvin)            389.69   482.80   527.96   557.78   632.58
                              824.12  1083.99  1158.82  1273.05  1280.60
                             1322.73  1363.70  1378.16  1420.63  1434.76
                             1467.55  1501.54  1548.54  1582.18  1603.55
                             1628.71  1665.24  1674.08  1736.83  1794.90
                             1801.34  1861.19  1905.16  1945.22  2022.52
                             2042.27  2056.49  2152.91  2154.66  2179.94
                             2636.10  4091.38  4354.89  4367.54  4384.58
                             4427.97  4465.48  4475.57  4485.09  4565.08
                             4615.36

 Zero-point correction=                           0.157139 (Hartree/Particle)
 Thermal correction to Energy=                    0.166183
 Thermal correction to Enthalpy=                  0.167128
 Thermal correction to Gibbs Free Energy=         0.122273
 Sum of electronic and zero-point Energies=           -422.985544
 Sum of electronic and thermal Energies=              -422.976500
 Sum of electronic and thermal Enthalpies=            -422.975556
 Sum of electronic and thermal Free Energies=         -423.020411

                     E (Thermal)             CV                S
                      KCal/Mol        Cal/Mol-Kelvin    Cal/Mol-Kelvin
 Total                  104.282             32.644             94.405
 Electronic               0.000              0.000              0.000
 Translational            0.889              2.981             40.409
 Rotational               0.889              2.981             29.144
 Vibrational            102.504             26.682             24.853
 Vibration     1          0.595              1.980              5.136
 Vibration     2          0.598              1.969              4.171
 Vibration     3          0.616              1.911              2.776
 Vibration     4          0.627              1.875              2.394
 Vibration     5          0.642              1.827              2.055
 Vibration     6          0.675              1.727              1.591
 Vibration     7          0.717              1.604              1.233
 Vibration     8          0.740              1.540              1.093
 Vibration     9          0.756              1.497              1.009
 Vibration    10          0.800              1.384              0.828
 Vibration    11          0.929              1.090              0.499

 Optimization completed.
    -- Stationary point found.
 Normal termination of Gaussian 09 at Mon Jan 27 16:20:17 2020.
