 Gaussian 09, Revision D.01,
 Gaussian 09:  ES64L-G09RevD.01 24-Apr-2013

 -----------------------------
 # b3lyp 6-31G(2df,p) opt Freq
 -----------------------------

 -----
 titel
 -----
 Symbolic Z-matrix:
 Charge =  0 Multiplicity = 1

 SCF Done:  E(RB3LYP) =  -423.163914161     A.U. after   14 cycles
 Optimization completed.
    -- Stationary point found.
 Normal termination of Gaussian 09 at Mon Jan 27 17:17:29 2020.

 ----------------------------------------------------------------------
 #N Geom=AllCheck Guess=TCheck SCRF=Check GenChk RB3LYP/6-31G(2df,p) Fr
 eq
 ----------------------------------------------------------------------

 Structure from the checkpoint file:  "/scratch/puck/g09_704e174a-dc79-42da-a113-21472463852f/Gau-179485.chk"
 -----
 titel
 -----
 Charge =  0 Multiplicity = 1

                         Standard orientation:
 ---------------------------------------------------------------------
 Center     Atomic      Atomic             Coordinates (Angstroms)
 Number     Number       Type             X           Y           Z
 ---------------------------------------------------------------------
      1          6           0       -0.141641    2.051003   -0.384081
      2          6           0       -0.314130    0.697100    0.244736
      3          6           0       -1.474330    0.371250    1.169272
      4          6           0       -1.274272   -0.476833   -0.039040
      5          8           0       -2.311247   -0.619098   -0.938308
      6          6           0       -0.163258   -1.493885    0.202107
      7          6           0        0.819077   -0.312799    0.553940
      8          6           0        1.977599   -0.251607   -0.403748
      9          8           0        3.134613   -0.140707   -0.090540
     10          1           0        0.297863    2.766133    0.321382
     11          1           0        0.507743    2.017612   -1.265836
     12          1           0       -1.110249    2.451061   -0.700516
     13          1           0       -1.310278   -0.017014    2.173003
     14          1           0       -2.308665    1.060464    1.081878
     15          1           0       -1.939573   -0.827635   -1.803025
     16          1           0       -0.327351   -2.243585    0.982184
     17          1           0        0.144942   -2.006307   -0.716618
     18          1           0        1.202282   -0.295658    1.578138
     19          1           0        1.682082   -0.332010   -1.478911
 ---------------------------------------------------------------------

 SCF Done:  E(RB3LYP) =  -423.163914161     A.U. after    1 cycles

 The electronic state is 1-A.
 Alpha  occ. eigenvalues --  -19.15946 -19.13998 -10.27094 -10.24918 -10.20808
 Alpha  occ. eigenvalues --  -10.20331 -10.20186 -10.19036 -10.18870  -1.04730
 Alpha  occ. eigenvalues --   -1.04541  -0.90254  -0.76209  -0.73378  -0.66668
 Alpha  occ. eigenvalues --   -0.59960  -0.58985  -0.56081  -0.49823  -0.47865
 Alpha  occ. eigenvalues --   -0.46758  -0.45325  -0.42614  -0.41699  -0.41086
 Alpha  occ. eigenvalues --   -0.39985  -0.39406  -0.38684  -0.37063  -0.33067
 Alpha  occ. eigenvalues --   -0.32021  -0.29282  -0.24799  -0.24153
 Alpha virt. eigenvalues --   -0.02516   0.06226   0.10201   0.10834   0.11087
 Alpha virt. eigenvalues --    0.11900   0.12321   0.13313   0.15383   0.16452
 Alpha virt. eigenvalues --    0.16984   0.18411   0.19227   0.20735   0.22880

 Mulliken charges:
               1
     1  C   -0.504623
     2  C    0.240672
     3  C   -0.358968
     4  C    0.376399
     5  O   -0.453745
     6  C   -0.332129
     7  C   -0.126182
     8  C    0.161451
     9  O   -0.257321
    10  H    0.131126
    11  H    0.118942
    12  H    0.128909
    13  H    0.106429
    14  H    0.122296
    15  H    0.284798
    16  H    0.112688
    17  H    0.100568
    18  H    0.086940
    19  H    0.061751
 Sum of Mulliken charges =   0.00000

 Dipole moment (field-independent basis, Debye):
    X=             -1.7579    Y=             -0.1267    Z=             -0.8812  Tot=              1.9705
 Quadrupole moment (field-independent basis, Debye-Ang):
   XX=            -69.6288   YY=            -51.1410   ZZ=            -48.5617
   XY=             -1.1070   XZ=             -0.1952   YZ=              1.0184

  Exact polarizability:  86.259   0.653  73.154  -1.053   0.482  71.585
 Approx polarizability: 128.009   4.488 103.163   2.734   3.024 109.412

                      1                      2                      3
                      A                      A                      A
 Frequencies --     71.7197                93.2417               168.3775
 Red. masses --      5.2457                 4.1676                 2.2238
 Frc consts  --      0.0159                 0.0213                 0.0371
 IR Inten    --      5.5991                 3.8201                 0.0728

                      4                      5                      6
                      A                      A                      A
 Frequencies --    189.4314               241.8770               340.0441
 Red. masses --      1.2116                 2.2970                 1.2665
 Frc consts  --      0.0256                 0.0792                 0.0863
 IR Inten    --      1.5680                 0.9742                62.4643

                      7                      8                      9
                      A                      A                      A
 Frequencies --    356.7809               386.8222               392.4945
 Red. masses --      1.9838                 3.5882                 2.8436
 Frc consts  --      0.1488                 0.3163                 0.2581
 IR Inten    --     10.7287                18.2302                11.2719

                     10                     11                     12
                      A                      A                      A
 Frequencies --    408.6146               469.5845               520.1049
 Red. masses --      2.8154                 2.8542                 2.7112
 Frc consts  --      0.2770                 0.3708                 0.4321
 IR Inten    --      9.0264                 7.9798                 9.4978

                     13                     14                     15
                      A                      A                      A
 Frequencies --    595.9598               706.4302               761.5348
 Red. masses --      3.4287                 4.4864                 2.8375
 Frc consts  --      0.7175                 1.3191                 0.9695
 IR Inten    --      2.8008                 4.3495                 0.4923

                     16                     17                     18
                      A                      A                      A
 Frequencies --    832.9129               865.6569               916.6335
 Red. masses --      3.1205                 2.0804                 1.9230
 Frc consts  --      1.2755                 0.9185                 0.9520
 IR Inten    --      1.8235                20.3602                 1.6072

                     19                     20                     21
                      A                      A                      A
 Frequencies --    952.1523               966.6100              1006.9184
 Red. masses --      2.0698                 1.3345                 1.6846
 Frc consts  --      1.1056                 0.7346                 1.0063
 IR Inten    --      4.9517                 1.3489                 8.2386

                     22                     23                     24
                      A                      A                      A
 Frequencies --   1051.8943              1057.6077              1085.9690
 Red. masses --      1.8687                 1.4449                 1.6303
 Frc consts  --      1.2182                 0.9522                 1.1328
 IR Inten    --      9.2440                 4.8153                 2.4098

                     25                     26                     27
                      A                      A                      A
 Frequencies --   1101.4549              1152.3896              1173.8173
 Red. masses --      1.5750                 1.9843                 1.9306
 Frc consts  --      1.1258                 1.5526                 1.5673
 IR Inten    --      3.3981                53.9776                33.5923

                     28                     29                     30
                      A                      A                      A
 Frequencies --   1220.6500              1229.9115              1233.1478
 Red. masses --      1.5754                 1.3482                 2.0341
 Frc consts  --      1.3830                 1.2016                 1.8225
 IR Inten    --     10.8753                 6.3156                 9.3707

                     31                     32                     33
                      A                      A                      A
 Frequencies --   1294.1799              1331.5000              1334.5102
 Red. masses --      1.5892                 3.3332                 2.3241
 Frc consts  --      1.5683                 3.4817                 2.4386
 IR Inten    --      4.4400                82.8400                91.9141

                     34                     35                     36
                      A                      A                      A
 Frequencies --   1413.7418              1424.2259              1431.7441
 Red. masses --      1.3279                 1.5880                 1.2383
 Frc consts  --      1.5637                 1.8978                 1.4955
 IR Inten    --      2.1762                 2.5130                 2.8043

                     37                     38                     39
                      A                      A                      A
 Frequencies --   1476.8489              1487.0964              1497.6484
 Red. masses --      1.1329                 1.0488                 1.0527
 Frc consts  --      1.4558                 1.3665                 1.3912
 IR Inten    --      4.5096                 3.8992                 2.5167

                     40                     41                     42
                      A                      A                      A
 Frequencies --   1517.1021              1832.2053              2826.7105
 Red. masses --      1.6447                10.4149                 1.0802
 Frc consts  --      2.2304                20.5993                 5.0854
 IR Inten    --     15.8526               208.2651                93.5623

                     43                     44                     45
                      A                      A                      A
 Frequencies --   3023.6826              3033.2858              3072.1487
 Red. masses --      1.0360                 1.0586                 1.0885
 Frc consts  --      5.5808                 5.7389                 6.0531
 IR Inten    --     34.2989                36.3958                12.1872

                     46                     47                     48
                      A                      A                      A
 Frequencies --   3081.4873              3088.9962              3096.9981
 Red. masses --      1.1007                 1.1037                 1.0611
 Frc consts  --      6.1579                 6.2049                 5.9964
 IR Inten    --     18.9192                33.1029                16.7038

                     49                     50                     51
                      A                      A                      A
 Frequencies --   3100.3278              3197.5978              3790.1096
 Red. masses --      1.0973                 1.1115                 1.0658
 Frc consts  --      6.2141                 6.6959                 9.0204
 IR Inten    --     20.6030                 7.8027                16.5626

 - Thermochemistry -
 -------------------
 Temperature   298.150 Kelvin.  Pressure   1.00000 Atm.
 Atom     1 has atomic number  6 and mass  12.00000

 Molecular mass:   126.06808 amu.
 Principal axes and moments of inertia in atomic units:
                           1         2         3
     Eigenvalues --   648.753041494.923551737.76711
           X            0.99992  -0.00955  -0.00839
           Y            0.00936   0.99972  -0.02182
           Z            0.00859   0.02174   0.99973
 This molecule is an asymmetric top.
 Rotational symmetry number  1.
 Warning -- assumption of classical behavior for rotation
           may cause significant error
 Rotational temperatures (Kelvin)      0.13351     0.05794     0.04984
 Rotational constants (GHZ):           2.78186     1.20725     1.03854
 Zero-point vibrational energy     412130.8 (Joules/Mol)
                                   98.50163 (Kcal/Mol)
 Warning -- explicit consideration of  13 degrees of freedom as
           vibrations may cause significant error
 Vibrational temperatures:    103.19   134.15   242.26   272.55   348.01
          (Kelvin)            489.25   513.33   556.55   564.71   587.90
                              675.63   748.31   857.45  1016.39  1095.68
                             1198.37  1245.49  1318.83  1369.93  1390.73
                             1448.73  1513.44  1521.66  1562.47  1584.75
                             1658.03  1688.86  1756.24  1769.57  1774.22
                             1862.03  1915.73  1920.06  2034.06  2049.14
                             2059.96  2124.85  2139.60  2154.78  2182.77
                             2636.13  4067.00  4350.40  4364.22  4420.13
                             4433.57  4444.37  4455.88  4460.67  4600.62
                             5453.12

 Zero-point correction=                           0.156972 (Hartree/Particle)
 Thermal correction to Energy=                    0.166087
 Thermal correction to Enthalpy=                  0.167032
 Thermal correction to Gibbs Free Energy=         0.123051
 Sum of electronic and zero-point Energies=           -423.006942
 Sum of electronic and thermal Energies=              -422.997827
 Sum of electronic and thermal Enthalpies=            -422.996883
 Sum of electronic and thermal Free Energies=         -423.040863

                     E (Thermal)             CV                S
                      KCal/Mol        Cal/Mol-Kelvin    Cal/Mol-Kelvin
 Total                  104.221             34.202             92.565
 Electronic               0.000              0.000              0.000
 Translational            0.889              2.981             40.409
 Rotational               0.889              2.981             28.912
 Vibrational            102.444             28.240             23.244
 Vibration     1          0.598              1.967              4.106
 Vibration     2          0.602              1.954              3.591
 Vibration     3          0.625              1.881              2.454
 Vibration     4          0.633              1.854              2.233
 Vibration     5          0.658              1.776              1.789
 Vibration     6          0.720              1.595              1.212
 Vibration     7          0.732              1.561              1.136
 Vibration     8          0.755              1.498              1.012
 Vibration     9          0.760              1.486              0.991
 Vibration    10          0.773              1.452              0.932
 Vibration    11          0.827              1.318              0.739
 Vibration    12          0.875              1.205              0.610
 Vibration    13          0.954              1.040              0.457

 Optimization completed.
    -- Stationary point found.
 Normal termination of Gaussian 09 at Mon Jan 27 18:00:31 2020.
