 Gaussian 09, Revision D.01,
 Gaussian 09:  ES64L-G09RevD.01 24-Apr-2013

 -----------------------------
 # b3lyp 6-31G(2df,p) opt Freq
 -----------------------------

 -----
 titel
 -----
 Symbolic Z-matrix:
 Charge =  0 Multiplicity = 1

 SCF Done:  E(RB3LYP) =  -423.181064918     A.U. after   14 cycles
 Optimization completed.
    -- Stationary point found.
 Normal termination of Gaussian 09 at Mon Jan 27 18:30:14 2020.

 ----------------------------------------------------------------------
 #N Geom=AllCheck Guess=TCheck SCRF=Check GenChk RB3LYP/6-31G(2df,p) Fr
 eq
 ----------------------------------------------------------------------

 Structure from the checkpoint file:  "/scratch/puck/g09_2af3c57e-9775-4afa-a8dd-827983524f9c/Gau-42530.chk"
 -----
 titel
 -----
 Charge =  0 Multiplicity = 1

                         Standard orientation:
 ---------------------------------------------------------------------
 Center     Atomic      Atomic             Coordinates (Angstroms)
 Number     Number       Type             X           Y           Z
 ---------------------------------------------------------------------
      1          6           0        2.033347   -0.345391   -1.062419
      2          6           0        0.880526   -0.383890   -0.095742
      3          6           0       -0.097396   -1.591798   -0.102376
      4          6           0       -1.266666   -0.589997   -0.028991
      5          8           0       -2.458849   -0.701847   -0.045060
      6          6           0       -0.332356    0.629615   -0.042253
      7          6           0       -0.638486    1.779031   -0.973482
      8          6           0        0.205947    0.926066    1.380351
      9          8           0        1.263217   -0.045353    1.259090
     10          1           0        2.523862    0.632111   -1.046573
     11          1           0        2.777901   -1.101161   -0.789009
     12          1           0        1.697805   -0.553302   -2.083399
     13          1           0       -0.114712   -2.153850   -1.042934
     14          1           0        0.006961   -2.290084    0.731419
     15          1           0       -1.549924    2.293999   -0.651221
     16          1           0        0.177845    2.508631   -0.985588
     17          1           0       -0.804108    1.433763   -1.998946
     18          1           0        0.605636    1.943602    1.480959
     19          1           0       -0.465714    0.722075    2.222520
 ---------------------------------------------------------------------

 SCF Done:  E(RB3LYP) =  -423.181064918     A.U. after    1 cycles

 The electronic state is 1-A.
 Alpha  occ. eigenvalues --  -19.13976 -19.13946 -10.27048 -10.24947 -10.24166
 Alpha  occ. eigenvalues --  -10.20404 -10.19187 -10.19127 -10.18796  -1.05391
 Alpha  occ. eigenvalues --   -1.04286  -0.83418  -0.76741  -0.73199  -0.67977
 Alpha  occ. eigenvalues --   -0.63127  -0.56628  -0.49887  -0.49447  -0.48362
 Alpha  occ. eigenvalues --   -0.47688  -0.43549  -0.42735  -0.41958  -0.41374
 Alpha  occ. eigenvalues --   -0.40836  -0.39494  -0.39072  -0.37816  -0.35215
 Alpha  occ. eigenvalues --   -0.31436  -0.29314  -0.25482  -0.24153
 Alpha virt. eigenvalues --   -0.02504   0.07412   0.07633   0.11840   0.12017
 Alpha virt. eigenvalues --    0.13000   0.13152   0.14356   0.15500   0.16615
 Alpha virt. eigenvalues --    0.16981   0.17678   0.18102   0.20163   0.21465

 Mulliken charges:
               1
     1  C   -0.475913
     2  C    0.400435
     3  C   -0.403250
     4  C    0.373213
     5  O   -0.304662
     6  C    0.092830
     7  C   -0.497666
     8  C   -0.120913
     9  O   -0.329520
    10  H    0.126552
    11  H    0.136055
    12  H    0.120214
    13  H    0.130624
    14  H    0.137862
    15  H    0.141860
    16  H    0.123148
    17  H    0.126343
    18  H    0.107803
    19  H    0.114985
 Sum of Mulliken charges =   0.00000

 Dipole moment (field-independent basis, Debye):
    X=              1.6713    Y=              0.9223    Z=             -1.1775  Tot=              2.2429
 Quadrupole moment (field-independent basis, Debye-Ang):
   XX=            -62.8353   YY=            -49.9486   ZZ=            -52.2567
   XY=             -2.4099   XZ=             -3.0432   YZ=              1.3149

  Exact polarizability:  79.425  -1.050  78.097  -1.887   2.597  68.787
 Approx polarizability: 120.504  -0.611 109.234   0.664   4.417 100.940

                      1                      2                      3
                      A                      A                      A
 Frequencies --     70.1658               159.9627               168.4023
 Red. masses --      4.0555                 1.2003                 2.1042
 Frc consts  --      0.0118                 0.0181                 0.0352
 IR Inten    --      5.5558                 0.3860                 0.5695

                      4                      5                      6
                      A                      A                      A
 Frequencies --    179.8687               203.0092               268.7757
 Red. masses --      2.2213                 1.1385                 2.7949
 Frc consts  --      0.0423                 0.0276                 0.1190
 IR Inten    --      0.0977                 0.1991                 2.2852

                      7                      8                      9
                      A                      A                      A
 Frequencies --    312.2238               339.7553               393.6855
 Red. masses --      2.2987                 3.1960                 2.9414
 Frc consts  --      0.1320                 0.2174                 0.2686
 IR Inten    --      0.4755                 2.3674                 4.5860

                     10                     11                     12
                      A                      A                      A
 Frequencies --    501.0743               517.2563               596.4748
 Red. masses --      3.4554                 1.9874                 4.7681
 Frc consts  --      0.5112                 0.3133                 0.9995
 IR Inten    --      2.2568                 1.3902                 3.5713

                     13                     14                     15
                      A                      A                      A
 Frequencies --    622.1284               698.0616               748.3341
 Red. masses --      3.3883                 3.8120                 2.3808
 Frc consts  --      0.7727                 1.0944                 0.7855
 IR Inten    --      1.1398                 2.5611                 4.7190

                     16                     17                     18
                      A                      A                      A
 Frequencies --    848.8864               867.9501               917.6055
 Red. masses --      2.9270                 2.4558                 1.8534
 Frc consts  --      1.2427                 1.0900                 0.9195
 IR Inten    --     11.3796                 6.1696                11.6410

                     19                     20                     21
                      A                      A                      A
 Frequencies --    942.1925               980.7621              1009.2262
 Red. masses --      1.9851                 1.3960                 5.2527
 Frc consts  --      1.0383                 0.7912                 3.1522
 IR Inten    --      1.5674                 0.1993                30.3738

                     22                     23                     24
                      A                      A                      A
 Frequencies --   1044.7379              1054.8207              1128.9180
 Red. masses --      4.2355                 1.5754                 2.1712
 Frc consts  --      2.7238                 1.0328                 1.6304
 IR Inten    --     89.8391                 6.2630                12.9534

                     25                     26                     27
                      A                      A                      A
 Frequencies --   1147.3434              1163.3349              1181.0576
 Red. masses --      1.6912                 1.3958                 1.9724
 Frc consts  --      1.3117                 1.1130                 1.6210
 IR Inten    --      1.5213                 6.2320                16.8195

                     28                     29                     30
                      A                      A                      A
 Frequencies --   1199.6776              1209.0743              1284.1156
 Red. masses --      2.0299                 2.7795                 2.6661
 Frc consts  --      1.7213                 2.3940                 2.5903
 IR Inten    --     21.0436                 8.7726                22.8077

                     31                     32                     33
                      A                      A                      A
 Frequencies --   1305.6712              1356.4441              1406.6405
 Red. masses --      3.0778                 1.8015                 1.2721
 Frc consts  --      3.0914                 1.9529                 1.4830
 IR Inten    --     26.0268                 6.0196                 4.5805

                     34                     35                     36
                      A                      A                      A
 Frequencies --   1411.8943              1418.5130              1478.0965
 Red. masses --      1.3314                 1.1170                 1.0512
 Frc consts  --      1.5637                 1.3243                 1.3531
 IR Inten    --      9.6113                 9.1729                 2.4347

                     37                     38                     39
                      A                      A                      A
 Frequencies --   1485.8851              1491.6381              1492.3879
 Red. masses --      1.0516                 1.0496                 1.0552
 Frc consts  --      1.3680                 1.3760                 1.3847
 IR Inten    --      2.0974                 7.8118                 5.6428

                     40                     41                     42
                      A                      A                      A
 Frequencies --   1525.0076              1884.5591              3008.7452
 Red. masses --      1.0937                12.7456                 1.0571
 Frc consts  --      1.4986                26.6705                 5.6383
 IR Inten    --      0.3047               251.8333                63.1318

                     43                     44                     45
                      A                      A                      A
 Frequencies --   3031.5466              3035.0248              3050.7281
 Red. masses --      1.0349                 1.0356                 1.0610
 Frc consts  --      5.6037                 5.6204                 5.8178
 IR Inten    --     19.7607                15.0781                 4.6022

                     46                     47                     48
                      A                      A                      A
 Frequencies --   3058.6782              3100.6273              3102.8616
 Red. masses --      1.1085                 1.1008                 1.1017
 Frc consts  --      6.1102                 6.2354                 6.2495
 IR Inten    --     31.6692                13.6917                11.6908

                     49                     50                     51
                      A                      A                      A
 Frequencies --   3103.5867              3114.1870              3118.3088
 Red. masses --      1.1005                 1.1018                 1.1029
 Frc consts  --      6.2455                 6.2956                 6.3186
 IR Inten    --     14.8688                17.6822                 7.2492

 - Thermochemistry -
 -------------------
 Temperature   298.150 Kelvin.  Pressure   1.00000 Atm.
 Atom     1 has atomic number  6 and mass  12.00000

 Molecular mass:   126.06808 amu.
 Principal axes and moments of inertia in atomic units:
                           1         2         3
     Eigenvalues --   791.613581149.250131273.84430
           X            0.99751  -0.05460  -0.04458
           Y            0.05429   0.99849  -0.00808
           Z            0.04495   0.00564   0.99897
 This molecule is an asymmetric top.
 Rotational symmetry number  1.
 Warning -- assumption of classical behavior for rotation
           may cause significant error
 Rotational temperatures (Kelvin)      0.10941     0.07537     0.06799
 Rotational constants (GHZ):           2.27983     1.57036     1.41677
 Zero-point vibrational energy     411156.0 (Joules/Mol)
                                   98.26864 (Kcal/Mol)
 Warning -- explicit consideration of  12 degrees of freedom as
           vibrations may cause significant error
 Vibrational temperatures:    100.95   230.15   242.29   258.79   292.08
          (Kelvin)            386.71   449.22   488.83   566.42   720.93
                              744.22   858.19   895.10  1004.35  1076.68
                             1221.36  1248.79  1320.23  1355.60  1411.10
                             1452.05  1503.14  1517.65  1624.26  1650.77
                             1673.78  1699.28  1726.07  1739.59  1847.55
                             1878.57  1951.62  2023.84  2031.40  2040.92
                             2126.65  2137.85  2146.13  2147.21  2194.14
                             2711.46  4328.91  4361.71  4366.72  4389.31
                             4400.75  4461.11  4464.32  4465.36  4480.61
                             4486.55

 Zero-point correction=                           0.156601 (Hartree/Particle)
 Thermal correction to Energy=                    0.165673
 Thermal correction to Enthalpy=                  0.166617
 Thermal correction to Gibbs Free Energy=         0.123006
 Sum of electronic and zero-point Energies=           -423.024464
 Sum of electronic and thermal Energies=              -423.015392
 Sum of electronic and thermal Enthalpies=            -423.014448
 Sum of electronic and thermal Free Energies=         -423.058059

                     E (Thermal)             CV                S
                      KCal/Mol        Cal/Mol-Kelvin    Cal/Mol-Kelvin
 Total                  103.961             33.861             91.787
 Electronic               0.000              0.000              0.000
 Translational            0.889              2.981             40.409
 Rotational               0.889              2.981             28.540
 Vibrational            102.184             27.899             22.839
 Vibration     1          0.598              1.968              4.149
 Vibration     2          0.622              1.891              2.550
 Vibration     3          0.625              1.881              2.453
 Vibration     4          0.629              1.867              2.330
 Vibration     5          0.639              1.836              2.106
 Vibration     6          0.673              1.731              1.604
 Vibration     7          0.701              1.650              1.351
 Vibration     8          0.720              1.596              1.213
 Vibration     9          0.761              1.484              0.986
 Vibration    10          0.856              1.248              0.655
 Vibration    11          0.872              1.212              0.616
 Vibration    12          0.954              1.039              0.456

 Normal termination of Gaussian 09 at Mon Jan 27 19:25:27 2020.
