 Gaussian 09, Revision D.01,
 Gaussian 09:  ES64L-G09RevD.01 24-Apr-2013

 -----------------------------
 # b3lyp 6-31G(2df,p) opt Freq
 -----------------------------

 -----
 titel
 -----
 Symbolic Z-matrix:
 Charge =  0 Multiplicity = 1

 SCF Done:  E(RB3LYP) =  -423.118850201     A.U. after   13 cycles
 Optimization completed.
    -- Stationary point found.
 Normal termination of Gaussian 09 at Mon Jan 27 18:37:14 2020.

 ----------------------------------------------------------------------
 #N Geom=AllCheck Guess=TCheck SCRF=Check GenChk RB3LYP/6-31G(2df,p) Fr
 eq
 ----------------------------------------------------------------------

 Structure from the checkpoint file:  "/scratch/puck/g09_a5c4890a-ddbf-494f-a84d-cff5dd7891f3/Gau-43112.chk"
 -----
 titel
 -----
 Charge =  0 Multiplicity = 1

                         Standard orientation:
 ---------------------------------------------------------------------
 Center     Atomic      Atomic             Coordinates (Angstroms)
 Number     Number       Type             X           Y           Z
 ---------------------------------------------------------------------
      1          8           0       -0.344855    1.914874    0.018855
      2          6           0       -0.413261    0.585155   -0.417475
      3          6           0       -1.858708   -0.023187   -0.370560
      4          8           0       -1.514558   -0.843465    0.800444
      5          6           0       -0.134304   -0.624208    0.489528
      6          6           0        0.420541   -1.355376   -0.786824
      7          6           0        0.850640    0.085060   -1.143373
      8          6           0        1.889130    0.309685    0.021662
      9          6           0        1.105103   -0.265878    1.283935
     10          1           0       -0.963635    2.037087    0.747525
     11          1           0       -2.628992    0.713496   -0.121876
     12          1           0       -2.197924   -0.631345   -1.213499
     13          1           0        1.218983   -2.084816   -0.638281
     14          1           0       -0.361481   -1.776445   -1.416568
     15          1           0        1.171341    0.393403   -2.139110
     16          1           0        2.803264   -0.255039   -0.178396
     17          1           0        2.141701    1.361177    0.154402
     18          1           0        1.617455   -1.105658    1.759109
     19          1           0        0.919744    0.509365    2.030944
 ---------------------------------------------------------------------

 SCF Done:  E(RB3LYP) =  -423.118850201     A.U. after    1 cycles

 The electronic state is 1-A.
 Alpha  occ. eigenvalues --  -19.14743 -19.14038 -10.23912 -10.23269 -10.23194
 Alpha  occ. eigenvalues --  -10.19939 -10.18839 -10.18713 -10.18105  -1.05469
 Alpha  occ. eigenvalues --   -1.01855  -0.87633  -0.73672  -0.68926  -0.67695
 Alpha  occ. eigenvalues --   -0.64106  -0.56255  -0.54304  -0.50896  -0.49219
 Alpha  occ. eigenvalues --   -0.48117  -0.45858  -0.42001  -0.39675  -0.38005
 Alpha  occ. eigenvalues --   -0.37663  -0.36227  -0.35669  -0.34864  -0.32902
 Alpha  occ. eigenvalues --   -0.31990  -0.29059  -0.25148  -0.23599
 Alpha virt. eigenvalues --    0.06769   0.08004   0.10948   0.10994   0.11875
 Alpha virt. eigenvalues --    0.13557   0.14277   0.14933   0.16107   0.17006
 Alpha virt. eigenvalues --    0.17706   0.18774   0.19817   0.21149   0.22678

 Mulliken charges:
               1
     1  O   -0.487629
     2  C    0.407070
     3  C   -0.224845
     4  O   -0.359890
     5  C    0.396336
     6  C   -0.292213
     7  C   -0.123485
     8  C   -0.199648
     9  C   -0.311751
    10  H    0.285589
    11  H    0.106313
    12  H    0.116841
    13  H    0.095766
    14  H    0.104062
    15  H    0.065332
    16  H    0.098455
    17  H    0.118751
    18  H    0.102992
    19  H    0.101951
 Sum of Mulliken charges =   0.00000

 Dipole moment (field-independent basis, Debye):
    X=              0.2203    Y=              0.2073    Z=             -0.3885  Tot=              0.4924
 Quadrupole moment (field-independent basis, Debye-Ang):
   XX=            -51.3579   YY=            -55.5060   ZZ=            -52.7903
   XY=             -4.0529   XZ=              1.8081   YZ=              3.7552

  Exact polarizability:  83.209  -2.547  70.078   1.757   3.164  68.153
 Approx polarizability: 117.112  -2.405 107.987  -0.764   1.421 104.811

                      1                      2                      3
                      A                      A                      A
 Frequencies --    229.5880               257.0804               307.1731
 Red. masses --      3.0301                 2.9906                 1.3926
 Frc consts  --      0.0941                 0.1165                 0.0774
 IR Inten    --      6.9528                22.2656                34.9139

                      4                      5                      6
                      A                      A                      A
 Frequencies --    319.6088               350.0618               426.3863
 Red. masses --      1.7161                 3.7367                 2.4618
 Frc consts  --      0.1033                 0.2698                 0.2637
 IR Inten    --     37.1030                 8.2798                 1.4605

                      7                      8                      9
                      A                      A                      A
 Frequencies --    490.3012               537.4556               539.9870
 Red. masses --      1.9904                 3.4330                 4.6189
 Frc consts  --      0.2819                 0.5843                 0.7935
 IR Inten    --      0.3962                 3.7554                 6.3507

                     10                     11                     12
                      A                      A                      A
 Frequencies --    637.8840               721.0634               780.4510
 Red. masses --      3.9167                 3.9557                 4.2840
 Frc consts  --      0.9390                 1.2118                 1.5374
 IR Inten    --      2.7436                 4.2238                 5.0772

                     13                     14                     15
                      A                      A                      A
 Frequencies --    825.4241               849.3342               854.5592
 Red. masses --      1.7859                 1.9514                 3.2313
 Frc consts  --      0.7169                 0.8294                 1.3903
 IR Inten    --      1.0734                 7.8301                 1.8872

                     16                     17                     18
                      A                      A                      A
 Frequencies --    878.1646               901.8658               927.6385
 Red. masses --      3.7024                 1.9370                 3.2258
 Frc consts  --      1.6822                 0.9282                 1.6355
 IR Inten    --     34.8503                10.5053                31.9719

                     19                     20                     21
                      A                      A                      A
 Frequencies --    945.5578               958.0363               982.6241
 Red. masses --      3.4347                 2.1481                 1.5092
 Frc consts  --      1.8093                 1.1616                 0.8586
 IR Inten    --     11.0856                 5.2227                 3.5672

                     22                     23                     24
                      A                      A                      A
 Frequencies --   1034.8933              1061.8232              1092.3984
 Red. masses --      1.3801                 1.9122                 1.6048
 Frc consts  --      0.8708                 1.2702                 1.1283
 IR Inten    --      0.9311                16.7379                 2.9779

                     25                     26                     27
                      A                      A                      A
 Frequencies --   1121.9935              1142.7994              1158.1026
 Red. masses --      1.7576                 1.2954                 1.6377
 Frc consts  --      1.3036                 0.9967                 1.2942
 IR Inten    --     15.0366                 1.1127                11.4757

                     28                     29                     30
                      A                      A                      A
 Frequencies --   1180.9443              1210.5591              1211.8063
 Red. masses --      2.1910                 1.4778                 1.5677
 Frc consts  --      1.8004                 1.2760                 1.3564
 IR Inten    --     42.3406                11.3126                26.9680

                     31                     32                     33
                      A                      A                      A
 Frequencies --   1226.9423              1258.2070              1270.8346
 Red. masses --      1.6895                 1.5643                 1.4395
 Frc consts  --      1.4985                 1.4591                 1.3698
 IR Inten    --     32.5659                 2.2385                 6.0651

                     34                     35                     36
                      A                      A                      A
 Frequencies --   1284.2215              1323.3909              1337.3144
 Red. masses --      1.8499                 1.9382                 2.0268
 Frc consts  --      1.7976                 2.0000                 2.1356
 IR Inten    --     24.5608                23.3470                36.4541

                     37                     38                     39
                      A                      A                      A
 Frequencies --   1377.7254              1478.8356              1490.8233
 Red. masses --      1.8924                 1.0879                 1.0973
 Frc consts  --      2.1163                 1.4018                 1.4370
 IR Inten    --     23.1792                 0.8155                 2.1293

                     40                     41                     42
                      A                      A                      A
 Frequencies --   1506.9970              1525.0495              3044.3661
 Red. masses --      1.1330                 1.1150                 1.0559
 Frc consts  --      1.5160                 1.5279                 5.7659
 IR Inten    --      4.5613                 4.3059                49.6636

                     43                     44                     45
                      A                      A                      A
 Frequencies --   3063.3951              3073.9449              3080.8843
 Red. masses --      1.0578                 1.0631                 1.0616
 Frc consts  --      5.8489                 5.9188                 5.9372
 IR Inten    --     30.3238                33.2592                21.0074

                     46                     47                     48
                      A                      A                      A
 Frequencies --   3099.4038              3106.6869              3111.8320
 Red. masses --      1.1116                 1.0904                 1.1065
 Frc consts  --      6.2914                 6.2004                 6.3130
 IR Inten    --     27.8339                49.5824                19.8655

                     49                     50                     51
                      A                      A                      A
 Frequencies --   3142.3329              3152.2514              3799.2254
 Red. masses --      1.1036                 1.1057                 1.0658
 Frc consts  --      6.4204                 6.4734                 9.0639
 IR Inten    --     23.6147                23.6834                18.9773

 - Thermochemistry -
 -------------------
 Temperature   298.150 Kelvin.  Pressure   1.00000 Atm.
 Atom     1 has atomic number  8 and mass  15.99491

 Molecular mass:   126.06808 amu.
 Principal axes and moments of inertia in atomic units:
                           1         2         3
     Eigenvalues --   696.64525 922.138421078.77653
           X            0.99797  -0.05379   0.03418
           Y            0.05011   0.99365   0.10079
           Z           -0.03938  -0.09887   0.99432
 This molecule is an asymmetric top.
 Rotational symmetry number  1.
 Warning -- assumption of classical behavior for rotation
           may cause significant error
 Rotational temperatures (Kelvin)      0.12433     0.09393     0.08029
 Rotational constants (GHZ):           2.59062     1.95713     1.67295
 Zero-point vibrational energy     422821.5 (Joules/Mol)
                                  101.05676 (Kcal/Mol)
 Warning -- explicit consideration of   9 degrees of freedom as
           vibrations may cause significant error
 Vibrational temperatures:    330.33   369.88   441.95   459.85   503.66
          (Kelvin)            613.47   705.43   773.28   776.92   917.77
                             1037.45  1122.89  1187.60  1222.00  1229.52
                             1263.48  1297.58  1334.66  1360.45  1378.40
                             1413.78  1488.98  1527.72  1571.72  1614.30
                             1644.23  1666.25  1699.11  1741.72  1743.52
                             1765.29  1810.28  1828.45  1847.71  1904.06
                             1924.09  1982.24  2127.71  2144.96  2168.23
                             2194.20  4380.16  4407.54  4422.72  4432.70
                             4459.35  4469.82  4477.23  4521.11  4535.38
                             5466.23

 Zero-point correction=                           0.161044 (Hartree/Particle)
 Thermal correction to Energy=                    0.168068
 Thermal correction to Enthalpy=                  0.169012
 Thermal correction to Gibbs Free Energy=         0.130310
 Sum of electronic and zero-point Energies=           -422.957806
 Sum of electronic and thermal Energies=              -422.950783
 Sum of electronic and thermal Enthalpies=            -422.949838
 Sum of electronic and thermal Free Energies=         -422.988540

                     E (Thermal)             CV                S
                      KCal/Mol        Cal/Mol-Kelvin    Cal/Mol-Kelvin
 Total                  105.464             29.975             81.455
 Electronic               0.000              0.000              0.000
 Translational            0.889              2.981             40.409
 Rotational               0.889              2.981             28.029
 Vibrational            103.687             24.013             13.018
 Vibration     1          0.652              1.796              1.882
 Vibration     2          0.667              1.751              1.682
 Vibration     3          0.697              1.660              1.378
 Vibration     4          0.706              1.636              1.312
 Vibration     5          0.727              1.575              1.166
 Vibration     6          0.788              1.413              0.871
 Vibration     7          0.846              1.272              0.683
 Vibration     8          0.892              1.167              0.571
 Vibration     9          0.895              1.162              0.565

 Optimization completed.
    -- Stationary point found.
 Normal termination of Gaussian 09 at Mon Jan 27 19:35:40 2020.
