 Gaussian 09, Revision D.01,
 Gaussian 09:  ES64L-G09RevD.01 24-Apr-2013

 -----------------------------
 # b3lyp 6-31G(2df,p) opt Freq
 -----------------------------

 -----
 titel
 -----
 Symbolic Z-matrix:
 Charge =  0 Multiplicity = 1

 SCF Done:  E(RB3LYP) =  -423.172951980     A.U. after   13 cycles
 Optimization completed.
    -- Stationary point found.
 Normal termination of Gaussian 09 at Mon Jan 27 11:29:12 2020.

 ----------------------------------------------------------------------
 #N Geom=AllCheck Guess=TCheck SCRF=Check GenChk RB3LYP/6-31G(2df,p) Fr
 eq
 ----------------------------------------------------------------------

 Structure from the checkpoint file:  "/scratch/puck/g09_3f52f371-1e73-4c20-b922-012e0689fb0d/Gau-60847.chk"
 -----
 titel
 -----
 Charge =  0 Multiplicity = 1

                         Standard orientation:
 ---------------------------------------------------------------------
 Center     Atomic      Atomic             Coordinates (Angstroms)
 Number     Number       Type             X           Y           Z
 ---------------------------------------------------------------------
      1          6           0        1.164187    1.515038    0.608692
      2          6           0        1.152925    0.712716   -0.676017
      3          8           0        1.763716   -0.548086   -0.733821
      4          6           0        1.217752   -1.364049    0.307810
      5          6           0       -0.141856   -0.755846    0.693370
      6          6           0       -1.358975   -1.190499   -0.137831
      7          8           0       -2.223012   -0.058628   -0.191284
      8          6           0       -1.447317    1.141227   -0.112210
      9          6           0       -0.042443    0.692677    0.227153
     10          1           0        1.779780    1.189443    1.441637
     11          1           0        1.088895    2.593562    0.505872
     12          1           0        1.174466    1.222048   -1.633206
     13          1           0        1.149666   -2.389621   -0.070389
     14          1           0        1.893301   -1.369967    1.174051
     15          1           0       -0.342911   -0.863408    1.763704
     16          1           0       -1.036262   -1.487614   -1.149060
     17          1           0       -1.923144   -2.017781    0.302119
     18          1           0       -1.489676    1.688736   -1.064882
     19          1           0       -1.885383    1.780725    0.665191
 ---------------------------------------------------------------------

 SCF Done:  E(RB3LYP) =  -423.172951980     A.U. after    1 cycles

 The electronic state is 1-A.
 Alpha  occ. eigenvalues --  -19.14441 -19.13413 -10.23568 -10.23375 -10.22953
 Alpha  occ. eigenvalues --  -10.22705 -10.19781 -10.19613 -10.19182  -1.04672
 Alpha  occ. eigenvalues --   -1.02823  -0.85681  -0.77959  -0.71734  -0.67318
 Alpha  occ. eigenvalues --   -0.60592  -0.58066  -0.56644  -0.51016  -0.49850
 Alpha  occ. eigenvalues --   -0.47270  -0.44767  -0.44157  -0.42293  -0.41139
 Alpha  occ. eigenvalues --   -0.40225  -0.39439  -0.35052  -0.33334  -0.32879
 Alpha  occ. eigenvalues --   -0.31277  -0.28608  -0.24798  -0.23191
 Alpha virt. eigenvalues --    0.08462   0.09021   0.10206   0.10699   0.12756
 Alpha virt. eigenvalues --    0.13552   0.14521   0.15119   0.15311   0.16631
 Alpha virt. eigenvalues --    0.18026   0.18717   0.19409   0.20792   0.22770

 Mulliken charges:
               1
     1  C   -0.422407
     2  C    0.084825
     3  O   -0.258819
     4  C   -0.118578
     5  C   -0.101040
     6  C   -0.083562
     7  O   -0.263779
     8  C   -0.161207
     9  C    0.285158
    10  H    0.117372
    11  H    0.118053
    12  H    0.103649
    13  H    0.113360
    14  H    0.101178
    15  H    0.082205
    16  H    0.096555
    17  H    0.106310
    18  H    0.097053
    19  H    0.103673
 Sum of Mulliken charges =   0.00000

 Dipole moment (field-independent basis, Debye):
    X=              0.4730    Y=              0.2720    Z=              1.0678  Tot=              1.1991
 Quadrupole moment (field-independent basis, Debye-Ang):
   XX=            -61.7360   YY=            -48.1561   ZZ=            -52.4112
   XY=              0.7006   XZ=              1.6259   YZ=             -2.0366

  Exact polarizability:  74.210   0.900  82.062   1.250  -0.886  64.988
 Approx polarizability: 104.971   0.645 114.137  -1.742  -0.120 102.067

                      1                      2                      3
                      A                      A                      A
 Frequencies --     99.7395               175.0159               207.5869
 Red. masses --      3.4565                 2.3832                 3.0890
 Frc consts  --      0.0203                 0.0430                 0.0784
 IR Inten    --      5.0666                 2.3886                 3.2123

                      4                      5                      6
                      A                      A                      A
 Frequencies --    291.8911               339.4108               424.0588
 Red. masses --      2.3408                 2.4251                 2.3108
 Frc consts  --      0.1175                 0.1646                 0.2448
 IR Inten    --      0.9197                 2.1186                 1.6300

                      7                      8                      9
                      A                      A                      A
 Frequencies --    511.9763               568.2860               673.5832
 Red. masses --      3.5561                 4.8619                 3.3277
 Frc consts  --      0.5492                 0.9251                 0.8896
 IR Inten    --      2.1535                 2.1002                 4.4361

                     10                     11                     12
                      A                      A                      A
 Frequencies --    737.0097               779.5279               842.0843
 Red. masses --      4.4359                 2.7596                 2.7436
 Frc consts  --      1.4196                 0.9880                 1.1463
 IR Inten    --      8.0142                 3.8660                23.3263

                     13                     14                     15
                      A                      A                      A
 Frequencies --    843.0149               892.2150               926.9826
 Red. masses --      2.0747                 1.9263                 2.7349
 Frc consts  --      0.8687                 0.9035                 1.3847
 IR Inten    --     10.0414                 0.6340                 3.8312

                     16                     17                     18
                      A                      A                      A
 Frequencies --    945.2579               981.7608               983.0801
 Red. masses --      2.3828                 1.8272                 2.5092
 Frc consts  --      1.2544                 1.0376                 1.4288
 IR Inten    --     27.7840                 2.5929                17.6602

                     19                     20                     21
                      A                      A                      A
 Frequencies --   1025.8492              1030.1289              1049.2642
 Red. masses --      1.5387                 2.2177                 1.6108
 Frc consts  --      0.9540                 1.3866                 1.0449
 IR Inten    --     15.7077                 6.4625                 6.7157

                     22                     23                     24
                      A                      A                      A
 Frequencies --   1077.3854              1088.7118              1110.7707
 Red. masses --      2.9396                 1.7841                 3.9600
 Frc consts  --      2.0104                 1.2460                 2.8787
 IR Inten    --     32.7350                 3.2929                55.2344

                     25                     26                     27
                      A                      A                      A
 Frequencies --   1131.4296              1165.9460              1196.0655
 Red. masses --      2.3141                 3.2939                 1.2158
 Frc consts  --      1.7453                 2.6382                 1.0247
 IR Inten    --     10.5450                89.3416                 1.5125

                     28                     29                     30
                      A                      A                      A
 Frequencies --   1227.7342              1246.5925              1253.2061
 Red. masses --      1.2065                 1.3324                 1.4192
 Frc consts  --      1.0715                 1.2199                 1.3132
 IR Inten    --      5.0794                 2.5749                 0.6130

                     31                     32                     33
                      A                      A                      A
 Frequencies --   1276.5692              1297.1317              1328.1721
 Red. masses --      2.3275                 1.4238                 1.3174
 Frc consts  --      2.2348                 1.4114                 1.3692
 IR Inten    --      2.6524                 1.7870                 1.1556

                     34                     35                     36
                      A                      A                      A
 Frequencies --   1357.4709              1380.0933              1407.1373
 Red. masses --      1.3155                 1.4723                 1.5172
 Frc consts  --      1.4283                 1.6522                 1.7699
 IR Inten    --      3.6124                 4.9660                13.6556

                     37                     38                     39
                      A                      A                      A
 Frequencies --   1416.8616              1481.0454              1515.2617
 Red. masses --      1.5547                 1.5504                 1.0870
 Frc consts  --      1.8389                 2.0037                 1.4704
 IR Inten    --      7.0991                10.7763                 1.3380

                     40                     41                     42
                      A                      A                      A
 Frequencies --   1521.4609              1529.7655              2972.7654
 Red. masses --      1.0880                 1.0910                 1.0699
 Frc consts  --      1.4839                 1.5042                 5.5710
 IR Inten    --      1.0135                 0.3387                57.1864

                     43                     44                     45
                      A                      A                      A
 Frequencies --   2994.8641              3006.3875              3030.8310
 Red. masses --      1.0615                 1.0678                 1.1034
 Frc consts  --      5.6094                 5.6863                 5.9717
 IR Inten    --     67.1943                47.6212                42.0715

                     46                     47                     48
                      A                      A                      A
 Frequencies --   3059.9540              3068.5490              3086.1388
 Red. masses --      1.0841                 1.0977                 1.0941
 Frc consts  --      5.9805                 6.0899                 6.1398
 IR Inten    --     18.6827                37.8853                48.7334

                     49                     50                     51
                      A                      A                      A
 Frequencies --   3119.6590              3174.8914              3205.7366
 Red. masses --      1.0540                 1.0924                 1.1156
 Frc consts  --      6.0437                 6.4879                 6.7550
 IR Inten    --     12.4043                12.9540                 9.0030

 - Thermochemistry -
 -------------------
 Temperature   298.150 Kelvin.  Pressure   1.00000 Atm.
 Atom     1 has atomic number  6 and mass  12.00000

 Molecular mass:   126.06808 amu.
 Principal axes and moments of inertia in atomic units:
                           1         2         3
     Eigenvalues --   628.868051026.359481373.10947
           X            0.99981   0.00830   0.01746
           Y           -0.00804   0.99986  -0.01454
           Z           -0.01757   0.01440   0.99974
 This molecule is an asymmetric top.
 Rotational symmetry number  1.
 Warning -- assumption of classical behavior for rotation
           may cause significant error
 Rotational temperatures (Kelvin)      0.13773     0.08439     0.06308
 Rotational constants (GHZ):           2.86982     1.75839     1.31435
 Zero-point vibrational energy     425011.1 (Joules/Mol)
                                  101.58010 (Kcal/Mol)
 Warning -- explicit consideration of   8 degrees of freedom as
           vibrations may cause significant error
 Vibrational temperatures:    143.50   251.81   298.67   419.97   488.34
          (Kelvin)            610.13   736.62   817.64   969.13  1060.39
                             1121.57  1211.57  1212.91  1283.70  1333.72
                             1360.01  1412.53  1414.43  1475.97  1482.12
                             1509.66  1550.12  1566.41  1598.15  1627.87
                             1677.53  1720.87  1766.43  1793.57  1803.08
                             1836.70  1866.28  1910.94  1953.10  1985.64
                             2024.55  2038.55  2130.89  2180.12  2189.04
                             2200.99  4277.14  4308.94  4325.52  4360.68
                             4402.59  4414.95  4440.26  4488.49  4567.95
                             4612.33

 Zero-point correction=                           0.161878 (Hartree/Particle)
 Thermal correction to Energy=                    0.169107
 Thermal correction to Enthalpy=                  0.170051
 Thermal correction to Gibbs Free Energy=         0.130172
 Sum of electronic and zero-point Energies=           -423.011074
 Sum of electronic and thermal Energies=              -423.003845
 Sum of electronic and thermal Enthalpies=            -423.002901
 Sum of electronic and thermal Free Energies=         -423.042780

                     E (Thermal)             CV                S
                      KCal/Mol        Cal/Mol-Kelvin    Cal/Mol-Kelvin
 Total                  106.116             28.623             83.934
 Electronic               0.000              0.000              0.000
 Translational            0.889              2.981             40.409
 Rotational               0.889              2.981             28.274
 Vibrational            104.339             22.661             15.252
 Vibration     1          0.604              1.949              3.459
 Vibration     2          0.627              1.873              2.381
 Vibration     3          0.641              1.829              2.065
 Vibration     4          0.687              1.689              1.463
 Vibration     5          0.719              1.597              1.215
 Vibration     6          0.786              1.418              0.878
 Vibration     7          0.867              1.223              0.629
 Vibration     8          0.924              1.100              0.508

 Optimization completed.
    -- Stationary point found.
 Normal termination of Gaussian 09 at Mon Jan 27 13:52:11 2020.
