 Gaussian 09, Revision D.01,
 Gaussian 09:  ES64L-G09RevD.01 24-Apr-2013

 -----------------------------
 # b3lyp 6-31G(2df,p) opt Freq
 -----------------------------

 -----
 titel
 -----
 Symbolic Z-matrix:
 Charge =  0 Multiplicity = 1

 SCF Done:  E(RB3LYP) =  -423.107911381     A.U. after   13 cycles
 Optimization completed.
    -- Stationary point found.
 Normal termination of Gaussian 09 at Tue Jan 28 02:55:09 2020.

 ----------------------------------------------------------------------
 #N Geom=AllCheck Guess=TCheck SCRF=Check GenChk RB3LYP/6-31G(2df,p) Fr
 eq
 ----------------------------------------------------------------------

 Structure from the checkpoint file:  "/scratch/puck/g09_79973e03-f8bf-4028-b48e-5b2a7b5a7948/Gau-11253.chk"
 -----
 titel
 -----
 Charge =  0 Multiplicity = 1

                         Standard orientation:
 ---------------------------------------------------------------------
 Center     Atomic      Atomic             Coordinates (Angstroms)
 Number     Number       Type             X           Y           Z
 ---------------------------------------------------------------------
      1          6           0        2.861142    0.327105   -0.132959
      2          6           0        1.481178    0.028972    0.398034
      3          8           0        0.966882   -1.283070   -0.078357
      4          6           0       -0.335946   -0.692218   -0.162620
      5          6           0       -1.607859   -0.558915   -1.038607
      6          6           0       -1.894770    0.473175    0.141095
      7          6           0       -1.256432   -0.556060    1.087745
      8          8           0       -0.859583    1.507857    0.099144
      9          6           0        0.237571    0.684508   -0.300553
     10          1           0        2.867227    0.314956   -1.226781
     11          1           0        3.190241    1.313673    0.210629
     12          1           0        3.580089   -0.417209    0.222375
     13          1           0        1.447458    0.059917    1.492449
     14          1           0       -1.487168   -0.175873   -2.053539
     15          1           0       -2.322075   -1.383542   -1.003484
     16          1           0       -2.872613    0.924945    0.286800
     17          1           0       -0.844779   -0.167227    2.019779
     18          1           0       -1.860786   -1.448975    1.256813
     19          1           0        0.534716    0.941639   -1.324142
 ---------------------------------------------------------------------

 SCF Done:  E(RB3LYP) =  -423.107911381     A.U. after    1 cycles

 The electronic state is 1-A.
 Alpha  occ. eigenvalues --  -19.14475 -19.14333 -10.24905 -10.24430 -10.24047
 Alpha  occ. eigenvalues --  -10.22583 -10.19908 -10.18502 -10.18253  -1.06097
 Alpha  occ. eigenvalues --   -1.02275  -0.83834  -0.76036  -0.71316  -0.67637
 Alpha  occ. eigenvalues --   -0.61722  -0.57867  -0.54942  -0.51279  -0.48390
 Alpha  occ. eigenvalues --   -0.46128  -0.45861  -0.42770  -0.40393  -0.39175
 Alpha  occ. eigenvalues --   -0.38558  -0.37092  -0.36141  -0.35527  -0.34202
 Alpha  occ. eigenvalues --   -0.33169  -0.27497  -0.25925  -0.24097
 Alpha virt. eigenvalues --    0.06192   0.09859   0.10643   0.11201   0.11532
 Alpha virt. eigenvalues --    0.12494   0.13332   0.14768   0.16157   0.16834
 Alpha virt. eigenvalues --    0.17322   0.18705   0.19318   0.20018   0.20843

 Mulliken charges:
               1
     1  C   -0.411903
     2  C    0.049118
     3  O   -0.375071
     4  C    0.404795
     5  C   -0.332829
     6  C    0.094282
     7  C   -0.287634
     8  O   -0.299822
     9  C    0.075825
    10  H    0.125564
    11  H    0.125839
    12  H    0.132469
    13  H    0.090374
    14  H    0.109770
    15  H    0.110631
    16  H    0.095460
    17  H    0.105779
    18  H    0.104372
    19  H    0.082981
 Sum of Mulliken charges =   0.00000

 Dipole moment (field-independent basis, Debye):
    X=             -0.4369    Y=              0.0196    Z=              0.0915  Tot=              0.4468
 Quadrupole moment (field-independent basis, Debye-Ang):
   XX=            -47.8498   YY=            -59.1508   ZZ=            -51.5852
   XY=              4.3052   XZ=              0.7261   YZ=             -0.7886

  Exact polarizability:  93.339   3.845  64.008   1.190  -1.064  69.232
 Approx polarizability: 122.107   0.757 105.490   1.443   0.063 104.838

                      1                      2                      3
                      A                      A                      A
 Frequencies --    156.5169               210.8757               251.5654
 Red. masses --      3.1385                 1.1817                 2.1751
 Frc consts  --      0.0453                 0.0310                 0.0811
 IR Inten    --      1.9326                 1.0117                 1.9542

                      4                      5                      6
                      A                      A                      A
 Frequencies --    346.1020               371.3470               444.4656
 Red. masses --      3.4022                 3.1085                 3.8744
 Frc consts  --      0.2401                 0.2526                 0.4510
 IR Inten    --      4.5433                 0.8506                 3.3501

                      7                      8                      9
                      A                      A                      A
 Frequencies --    485.1942               511.4837               564.2747
 Red. masses --      3.4347                 2.0689                 2.8597
 Frc consts  --      0.4764                 0.3189                 0.5365
 IR Inten    --      7.4810                 1.7237                 9.2287

                     10                     11                     12
                      A                      A                      A
 Frequencies --    664.9970               721.8617               776.7768
 Red. masses --      3.8261                 5.0860                 3.0953
 Frc consts  --      0.9969                 1.5615                 1.1004
 IR Inten    --      0.2425                 4.5464                 1.7530

                     13                     14                     15
                      A                      A                      A
 Frequencies --    796.7031               859.1912               868.8693
 Red. masses --      4.3774                 3.6527                 2.0493
 Frc consts  --      1.6370                 1.5887                 0.9115
 IR Inten    --     49.1690                39.2766                 8.5391

                     16                     17                     18
                      A                      A                      A
 Frequencies --    883.6174               932.9899               953.1927
 Red. masses --      2.9632                 2.0524                 1.8042
 Frc consts  --      1.3631                 1.0526                 0.9658
 IR Inten    --      1.9153                 3.3854                 7.8598

                     19                     20                     21
                      A                      A                      A
 Frequencies --    988.0883              1017.9381              1037.2779
 Red. masses --      1.6415                 1.4856                 1.7042
 Frc consts  --      0.9443                 0.9070                 1.0804
 IR Inten    --     11.7031                11.4806                 7.9705

                     22                     23                     24
                      A                      A                      A
 Frequencies --   1055.5663              1060.8045              1089.5094
 Red. masses --      2.0436                 3.1294                 1.8636
 Frc consts  --      1.3416                 2.0749                 1.3033
 IR Inten    --     20.9907                53.8414                 2.4130

                     25                     26                     27
                      A                      A                      A
 Frequencies --   1103.0363              1127.7741              1160.9807
 Red. masses --      1.5185                 1.7372                 2.2394
 Frc consts  --      1.0885                 1.3018                 1.7784
 IR Inten    --     27.7635                 2.6814                20.7857

                     28                     29                     30
                      A                      A                      A
 Frequencies --   1187.0782              1206.6834              1222.9741
 Red. masses --      1.9128                 1.9131                 1.8354
 Frc consts  --      1.5881                 1.6413                 1.6174
 IR Inten    --     24.2511                 7.1117                 1.7243

                     31                     32                     33
                      A                      A                      A
 Frequencies --   1236.8740              1264.3939              1290.3326
 Red. masses --      1.6087                 1.7104                 1.5966
 Frc consts  --      1.4500                 1.6110                 1.5662
 IR Inten    --     56.0300                36.3469                 7.3308

                     34                     35                     36
                      A                      A                      A
 Frequencies --   1320.8064              1367.1156              1403.9938
 Red. masses --      2.2689                 1.2718                 1.2200
 Frc consts  --      2.3321                 1.4005                 1.4169
 IR Inten    --      1.9940                 3.9864                 3.7958

                     37                     38                     39
                      A                      A                      A
 Frequencies --   1413.8754              1474.2995              1479.6517
 Red. masses --      1.5074                 1.1068                 1.0531
 Frc consts  --      1.7755                 1.4174                 1.3585
 IR Inten    --      7.9732                 2.8248                 5.6174

                     40                     41                     42
                      A                      A                      A
 Frequencies --   1495.4097              1511.0586              3027.4059
 Red. masses --      1.0475                 1.1448                 1.0827
 Frc consts  --      1.3801                 1.5400                 5.8464
 IR Inten    --      4.5304                 3.7859                22.0079

                     43                     44                     45
                      A                      A                      A
 Frequencies --   3037.9689              3050.6577              3072.7576
 Red. masses --      1.0370                 1.0851                 1.0554
 Frc consts  --      5.6390                 5.9500                 5.8711
 IR Inten    --     24.3460                22.7962                35.6120

                     46                     47                     48
                      A                      A                      A
 Frequencies --   3081.3968              3110.7312              3117.9632
 Red. masses --      1.0567                 1.1008                 1.1022
 Frc consts  --      5.9117                 6.2761                 6.3133
 IR Inten    --     10.9749                14.3616                22.8744

                     49                     50                     51
                      A                      A                      A
 Frequencies --   3142.4994              3148.1568              3162.5984
 Red. masses --      1.1118                 1.1107                 1.0923
 Frc consts  --      6.4686                 6.4857                 6.4368
 IR Inten    --     19.0467                27.3921                31.2844

 - Thermochemistry -
 -------------------
 Temperature   298.150 Kelvin.  Pressure   1.00000 Atm.
 Atom     1 has atomic number  6 and mass  12.00000

 Molecular mass:   126.06808 amu.
 Principal axes and moments of inertia in atomic units:
                           1         2         3
     Eigenvalues --   503.249571244.474491406.49632
           X            0.99930   0.03743  -0.00134
           Y           -0.03745   0.99876  -0.03290
           Z            0.00011   0.03292   0.99946
 This molecule is an asymmetric top.
 Rotational symmetry number  1.
 Warning -- assumption of classical behavior for rotation
           may cause significant error
 Rotational temperatures (Kelvin)      0.17211     0.06960     0.06158
 Rotational constants (GHZ):           3.58618     1.45020     1.28315
 Zero-point vibrational energy     420294.1 (Joules/Mol)
                                  100.45270 (Kcal/Mol)
 Warning -- explicit consideration of   9 degrees of freedom as
           vibrations may cause significant error
 Vibrational temperatures:    225.19   303.40   361.95   497.96   534.28
          (Kelvin)            639.49   698.09   735.91   811.86   956.78
                             1038.60  1117.61  1146.28  1236.18  1250.11
                             1271.33  1342.36  1371.43  1421.64  1464.58
                             1492.41  1518.72  1526.26  1567.56  1587.02
                             1622.61  1670.39  1707.94  1736.15  1759.58
                             1779.58  1819.18  1856.50  1900.34  1966.97
                             2020.03  2034.25  2121.19  2128.89  2151.56
                             2174.07  4355.76  4370.95  4389.21  4421.01
                             4433.44  4475.64  4486.05  4521.35  4529.49
                             4550.27

 Zero-point correction=                           0.160082 (Hartree/Particle)
 Thermal correction to Energy=                    0.167246
 Thermal correction to Enthalpy=                  0.168190
 Thermal correction to Gibbs Free Energy=         0.128896
 Sum of electronic and zero-point Energies=           -422.947830
 Sum of electronic and thermal Energies=              -422.940665
 Sum of electronic and thermal Enthalpies=            -422.939721
 Sum of electronic and thermal Free Energies=         -422.979015

                     E (Thermal)             CV                S
                      KCal/Mol        Cal/Mol-Kelvin    Cal/Mol-Kelvin
 Total                  104.948             29.746             82.702
 Electronic               0.000              0.000              0.000
 Translational            0.889              2.981             40.409
 Rotational               0.889              2.981             28.268
 Vibrational            103.171             23.784             14.026
 Vibration     1          0.620              1.895              2.591
 Vibration     2          0.643              1.824              2.036
 Vibration     3          0.664              1.760              1.720
 Vibration     4          0.724              1.583              1.184
 Vibration     5          0.743              1.531              1.074
 Vibration     6          0.804              1.373              0.813
 Vibration     7          0.841              1.283              0.696
 Vibration     8          0.867              1.225              0.630
 Vibration     9          0.920              1.109              0.515

 Optimization completed.
    -- Stationary point found.
 Normal termination of Gaussian 09 at Tue Jan 28 03:45:51 2020.
 Normal termination of Gaussian 09 at Tue Jan 28 03:02:30 2020.
