 Gaussian 09, Revision D.01,
 Gaussian 09:  ES64L-G09RevD.01 24-Apr-2013

 -----------------------------
 # b3lyp 6-31G(2df,p) opt Freq
 -----------------------------

 -----
 titel
 -----
 Symbolic Z-matrix:
 Charge =  0 Multiplicity = 1

 SCF Done:  E(RB3LYP) =  -423.151339293     A.U. after   14 cycles
 Optimization completed.
    -- Stationary point found.
 Normal termination of Gaussian 09 at Tue Jan 28 02:54:09 2020.

 ----------------------------------------------------------------------
 #N Geom=AllCheck Guess=TCheck SCRF=Check GenChk RB3LYP/6-31G(2df,p) Fr
 eq
 ----------------------------------------------------------------------

 Structure from the checkpoint file:  "/scratch/puck/g09_958113e2-6593-434d-bfe3-f872bef00ce4/Gau-90253.chk"
 -----
 titel
 -----
 Charge =  0 Multiplicity = 1

                         Standard orientation:
 ---------------------------------------------------------------------
 Center     Atomic      Atomic             Coordinates (Angstroms)
 Number     Number       Type             X           Y           Z
 ---------------------------------------------------------------------
      1          6           0       -2.350421   -1.191488    0.374312
      2          6           0       -1.316952   -0.244098   -0.138411
      3          6           0       -0.156235   -0.481412   -0.743986
      4          6           0        1.029920   -1.417141   -0.634080
      5          6           0        1.789003   -0.156762   -0.040427
      6          8           0        1.683627   -0.040157    1.354049
      7          6           0        0.688772    0.745832   -0.740387
      8          8           0       -0.036116    1.753761   -0.080743
      9          6           0       -1.361490    1.250983    0.160670
     10          1           0       -3.323207   -1.024637   -0.106069
     11          1           0       -2.064275   -2.230460    0.189839
     12          1           0       -2.507567   -1.061711    1.452764
     13          1           0        0.928932   -2.282015    0.026518
     14          1           0        1.457952   -1.733653   -1.590388
     15          1           0        2.820519   -0.016541   -0.392240
     16          1           0        2.215923   -0.736253    1.751914
     17          1           0        1.065401    1.108351   -1.707158
     18          1           0       -2.085043    1.811891   -0.452744
     19          1           0       -1.624311    1.420711    1.214969
 ---------------------------------------------------------------------

 SCF Done:  E(RB3LYP) =  -423.151339293     A.U. after    1 cycles

 The electronic state is 1-A.
 Alpha  occ. eigenvalues --  -19.14006 -19.12915 -10.23781 -10.22330 -10.22045
 Alpha  occ. eigenvalues --  -10.19445 -10.18524 -10.18462 -10.17500  -1.03467
 Alpha  occ. eigenvalues --   -1.01705  -0.83810  -0.77971  -0.68987  -0.67145
 Alpha  occ. eigenvalues --   -0.63655  -0.56881  -0.53285  -0.50476  -0.46959
 Alpha  occ. eigenvalues --   -0.46352  -0.43787  -0.42987  -0.40960  -0.40300
 Alpha  occ. eigenvalues --   -0.39708  -0.38150  -0.36245  -0.32922  -0.32171
 Alpha  occ. eigenvalues --   -0.30077  -0.26876  -0.24776  -0.21719
 Alpha virt. eigenvalues --    0.01437   0.07402   0.08879   0.11827   0.13077
 Alpha virt. eigenvalues --    0.13873   0.15129   0.15287   0.16287   0.16820
 Alpha virt. eigenvalues --    0.17728   0.18251   0.19110   0.20038   0.23215

 Mulliken charges:
               1
     1  C   -0.494253
     2  C    0.174736
     3  C    0.092898
     4  C   -0.353159
     5  C    0.072845
     6  O   -0.417351
     7  C    0.107870
     8  O   -0.272078
     9  C   -0.141560
    10  H    0.130051
    11  H    0.125704
    12  H    0.128251
    13  H    0.103905
    14  H    0.109736
    15  H    0.064604
    16  H    0.285969
    17  H    0.074327
    18  H    0.098307
    19  H    0.109199
 Sum of Mulliken charges =   0.00000

 Dipole moment (field-independent basis, Debye):
    X=              0.2445    Y=             -2.5547    Z=             -0.1615  Tot=              2.5715
 Quadrupole moment (field-independent basis, Debye-Ang):
   XX=            -46.3824   YY=            -55.1412   ZZ=            -52.4558
   XY=             -3.7496   XZ=             -0.8885   YZ=             -2.6193

  Exact polarizability:  98.437  -4.867  73.885 -10.275  -0.165  66.966
 Approx polarizability: 139.974  -8.699 106.628 -19.687   2.700 105.508

                      1                      2                      3
                      A                      A                      A
 Frequencies --     86.9487               160.9368               164.4635
 Red. masses --      3.8262                 1.0420                 2.4184
 Frc consts  --      0.0170                 0.0159                 0.0385
 IR Inten    --      2.2383                 0.2648                 2.4434

                      4                      5                      6
                      A                      A                      A
 Frequencies --    204.9418               226.4681               276.2256
 Red. masses --      2.8588                 6.2612                 1.0939
 Frc consts  --      0.0707                 0.1892                 0.0492
 IR Inten    --      0.4656                 1.5453               109.8257

                      7                      8                      9
                      A                      A                      A
 Frequencies --    315.3300               405.8013               448.1734
 Red. masses --      2.6572                 2.3272                 2.8980
 Frc consts  --      0.1557                 0.2258                 0.3430
 IR Inten    --      1.9841                 3.4088                 1.1338

                     10                     11                     12
                      A                      A                      A
 Frequencies --    531.1833               601.1501               701.2133
 Red. masses --      4.7161                 4.2597                 4.6824
 Frc consts  --      0.7840                 0.9070                 1.3565
 IR Inten    --     10.2192                 2.7137                 9.1714

                     13                     14                     15
                      A                      A                      A
 Frequencies --    730.5744               781.1013               825.6288
 Red. masses --      4.9473                 2.5029                 3.5905
 Frc consts  --      1.5558                 0.8997                 1.4420
 IR Inten    --      7.1648                 5.3179                12.7649

                     16                     17                     18
                      A                      A                      A
 Frequencies --    881.7347               929.4956               954.7470
 Red. masses --      2.9587                 1.9404                 2.8327
 Frc consts  --      1.3553                 0.9877                 1.5213
 IR Inten    --     12.2491                 4.8244                 2.6656

                     19                     20                     21
                      A                      A                      A
 Frequencies --    978.6952               978.9234              1026.6766
 Red. masses --      3.9246                 1.5346                 1.4224
 Frc consts  --      2.2148                 0.8664                 0.8834
 IR Inten    --     27.0603                14.2284                 8.5226

                     22                     23                     24
                      A                      A                      A
 Frequencies --   1079.3798              1100.9728              1125.5939
 Red. masses --      1.7869                 1.9924                 2.9499
 Frc consts  --      1.2266                 1.4229                 2.2020
 IR Inten    --      4.4654                45.3095                32.0013

                     25                     26                     27
                      A                      A                      A
 Frequencies --   1137.6035              1145.6195              1184.4728
 Red. masses --      2.4999                 2.1155                 1.6221
 Frc consts  --      1.9061                 1.6358                 1.3409
 IR Inten    --     27.2746                21.9140                33.0170

                     28                     29                     30
                      A                      A                      A
 Frequencies --   1196.6031              1214.5374              1240.8041
 Red. masses --      1.1763                 1.2689                 2.4079
 Frc consts  --      0.9923                 1.1028                 2.1842
 IR Inten    --      1.2207                15.0343                 4.9399

                     31                     32                     33
                      A                      A                      A
 Frequencies --   1282.8024              1292.6166              1351.6505
 Red. masses --      1.9261                 1.3229                 1.4432
 Frc consts  --      1.8675                 1.3024                 1.5535
 IR Inten    --     17.2642                15.4182                 5.7232

                     34                     35                     36
                      A                      A                      A
 Frequencies --   1385.0848              1408.1912              1413.4792
 Red. masses --      1.4551                 1.4220                 1.3038
 Frc consts  --      1.6448                 1.6614                 1.5348
 IR Inten    --     12.2430                10.6585                 2.2010

                     37                     38                     39
                      A                      A                      A
 Frequencies --   1469.3959              1478.2831              1489.0491
 Red. masses --      1.1197                 1.0488                 1.0520
 Frc consts  --      1.4244                 1.3504                 1.3743
 IR Inten    --      2.9229                 5.3172                 5.1638

                     40                     41                     42
                      A                      A                      A
 Frequencies --   1515.5921              1762.9342              2970.5075
 Red. masses --      1.0883                 9.1209                 1.0653
 Frc consts  --      1.4728                16.7018                 5.5385
 IR Inten    --      1.7805                 3.3618                93.5523

                     43                     44                     45
                      A                      A                      A
 Frequencies --   2993.5539              3007.5834              3010.1571
 Red. masses --      1.0841                 1.0851                 1.0924
 Frc consts  --      5.7240                 5.7829                 5.8318
 IR Inten    --     25.6030               146.4854                26.7879

                     46                     47                     48
                      A                      A                      A
 Frequencies --   3016.3549              3050.8992              3060.8504
 Red. masses --      1.0414                 1.0591                 1.0985
 Frc consts  --      5.5825                 5.8081                 6.0639
 IR Inten    --     40.1368                55.1932                18.5975

                     49                     50                     51
                      A                      A                      A
 Frequencies --   3107.7123              3110.1797              3817.0139
 Red. masses --      1.1069                 1.0988                 1.0662
 Frc consts  --      6.2983                 6.2625                 9.1527
 IR Inten    --     20.5479                17.7061                23.5832

 - Thermochemistry -
 -------------------
 Temperature   298.150 Kelvin.  Pressure   1.00000 Atm.
 Atom     1 has atomic number  6 and mass  12.00000

 Molecular mass:   126.06808 amu.
 Principal axes and moments of inertia in atomic units:
                           1         2         3
     Eigenvalues --   729.112731142.653621428.17281
           X            0.99952  -0.00472  -0.03062
           Y            0.00418   0.99983  -0.01777
           Z            0.03070   0.01763   0.99937
 This molecule is an asymmetric top.
 Rotational symmetry number  1.
 Warning -- assumption of classical behavior for rotation
           may cause significant error
 Rotational temperatures (Kelvin)      0.11879     0.07580     0.06065
 Rotational constants (GHZ):           2.47526     1.57943     1.26367
 Zero-point vibrational energy     416479.2 (Joules/Mol)
                                   99.54093 (Kcal/Mol)
 Warning -- explicit consideration of  11 degrees of freedom as
           vibrations may cause significant error
 Vibrational temperatures:    125.10   231.55   236.63   294.87   325.84
          (Kelvin)            397.43   453.69   583.86   644.82   764.25
                              864.92  1008.89  1051.13  1123.83  1187.89
                             1268.62  1337.34  1373.67  1408.12  1408.45
                             1477.16  1552.98  1584.05  1619.48  1636.76
                             1648.29  1704.19  1721.64  1747.45  1785.24
                             1845.66  1859.78  1944.72  1992.83  2026.07
                             2033.68  2114.13  2126.92  2142.41  2180.60
                             2536.47  4273.89  4307.05  4327.24  4330.94
                             4339.86  4389.56  4403.88  4471.30  4474.85
                             5491.82

 Zero-point correction=                           0.158629 (Hartree/Particle)
 Thermal correction to Energy=                    0.167210
 Thermal correction to Enthalpy=                  0.168155
 Thermal correction to Gibbs Free Energy=         0.125536
 Sum of electronic and zero-point Energies=           -422.992711
 Sum of electronic and thermal Energies=              -422.984129
 Sum of electronic and thermal Enthalpies=            -422.983185
 Sum of electronic and thermal Free Energies=         -423.025804

                     E (Thermal)             CV                S
                      KCal/Mol        Cal/Mol-Kelvin    Cal/Mol-Kelvin
 Total                  104.926             32.400             89.699
 Electronic               0.000              0.000              0.000
 Translational            0.889              2.981             40.409
 Rotational               0.889              2.981             28.566
 Vibrational            103.149             26.438             20.725
 Vibration     1          0.601              1.958              3.728
 Vibration     2          0.622              1.890              2.539
 Vibration     3          0.623              1.886              2.498
 Vibration     4          0.640              1.833              2.088
 Vibration     5          0.650              1.801              1.907
 Vibration     6          0.678              1.717              1.557
 Vibration     7          0.703              1.644              1.334
 Vibration     8          0.771              1.458              0.942
 Vibration     9          0.807              1.365              0.801
 Vibration    10          0.886              1.181              0.585
 Vibration    11          0.959              1.029              0.448

 Optimization completed.
    -- Stationary point found.
 Normal termination of Gaussian 09 at Tue Jan 28 03:35:37 2020.
