 Gaussian 09, Revision D.01,
 Gaussian 09:  ES64L-G09RevD.01 24-Apr-2013

 -----------------------------
 # b3lyp 6-31G(2df,p) opt Freq
 -----------------------------

 -----
 titel
 -----
 Symbolic Z-matrix:
 Charge =  0 Multiplicity = 1

 SCF Done:  E(RB3LYP) =  -423.207989071     A.U. after   14 cycles
 Optimization completed.
    -- Stationary point found.
 Normal termination of Gaussian 09 at Tue Jan 28 00:32:22 2020.

 ----------------------------------------------------------------------
 #N Geom=AllCheck Guess=TCheck SCRF=Check GenChk RB3LYP/6-31G(2df,p) Fr
 eq
 ----------------------------------------------------------------------

 Structure from the checkpoint file:  "/scratch/puck/g09_467e9c7b-41a7-4fb5-a3e8-46321f2e8c75/Gau-106844.chk"
 -----
 titel
 -----
 Charge =  0 Multiplicity = 1

                         Standard orientation:
 ---------------------------------------------------------------------
 Center     Atomic      Atomic             Coordinates (Angstroms)
 Number     Number       Type             X           Y           Z
 ---------------------------------------------------------------------
      1          8           0        0.525706   -1.203597    1.476268
      2          6           0        0.843191   -1.051992    0.092714
      3          6           0       -0.319359   -1.413793   -0.813957
      4          6           0       -1.521611   -0.835442   -0.757076
      5          6           0       -1.922174    0.297712    0.164603
      6          6           0       -1.068607    1.571990    0.004409
      7          6           0        0.378517    1.470343    0.538565
      8          6           0        1.220266    0.417176   -0.160455
      9          8           0        2.125187    0.690202   -0.913380
     10          1           0        0.034928   -2.026717    1.569852
     11          1           0        1.722936   -1.650270   -0.173650
     12          1           0       -0.132749   -2.190982   -1.549330
     13          1           0       -2.287247   -1.193299   -1.442001
     14          1           0       -2.968090    0.554999   -0.028478
     15          1           0       -1.866812   -0.035920    1.207657
     16          1           0       -1.044817    1.861991   -1.052675
     17          1           0       -1.561167    2.390007    0.542619
     18          1           0        0.887410    2.428211    0.403156
     19          1           0        0.347115    1.233177    1.606930
 ---------------------------------------------------------------------

 SCF Done:  E(RB3LYP) =  -423.207989071     A.U. after    1 cycles

 The electronic state is 1-A.
 Alpha  occ. eigenvalues --  -19.14925 -19.12426 -10.26242 -10.24054 -10.19888
 Alpha  occ. eigenvalues --  -10.19544 -10.19317 -10.19294 -10.18437  -1.04015
 Alpha  occ. eigenvalues --   -1.02490  -0.82508  -0.77169  -0.74116  -0.66756
 Alpha  occ. eigenvalues --   -0.62927  -0.55121  -0.52532  -0.50743  -0.48653
 Alpha  occ. eigenvalues --   -0.47490  -0.43844  -0.43052  -0.41430  -0.40944
 Alpha  occ. eigenvalues --   -0.39572  -0.37617  -0.36169  -0.34444  -0.33748
 Alpha  occ. eigenvalues --   -0.32751  -0.28375  -0.26646  -0.23187
 Alpha virt. eigenvalues --   -0.02365   0.00654   0.07932   0.09537   0.11556
 Alpha virt. eigenvalues --    0.13862   0.15198   0.15359   0.16405   0.17672
 Alpha virt. eigenvalues --    0.18115   0.19468   0.19958   0.20970   0.22585

 Mulliken charges:
               1
     1  O   -0.435308
     2  C   -0.001940
     3  C   -0.118626
     4  C   -0.046292
     5  C   -0.243290
     6  C   -0.199214
     7  C   -0.289587
     8  C    0.390110
     9  O   -0.314106
    10  H    0.286225
    11  H    0.088766
    12  H    0.100215
    13  H    0.099810
    14  H    0.100295
    15  H    0.119946
    16  H    0.112424
    17  H    0.103488
    18  H    0.114534
    19  H    0.132552
 Sum of Mulliken charges =   0.00000

 Dipole moment (field-independent basis, Debye):
    X=             -3.0719    Y=             -1.3281    Z=              0.7241  Tot=              3.4241
 Quadrupole moment (field-independent basis, Debye-Ang):
   XX=            -57.2915   YY=            -47.9742   ZZ=            -55.1094
   XY=             -2.0557   XZ=              2.4730   YZ=              1.4519

  Exact polarizability:  86.838  -3.529  77.809  -1.864   4.293  65.326
 Approx polarizability: 133.395  -6.498 108.070  -7.601   3.096 103.939

                      1                      2                      3
                      A                      A                      A
 Frequencies --    104.6656               117.8763               216.8584
 Red. masses --      5.3210                 3.4008                 3.5956
 Frc consts  --      0.0343                 0.0278                 0.0996
 IR Inten    --      2.8732                 2.2532                 4.8340

                      4                      5                      6
                      A                      A                      A
 Frequencies --    222.9929               260.4245               317.1275
 Red. masses --      2.3095                 1.3417                 2.5102
 Frc consts  --      0.0677                 0.0536                 0.1487
 IR Inten    --      7.8012                80.8498                 5.5498

                      7                      8                      9
                      A                      A                      A
 Frequencies --    346.5838               389.2233               470.6613
 Red. masses --      2.3516                 3.7204                 5.0654
 Frc consts  --      0.1664                 0.3321                 0.6611
 IR Inten    --     15.4931                 8.4656                 7.7527

                     10                     11                     12
                      A                      A                      A
 Frequencies --    501.6161               585.3739               650.2769
 Red. masses --      2.3835                 2.7745                 2.6116
 Frc consts  --      0.3534                 0.5602                 0.6507
 IR Inten    --      2.4255                 3.8865                12.4399

                     13                     14                     15
                      A                      A                      A
 Frequencies --    679.4988               750.5271               802.3625
 Red. masses --      3.0852                 1.7963                 2.1162
 Frc consts  --      0.8393                 0.5962                 0.8027
 IR Inten    --      5.1034                15.8999                 4.8065

                     16                     17                     18
                      A                      A                      A
 Frequencies --    852.1416               897.4191               910.0722
 Red. masses --      3.2078                 2.5400                 2.5140
 Frc consts  --      1.3724                 1.2053                 1.2268
 IR Inten    --      3.4359                12.1008                 9.8581

                     19                     20                     21
                      A                      A                      A
 Frequencies --    939.1081               990.9083               993.7094
 Red. masses --      2.4128                 2.2875                 1.2818
 Frc consts  --      1.2537                 1.3234                 0.7458
 IR Inten    --      4.6196                16.0230                 1.2222

                     22                     23                     24
                      A                      A                      A
 Frequencies --   1053.0013              1060.7277              1093.1048
 Red. masses --      1.9515                 2.8719                 3.0827
 Frc consts  --      1.2749                 1.9038                 2.1702
 IR Inten    --      8.8356                29.5883                34.1925

                     25                     26                     27
                      A                      A                      A
 Frequencies --   1143.0834              1186.8938              1227.3338
 Red. masses --      1.9306                 1.3339                 1.1629
 Frc consts  --      1.4863                 1.1071                 1.0321
 IR Inten    --     14.1878                26.5508                 5.9240

                     28                     29                     30
                      A                      A                      A
 Frequencies --   1253.9777              1266.3898              1291.1804
 Red. masses --      1.1146                 1.3107                 1.2304
 Frc consts  --      1.0326                 1.2385                 1.2085
 IR Inten    --     17.5012                14.5264                 1.6144

                     31                     32                     33
                      A                      A                      A
 Frequencies --   1345.5068              1355.2736              1364.3509
 Red. masses --      1.3435                 1.3371                 1.3431
 Frc consts  --      1.4331                 1.4470                 1.4731
 IR Inten    --     17.9355                 5.9811                 3.0451

                     34                     35                     36
                      A                      A                      A
 Frequencies --   1379.8116              1382.6669              1413.0846
 Red. masses --      1.3887                 1.5248                 1.4351
 Frc consts  --      1.5578                 1.7175                 1.6884
 IR Inten    --      8.8343                11.8585                 0.9462

                     37                     38                     39
                      A                      A                      A
 Frequencies --   1467.4432              1482.8312              1489.2903
 Red. masses --      1.1044                 1.0900                 1.0929
 Frc consts  --      1.4013                 1.4121                 1.4282
 IR Inten    --      8.5779                 4.1509                 3.0210

                     40                     41                     42
                      A                      A                      A
 Frequencies --   1703.8359              1814.3428              3029.7710
 Red. masses --      6.5448                11.3344                 1.0602
 Frc consts  --     11.1944                21.9830                 5.7339
 IR Inten    --      2.8454               177.7141                34.0377

                     43                     44                     45
                      A                      A                      A
 Frequencies --   3032.1477              3035.8224              3052.6467
 Red. masses --      1.0847                 1.0628                 1.0623
 Frc consts  --      5.8756                 5.7708                 5.8323
 IR Inten    --     33.9531                14.6873                 8.8119

                     46                     47                     48
                      A                      A                      A
 Frequencies --   3073.4359              3081.1289              3112.5525
 Red. masses --      1.0958                 1.1014                 1.1048
 Frc consts  --      6.0984                 6.1607                 6.3062
 IR Inten    --     35.1423                22.1004                14.1189

                     49                     50                     51
                      A                      A                      A
 Frequencies --   3145.7665              3174.8679              3812.9446
 Red. masses --      1.0851                 1.0954                 1.0664
 Frc consts  --      6.3265                 6.5054                 9.1349
 IR Inten    --      8.5876                21.2811                24.9630

 - Thermochemistry -
 -------------------
 Temperature   298.150 Kelvin.  Pressure   1.00000 Atm.
 Atom     1 has atomic number  8 and mass  15.99491

 Molecular mass:   126.06808 amu.
 Principal axes and moments of inertia in atomic units:
                           1         2         3
     Eigenvalues --   874.278821059.632171364.94372
           X            0.99575  -0.09104   0.01416
           Y            0.09022   0.99463   0.05078
           Z           -0.01871  -0.04928   0.99861
 This molecule is an asymmetric top.
 Rotational symmetry number  1.
 Warning -- assumption of classical behavior for rotation
           may cause significant error
 Rotational temperatures (Kelvin)      0.09907     0.08174     0.06346
 Rotational constants (GHZ):           2.06426     1.70318     1.32221
 Zero-point vibrational energy     420634.8 (Joules/Mol)
                                  100.53412 (Kcal/Mol)
 Warning -- explicit consideration of  11 degrees of freedom as
           vibrations may cause significant error
 Vibrational temperatures:    150.59   169.60   312.01   320.84   374.69
          (Kelvin)            456.28   498.66   560.00   677.18   721.71
                              842.22   935.60   977.65  1079.84  1154.42
                             1226.04  1291.18  1309.39  1351.17  1425.69
                             1429.72  1515.03  1526.15  1572.73  1644.64
                             1707.67  1765.86  1804.19  1822.05  1857.72
                             1935.88  1949.93  1962.99  1985.24  1989.35
                             2033.11  2111.32  2133.46  2142.75  2451.44
                             2610.43  4359.16  4362.58  4367.87  4392.07
                             4421.98  4433.05  4478.26  4526.05  4567.92
                             5485.97

 Zero-point correction=                           0.160211 (Hartree/Particle)
 Thermal correction to Energy=                    0.168691
 Thermal correction to Enthalpy=                  0.169636
 Thermal correction to Gibbs Free Energy=         0.127344
 Sum of electronic and zero-point Energies=           -423.047778
 Sum of electronic and thermal Energies=              -423.039298
 Sum of electronic and thermal Enthalpies=            -423.038353
 Sum of electronic and thermal Free Energies=         -423.080645

                     E (Thermal)             CV                S
                      KCal/Mol        Cal/Mol-Kelvin    Cal/Mol-Kelvin
 Total                  105.855             32.566             89.011
 Electronic               0.000              0.000              0.000
 Translational            0.889              2.981             40.409
 Rotational               0.889              2.981             28.627
 Vibrational            104.078             26.605             19.976
 Vibration     1          0.605              1.945              3.366
 Vibration     2          0.608              1.934              3.135
 Vibration     3          0.646              1.815              1.985
 Vibration     4          0.649              1.806              1.935
 Vibration     5          0.668              1.745              1.659
 Vibration     6          0.704              1.641              1.325
 Vibration     7          0.725              1.582              1.182
 Vibration     8          0.757              1.493              1.003
 Vibration     9          0.828              1.315              0.736
 Vibration    10          0.857              1.246              0.654
 Vibration    11          0.942              1.063              0.476

 Optimization completed.
    -- Stationary point found.
 Normal termination of Gaussian 09 at Tue Jan 28 01:17:27 2020.
