 Gaussian 09, Revision D.01,
 Gaussian 09:  ES64L-G09RevD.01 24-Apr-2013

 -----------------------------
 # b3lyp 6-31G(2df,p) opt Freq
 -----------------------------

 -----
 titel
 -----
 Symbolic Z-matrix:
 Charge =  0 Multiplicity = 1

 SCF Done:  E(RB3LYP) =  -423.224094569     A.U. after   14 cycles
 Optimization completed.
    -- Stationary point found.
 Normal termination of Gaussian 09 at Mon Jan 27 16:25:08 2020.

 ----------------------------------------------------------------------
 #N Geom=AllCheck Guess=TCheck SCRF=Check GenChk RB3LYP/6-31G(2df,p) Fr
 eq
 ----------------------------------------------------------------------

 Structure from the checkpoint file:  "/scratch/puck/g09_8fe1a8db-5007-42f2-82c9-7792c56fc1f3/Gau-177082.chk"
 -----
 titel
 -----
 Charge =  0 Multiplicity = 1

                         Standard orientation:
 ---------------------------------------------------------------------
 Center     Atomic      Atomic             Coordinates (Angstroms)
 Number     Number       Type             X           Y           Z
 ---------------------------------------------------------------------
      1          6           0        2.103096   -0.735940   -0.440738
      2          6           0        0.693683   -0.444704    0.048750
      3          8           0        0.685521   -0.751970    1.454000
      4          6           0       -0.364488   -1.279829   -0.692825
      5          6           0       -1.784163   -1.008333   -0.177210
      6          6           0       -2.055184    0.457310    0.010498
      7          6           0       -1.092131    1.389254    0.047228
      8          6           0        0.345722    1.056445   -0.088029
      9          8           0        1.188374    1.916129   -0.236800
     10          1           0        2.176999   -0.590867   -1.521900
     11          1           0        2.812753   -0.064280    0.043838
     12          1           0        2.366532   -1.770322   -0.203057
     13          1           0       -0.100878   -0.361875    1.851444
     14          1           0       -0.316310   -1.033899   -1.761049
     15          1           0       -0.117867   -2.341570   -0.590893
     16          1           0       -2.529862   -1.434349   -0.858527
     17          1           0       -1.945863   -1.524743    0.780523
     18          1           0       -3.095401    0.758159    0.120018
     19          1           0       -1.320472    2.445255    0.155964
 ---------------------------------------------------------------------

 SCF Done:  E(RB3LYP) =  -423.224094569     A.U. after    1 cycles

 The electronic state is 1-A.
 Alpha  occ. eigenvalues --  -19.14295 -19.12838 -10.26299 -10.24162 -10.22000
 Alpha  occ. eigenvalues --  -10.20709 -10.19810 -10.19212 -10.16826  -1.04162
 Alpha  occ. eigenvalues --   -1.01872  -0.84079  -0.77316  -0.73980  -0.67862
 Alpha  occ. eigenvalues --   -0.61235  -0.58994  -0.54347  -0.49335  -0.47608
 Alpha  occ. eigenvalues --   -0.47149  -0.44795  -0.42656  -0.41136  -0.39825
 Alpha  occ. eigenvalues --   -0.39257  -0.37936  -0.36952  -0.35271  -0.34806
 Alpha  occ. eigenvalues --   -0.33778  -0.28690  -0.27767  -0.23530
 Alpha virt. eigenvalues --   -0.05691   0.05232   0.06715   0.10394   0.11322
 Alpha virt. eigenvalues --    0.12783   0.13383   0.15967   0.16758   0.17728
 Alpha virt. eigenvalues --    0.17785   0.19856   0.20395   0.21734   0.23221

 Mulliken charges:
               1
     1  C   -0.412344
     2  C    0.250539
     3  O   -0.471350
     4  C   -0.235603
     5  C   -0.293656
     6  C   -0.040481
     7  C   -0.158937
     8  C    0.354053
     9  O   -0.335300
    10  H    0.115635
    11  H    0.141577
    12  H    0.116365
    13  H    0.284263
    14  H    0.108525
    15  H    0.108369
    16  H    0.119361
    17  H    0.127483
    18  H    0.110498
    19  H    0.111004
 Sum of Mulliken charges =   0.00000

 Dipole moment (field-independent basis, Debye):
    X=             -3.4862    Y=             -1.6348    Z=             -0.3600  Tot=              3.8673
 Quadrupole moment (field-independent basis, Debye-Ang):
   XX=            -51.6557   YY=            -57.0127   ZZ=            -53.0365
   XY=             -2.9765   XZ=             -2.0966   YZ=              2.6507

  Exact polarizability:  93.070   5.972  81.865  -2.475   1.107  58.700
 Approx polarizability: 140.360  24.639 127.354  -3.654  -2.863  93.400

                      1                      2                      3
                      A                      A                      A
 Frequencies --     85.3447               177.0362               192.9636
 Red. masses --      4.4852                 1.7280                 1.4244
 Frc consts  --      0.0192                 0.0319                 0.0312
 IR Inten    --      1.4630                 6.1894                 2.9478

                      4                      5                      6
                      A                      A                      A
 Frequencies --    228.9297               285.4488               288.3046
 Red. masses --      3.0724                 1.3445                 2.2166
 Frc consts  --      0.0949                 0.0645                 0.1086
 IR Inten    --      6.5550                48.2858                 9.4050

                      7                      8                      9
                      A                      A                      A
 Frequencies --    342.8465               353.8998               367.8417
 Red. masses --      2.2435                 2.8543                 3.1532
 Frc consts  --      0.1554                 0.2106                 0.2514
 IR Inten    --      8.1123                 2.7272                 0.4766

                     10                     11                     12
                      A                      A                      A
 Frequencies --    481.3369               487.8937               554.3920
 Red. masses --      3.6730                 5.1554                 4.5597
 Frc consts  --      0.5014                 0.7230                 0.8257
 IR Inten    --     16.3588                 1.9699                 1.9221

                     13                     14                     15
                      A                      A                      A
 Frequencies --    652.5832               672.6283               746.0767
 Red. masses --      1.6216                 3.9384                 2.0441
 Frc consts  --      0.4069                 1.0498                 0.6704
 IR Inten    --      4.8715                 4.7039                 2.6856

                     16                     17                     18
                      A                      A                      A
 Frequencies --    809.9228               867.4781               879.5735
 Red. masses --      2.8002                 2.8827                 2.8008
 Frc consts  --      1.0823                 1.2781                 1.2766
 IR Inten    --      5.9013                15.1772                17.5102

                     19                     20                     21
                      A                      A                      A
 Frequencies --    939.9092               943.5809              1001.8849
 Red. masses --      2.3143                 1.8383                 1.5296
 Frc consts  --      1.2046                 0.9643                 0.9046
 IR Inten    --     12.4915                 4.1608                 4.8357

                     22                     23                     24
                      A                      A                      A
 Frequencies --   1031.2472              1046.1865              1091.6807
 Red. masses --      1.3382                 1.8376                 2.3447
 Frc consts  --      0.8385                 1.1850                 1.6464
 IR Inten    --      1.1889                 2.2551                43.1161

                     25                     26                     27
                      A                      A                      A
 Frequencies --   1131.0945              1139.7043              1193.5844
 Red. masses --      1.4485                 1.6930                 2.4122
 Frc consts  --      1.0919                 1.2956                 2.0248
 IR Inten    --      5.5273                46.1015                16.4217

                     28                     29                     30
                      A                      A                      A
 Frequencies --   1218.0830              1241.2027              1285.1807
 Red. masses --      1.4543                 1.4179                 1.5695
 Frc consts  --      1.2713                 1.2870                 1.5273
 IR Inten    --     13.5065                27.9363                43.1130

                     31                     32                     33
                      A                      A                      A
 Frequencies --   1337.7431              1365.8755              1399.3250
 Red. masses --      1.4097                 1.5622                 1.4815
 Frc consts  --      1.4864                 1.7171                 1.7092
 IR Inten    --     17.2680                 4.1827                15.8182

                     34                     35                     36
                      A                      A                      A
 Frequencies --   1405.3248              1417.0362              1466.2388
 Red. masses --      1.5951                 1.6967                 1.0832
 Frc consts  --      1.8560                 2.0074                 1.3721
 IR Inten    --     19.2338                11.2168                 8.7064

                     37                     38                     39
                      A                      A                      A
 Frequencies --   1477.3106              1483.0927              1489.0072
 Red. masses --      1.0908                 1.0604                 1.0628
 Frc consts  --      1.4026                 1.3742                 1.3883
 IR Inten    --      2.0597                 5.5657                 2.8273

                     40                     41                     42
                      A                      A                      A
 Frequencies --   1677.9163              1784.5325              3007.3855
 Red. masses --      6.4593                12.0350                 1.0699
 Frc consts  --     10.7147                22.5811                 5.7012
 IR Inten    --     16.9790               180.5762                12.1520

                     43                     44                     45
                      A                      A                      A
 Frequencies --   3030.4207              3052.9186              3055.8472
 Red. masses --      1.0619                 1.0411                 1.0836
 Frc consts  --      5.7455                 5.7170                 5.9617
 IR Inten    --     14.2172                15.3096                24.3355

                     46                     47                     48
                      A                      A                      A
 Frequencies --   3082.3156              3123.8950              3147.2106
 Red. masses --      1.1022                 1.1020                 1.0868
 Frc consts  --      6.1694                 6.3360                 6.3426
 IR Inten    --     19.7412                18.8781                12.3635

                     49                     50                     51
                      A                      A                      A
 Frequencies --   3149.2109              3184.8585              3803.1188
 Red. masses --      1.1004                 1.0950                 1.0660
 Frc consts  --      6.4302                 6.5443                 9.0845
 IR Inten    --      7.9302                11.4724                11.6054

 - Thermochemistry -
 -------------------
 Temperature   298.150 Kelvin.  Pressure   1.00000 Atm.
 Atom     1 has atomic number  6 and mass  12.00000

 Molecular mass:   126.06808 amu.
 Principal axes and moments of inertia in atomic units:
                           1         2         3
     Eigenvalues --   793.842461033.452881443.17958
           X            0.99828  -0.05582  -0.01785
           Y            0.05648   0.99766   0.03850
           Z            0.01566  -0.03944   0.99910
 This molecule is an asymmetric top.
 Rotational symmetry number  1.
 Warning -- assumption of classical behavior for rotation
           may cause significant error
 Rotational temperatures (Kelvin)      0.10911     0.08381     0.06002
 Rotational constants (GHZ):           2.27342     1.74632     1.25053
 Zero-point vibrational energy     416769.5 (Joules/Mol)
                                   99.61031 (Kcal/Mol)
 Warning -- explicit consideration of  12 degrees of freedom as
           vibrations may cause significant error
 Vibrational temperatures:    122.79   254.72   277.63   329.38   410.70
          (Kelvin)            414.81   493.28   509.18   529.24   692.54
                              701.97   797.65   938.92   967.76  1073.44
                             1165.30  1248.11  1265.51  1352.32  1357.60
                             1441.49  1483.73  1505.23  1570.68  1627.39
                             1639.78  1717.30  1752.55  1785.81  1849.09
                             1924.71  1965.19  2013.31  2021.95  2038.80
                             2109.59  2125.52  2133.84  2142.35  2414.14
                             2567.54  4326.95  4360.09  4392.46  4396.68
                             4434.76  4494.58  4528.13  4531.01  4582.30
                             5471.83

 Zero-point correction=                           0.158739 (Hartree/Particle)
 Thermal correction to Energy=                    0.167554
 Thermal correction to Enthalpy=                  0.168499
 Thermal correction to Gibbs Free Energy=         0.125752
 Sum of electronic and zero-point Energies=           -423.065355
 Sum of electronic and thermal Energies=              -423.056540
 Sum of electronic and thermal Enthalpies=            -423.055596
 Sum of electronic and thermal Free Energies=         -423.098343

                     E (Thermal)             CV                S
                      KCal/Mol        Cal/Mol-Kelvin    Cal/Mol-Kelvin
 Total                  105.142             33.902             89.969
 Electronic               0.000              0.000              0.000
 Translational            0.889              2.981             40.409
 Rotational               0.889              2.981             28.561
 Vibrational            103.364             27.940             20.999
 Vibration     1          0.601              1.959              3.764
 Vibration     2          0.628              1.871              2.359
 Vibration     3          0.635              1.850              2.199
 Vibration     4          0.652              1.797              1.887
 Vibration     5          0.683              1.701              1.501
 Vibration     6          0.685              1.695              1.484
 Vibration     7          0.722              1.590              1.199
 Vibration     8          0.730              1.567              1.149
 Vibration     9          0.740              1.538              1.089
 Vibration    10          0.838              1.291              0.706
 Vibration    11          0.844              1.277              0.689
 Vibration    12          0.910              1.130              0.535

 Optimization completed.
    -- Stationary point found.
 Normal termination of Gaussian 09 at Mon Jan 27 17:09:57 2020.
