 Gaussian 09, Revision D.01,
 Gaussian 09:  ES64L-G09RevD.01 24-Apr-2013

 -----------------------------
 # b3lyp 6-31G(2df,p) opt Freq
 -----------------------------

 -----
 titel
 -----
 Symbolic Z-matrix:
 Charge =  0 Multiplicity = 1

 SCF Done:  E(RB3LYP) =  -423.152962620     A.U. after   14 cycles
 Optimization completed.
    -- Stationary point found.
 Normal termination of Gaussian 09 at Mon Jan 27 18:09:31 2020.

 ----------------------------------------------------------------------
 #N Geom=AllCheck Guess=TCheck SCRF=Check GenChk RB3LYP/6-31G(2df,p) Fr
 eq
 ----------------------------------------------------------------------

 Structure from the checkpoint file:  "/scratch/puck/g09_bf337048-ea5b-48ab-9eb1-c29c9a46bc4d/Gau-171028.chk"
 -----
 titel
 -----
 Charge =  0 Multiplicity = 1

                         Standard orientation:
 ---------------------------------------------------------------------
 Center     Atomic      Atomic             Coordinates (Angstroms)
 Number     Number       Type             X           Y           Z
 ---------------------------------------------------------------------
      1          6           0       -2.392058   -0.106945    0.412393
      2          6           0       -0.927082    0.007933    0.072732
      3          6           0       -0.315167    1.391744    0.285651
      4          8           0        1.000881    1.409588   -0.268444
      5          6           0        1.584110    0.122494   -0.251251
      6          6           0        1.397154   -0.571045    1.127973
      7          6           0        0.067570   -1.113660    0.574703
      8          6           0        0.568048   -0.939763   -0.870233
      9          8           0       -0.634037   -0.323531   -1.326902
     10          1           0       -2.983046    0.590899   -0.189512
     11          1           0       -2.751421   -1.120108    0.213609
     12          1           0       -2.559737    0.120690    1.470564
     13          1           0       -0.896287    2.151660   -0.246484
     14          1           0       -0.296968    1.654244    1.354830
     15          1           0        2.584484    0.217055   -0.674527
     16          1           0        2.114875   -1.384050    1.272908
     17          1           0        1.402343    0.071329    2.012485
     18          1           0       -0.403653   -2.016725    0.964889
     19          1           0        0.959207   -1.718003   -1.527802
 ---------------------------------------------------------------------

 SCF Done:  E(RB3LYP) =  -423.152962620     A.U. after    1 cycles

 The electronic state is 1-A.
 Alpha  occ. eigenvalues --  -19.13879 -19.13136 -10.24460 -10.23185 -10.23065
 Alpha  occ. eigenvalues --  -10.22643 -10.19263 -10.18540 -10.18425  -1.06364
 Alpha  occ. eigenvalues --   -1.01252  -0.82542  -0.78075  -0.69980  -0.64928
 Alpha  occ. eigenvalues --   -0.62872  -0.60660  -0.52549  -0.50460  -0.48517
 Alpha  occ. eigenvalues --   -0.46919  -0.44486  -0.42931  -0.41555  -0.40289
 Alpha  occ. eigenvalues --   -0.39430  -0.37818  -0.37382  -0.35952  -0.31784
 Alpha  occ. eigenvalues --   -0.29982  -0.29144  -0.25723  -0.22493
 Alpha virt. eigenvalues --    0.07554   0.09034   0.10597   0.11247   0.12433
 Alpha virt. eigenvalues --    0.13445   0.14428   0.16259   0.16362   0.16955
 Alpha virt. eigenvalues --    0.17753   0.18366   0.19723   0.20385   0.21607

 Mulliken charges:
               1
     1  C   -0.484165
     2  C    0.380492
     3  C   -0.109367
     4  O   -0.259879
     5  C    0.065889
     6  C   -0.278903
     7  C   -0.132909
     8  C    0.115411
     9  O   -0.320716
    10  H    0.131116
    11  H    0.128874
    12  H    0.122077
    13  H    0.112943
    14  H    0.090022
    15  H    0.081553
    16  H    0.105823
    17  H    0.105203
    18  H    0.069447
    19  H    0.077090
 Sum of Mulliken charges =   0.00000

 Dipole moment (field-independent basis, Debye):
    X=             -0.2375    Y=             -1.2316    Z=              1.8591  Tot=              2.2426
 Quadrupole moment (field-independent basis, Debye-Ang):
   XX=            -50.6014   YY=            -53.3207   ZZ=            -55.1574
   XY=             -3.7564   XZ=             -2.0964   YZ=              1.0405

  Exact polarizability:  82.460  -4.428  71.159  -1.478   1.269  67.282
 Approx polarizability: 111.916  -4.736 105.563  -1.419   1.345 106.167

                      1                      2                      3
                      A                      A                      A
 Frequencies --    190.1355               244.2571               282.4326
 Red. masses --      1.1229                 2.0812                 2.5498
 Frc consts  --      0.0239                 0.0732                 0.1198
 IR Inten    --      0.2383                 0.2654                 0.8286

                      4                      5                      6
                      A                      A                      A
 Frequencies --    293.7467               409.4088               414.5854
 Red. masses --      2.8197                 2.9957                 2.3827
 Frc consts  --      0.1434                 0.2958                 0.2413
 IR Inten    --      4.3326                 0.4163                 2.0018

                      7                      8                      9
                      A                      A                      A
 Frequencies --    463.5751               529.4004               644.1390
 Red. masses --      3.5949                 4.2287                 6.1705
 Frc consts  --      0.4552                 0.6983                 1.5085
 IR Inten    --      2.6296                 0.7209                15.0187

                     10                     11                     12
                      A                      A                      A
 Frequencies --    682.6985               716.8147               784.0322
 Red. masses --      3.8806                 3.5286                 2.5363
 Frc consts  --      1.0656                 1.0682                 0.9186
 IR Inten    --      4.8628                 1.1669                 2.1616

                     13                     14                     15
                      A                      A                      A
 Frequencies --    828.3429               837.3737               867.8668
 Red. masses --      2.1821                 3.2627                 1.9795
 Frc consts  --      0.8822                 1.3479                 0.8784
 IR Inten    --     13.4899                23.5564                 3.0044

                     16                     17                     18
                      A                      A                      A
 Frequencies --    915.5929               938.0463               968.3275
 Red. masses --      1.8928                 2.3935                 2.2025
 Frc consts  --      0.9349                 1.2409                 1.2168
 IR Inten    --      2.7984                 7.2708                 6.6592

                     19                     20                     21
                      A                      A                      A
 Frequencies --    985.4677              1005.1232              1036.1147
 Red. masses --      1.7625                 1.9443                 4.1238
 Frc consts  --      1.0085                 1.1573                 2.6084
 IR Inten    --      2.8479                17.9379                52.8260

                     22                     23                     24
                      A                      A                      A
 Frequencies --   1049.6992              1071.0220              1122.7784
 Red. masses --      1.6049                 2.8140                 1.9256
 Frc consts  --      1.0419                 1.9018                 1.4302
 IR Inten    --     13.9149                44.0095                 1.2612

                     25                     26                     27
                      A                      A                      A
 Frequencies --   1144.9533              1159.5302              1200.0561
 Red. masses --      2.0401                 2.5536                 1.4933
 Frc consts  --      1.5757                 2.0229                 1.2671
 IR Inten    --     18.3878                41.9475                 0.6222

                     28                     29                     30
                      A                      A                      A
 Frequencies --   1209.8447              1228.5642              1251.4433
 Red. masses --      1.8454                 2.3664                 1.2127
 Frc consts  --      1.5915                 2.1044                 1.1190
 IR Inten    --     10.4910                11.9844                 3.6748

                     31                     32                     33
                      A                      A                      A
 Frequencies --   1252.8641              1278.1433              1304.2531
 Red. masses --      1.6336                 2.0693                 1.5280
 Frc consts  --      1.5108                 1.9917                 1.5314
 IR Inten    --      2.2191                 4.1191                 4.5063

                     34                     35                     36
                      A                      A                      A
 Frequencies --   1325.4187              1352.0747              1407.1747
 Red. masses --      1.6380                 1.4523                 1.2851
 Frc consts  --      1.6954                 1.5643                 1.4993
 IR Inten    --      5.3522                 9.3480                 5.7154

                     37                     38                     39
                      A                      A                      A
 Frequencies --   1411.4127              1476.7238              1479.5479
 Red. masses --      1.6564                 1.1043                 1.0624
 Frc consts  --      1.9442                 1.4189                 1.3702
 IR Inten    --      4.0078                 4.2629                 2.6068

                     40                     41                     42
                      A                      A                      A
 Frequencies --   1493.6187              1505.3776              2983.7243
 Red. masses --      1.0507                 1.0881                 1.0685
 Frc consts  --      1.3811                 1.4528                 5.6045
 IR Inten    --      3.7520                 1.8620                52.6319

                     43                     44                     45
                      A                      A                      A
 Frequencies --   3036.5576              3053.8980              3074.1746
 Red. masses --      1.0355                 1.0578                 1.0939
 Frc consts  --      5.6255                 5.8127                 6.0908
 IR Inten    --     16.7698                28.3535                28.1373

                     46                     47                     48
                      A                      A                      A
 Frequencies --   3093.6663              3103.5873              3106.0893
 Red. masses --      1.0881                 1.0912                 1.1069
 Frc consts  --      6.1355                 6.1925                 6.2922
 IR Inten    --     32.5526                47.7784                 7.1162

                     49                     50                     51
                      A                      A                      A
 Frequencies --   3107.6998              3113.6807              3119.1009
 Red. masses --      1.1010                 1.0925                 1.1013
 Frc consts  --      6.2651                 6.2404                 6.3126
 IR Inten    --     18.6951                57.5848                21.2539

 - Thermochemistry -
 -------------------
 Temperature   298.150 Kelvin.  Pressure   1.00000 Atm.
 Atom     1 has atomic number  6 and mass  12.00000

 Molecular mass:   126.06808 amu.
 Principal axes and moments of inertia in atomic units:
                           1         2         3
     Eigenvalues --   639.94923 976.972081081.98763
           X            0.99875  -0.04667  -0.01786
           Y            0.04696   0.99877   0.01606
           Z            0.01709  -0.01687   0.99971
 This molecule is an asymmetric top.
 Rotational symmetry number  1.
 Warning -- assumption of classical behavior for rotation
           may cause significant error
 Rotational temperatures (Kelvin)      0.13534     0.08866     0.08005
 Rotational constants (GHZ):           2.82013     1.84728     1.66799
 Zero-point vibrational energy     422007.6 (Joules/Mol)
                                  100.86224 (Kcal/Mol)
 Warning -- explicit consideration of   8 degrees of freedom as
           vibrations may cause significant error
 Vibrational temperatures:    273.56   351.43   406.36   422.64   589.05
          (Kelvin)            596.50   666.98   761.69   926.77   982.25
                             1031.34  1128.05  1191.80  1204.79  1248.67
                             1317.33  1349.64  1393.21  1417.87  1446.15
                             1490.74  1510.28  1540.96  1615.43  1647.33
                             1668.30  1726.61  1740.69  1767.63  1800.55
                             1802.59  1838.96  1876.53  1906.98  1945.33
                             2024.61  2030.71  2124.67  2128.74  2148.98
                             2165.90  4292.91  4368.92  4393.87  4423.05
                             4451.09  4465.36  4468.96  4471.28  4479.89
                             4487.68

 Zero-point correction=                           0.160734 (Hartree/Particle)
 Thermal correction to Energy=                    0.167726
 Thermal correction to Enthalpy=                  0.168670
 Thermal correction to Gibbs Free Energy=         0.129895
 Sum of electronic and zero-point Energies=           -422.992228
 Sum of electronic and thermal Energies=              -422.985236
 Sum of electronic and thermal Enthalpies=            -422.984292
 Sum of electronic and thermal Free Energies=         -423.023067

                     E (Thermal)             CV                S
                      KCal/Mol        Cal/Mol-Kelvin    Cal/Mol-Kelvin
 Total                  105.250             29.239             81.609
 Electronic               0.000              0.000              0.000
 Translational            0.889              2.981             40.409
 Rotational               0.889              2.981             28.005
 Vibrational            103.472             23.277             13.195
 Vibration     1          0.633              1.853              2.227
 Vibration     2          0.660              1.772              1.772
 Vibration     3          0.681              1.706              1.519
 Vibration     4          0.689              1.685              1.452
 Vibration     5          0.774              1.450              0.929
 Vibration     6          0.778              1.439              0.911
 Vibration     7          0.821              1.331              0.756
 Vibration     8          0.884              1.185              0.589

 Optimization completed.
    -- Stationary point found.
 Normal termination of Gaussian 09 at Mon Jan 27 18:56:40 2020.
