 Gaussian 09, Revision D.01,
 Gaussian 09:  ES64L-G09RevD.01 24-Apr-2013

 -----------------------------
 # b3lyp 6-31G(2df,p) opt Freq
 -----------------------------

 -----
 titel
 -----
 Symbolic Z-matrix:
 Charge =  0 Multiplicity = 1

 SCF Done:  E(RB3LYP) =  -423.214182066     A.U. after   14 cycles
 Optimization completed.
    -- Stationary point found.
 Normal termination of Gaussian 09 at Mon Jan 27 16:53:06 2020.

 ----------------------------------------------------------------------
 #N Geom=AllCheck Guess=TCheck SCRF=Check GenChk RB3LYP/6-31G(2df,p) Fr
 eq
 ----------------------------------------------------------------------

 Structure from the checkpoint file:  "/scratch/puck/g09_aa566170-2df1-435d-aa54-bc25788ef24b/Gau-84810.chk"
 -----
 titel
 -----
 Charge =  0 Multiplicity = 1

                         Standard orientation:
 ---------------------------------------------------------------------
 Center     Atomic      Atomic             Coordinates (Angstroms)
 Number     Number       Type             X           Y           Z
 ---------------------------------------------------------------------
      1          8           0        1.025368   -0.384804    1.418013
      2          6           0        0.561634   -0.019228    0.133481
      3          6           0       -0.279800   -1.156230   -0.497233
      4          6           0       -1.699702   -1.165509    0.075432
      5          6           0       -2.418660    0.145243   -0.262138
      6          6           0       -1.551481    1.339211    0.032408
      7          6           0       -0.234670    1.268827    0.223547
      8          6           0        1.764413    0.227630   -0.768836
      9          8           0        2.899043    0.087981   -0.381761
     10          1           0        1.993022   -0.424258    1.344627
     11          1           0       -0.327272   -1.022746   -1.587144
     12          1           0        0.236730   -2.100198   -0.301120
     13          1           0       -2.260123   -2.021743   -0.312743
     14          1           0       -1.637809   -1.281019    1.163246
     15          1           0       -2.713406    0.156684   -1.322790
     16          1           0       -3.355506    0.226773    0.301888
     17          1           0       -2.047807    2.303474    0.117404
     18          1           0        0.332630    2.155982    0.493449
     19          1           0        1.533845    0.541972   -1.806788
 ---------------------------------------------------------------------

 SCF Done:  E(RB3LYP) =  -423.214182067     A.U. after    1 cycles

 The electronic state is 1-A.
 Alpha  occ. eigenvalues --  -19.16018 -19.13119 -10.27991 -10.24746 -10.19379
 Alpha  occ. eigenvalues --  -10.19230 -10.19095 -10.18726 -10.18622  -1.07099
 Alpha  occ. eigenvalues --   -1.01395  -0.83821  -0.75490  -0.75187  -0.65396
 Alpha  occ. eigenvalues --   -0.61423  -0.58315  -0.53019  -0.52044  -0.49830
 Alpha  occ. eigenvalues --   -0.46357  -0.45160  -0.44120  -0.41041  -0.40522
 Alpha  occ. eigenvalues --   -0.39689  -0.38832  -0.35736  -0.34255  -0.33862
 Alpha  occ. eigenvalues --   -0.32703  -0.27881  -0.27122  -0.25115
 Alpha virt. eigenvalues --   -0.03876   0.01661   0.08679   0.11029   0.12423
 Alpha virt. eigenvalues --    0.13515   0.13643   0.14405   0.16510   0.17115
 Alpha virt. eigenvalues --    0.17404   0.18635   0.20214   0.22106   0.23091

 Mulliken charges:
               1
     1  O   -0.475633
     2  C    0.263908
     3  C   -0.232829
     4  C   -0.220207
     5  C   -0.245600
     6  C   -0.067196
     7  C   -0.083190
     8  C    0.110298
     9  O   -0.273232
    10  H    0.289006
    11  H    0.092275
    12  H    0.111101
    13  H    0.094233
    14  H    0.124472
    15  H    0.110294
    16  H    0.109909
    17  H    0.095844
    18  H    0.096204
    19  H    0.100342
 Sum of Mulliken charges =   0.00000

 Dipole moment (field-independent basis, Debye):
    X=             -2.0972    Y=              0.2573    Z=             -1.6188  Tot=              2.6618
 Quadrupole moment (field-independent basis, Debye-Ang):
   XX=            -56.6783   YY=            -51.2013   ZZ=            -54.7221
   XY=             -0.2382   XZ=              0.5473   YZ=              0.6154

  Exact polarizability: 101.442  -1.218  70.442   3.450  -0.153  63.184
 Approx polarizability: 151.940  -3.430  99.212  10.099  -1.873  99.746

                      1                      2                      3
                      A                      A                      A
 Frequencies --     74.7068                95.3722               222.3866
 Red. masses --      3.6550                 4.7650                 2.5430
 Frc consts  --      0.0120                 0.0255                 0.0741
 IR Inten    --      0.3693                 0.2123                 1.9100

                      4                      5                      6
                      A                      A                      A
 Frequencies --    267.0997               307.8159               349.1770
 Red. masses --      2.1131                 5.0707                 1.9821
 Frc consts  --      0.0888                 0.2831                 0.1424
 IR Inten    --      3.0287                12.6789                 1.3878

                      7                      8                      9
                      A                      A                      A
 Frequencies --    379.3533               401.5372               455.3315
 Red. masses --      6.2667                 2.2131                 1.9723
 Frc consts  --      0.5313                 0.2102                 0.2409
 IR Inten    --      7.0276                32.4268                 6.4706

                     10                     11                     12
                      A                      A                      A
 Frequencies --    488.7700               520.4533               621.3618
 Red. masses --      1.4606                 2.5840                 4.0926
 Frc consts  --      0.2056                 0.4124                 0.9310
 IR Inten    --     22.6263                 8.7921                 1.6663

                     13                     14                     15
                      A                      A                      A
 Frequencies --    718.1440               747.1748               820.5994
 Red. masses --      2.3107                 1.4327                 4.9099
 Frc consts  --      0.7021                 0.4712                 1.9480
 IR Inten    --     14.5916                27.9878                25.2948

                     16                     17                     18
                      A                      A                      A
 Frequencies --    864.7573               868.4318               918.7374
 Red. masses --      2.4158                 1.7424                 2.2581
 Frc consts  --      1.0644                 0.7742                 1.1230
 IR Inten    --      2.3981                 4.2144                 7.6814

                     19                     20                     21
                      A                      A                      A
 Frequencies --    947.7558               994.4745              1008.3640
 Red. masses --      2.5654                 1.6333                 1.3426
 Frc consts  --      1.3577                 0.9517                 0.8043
 IR Inten    --      9.6592                 0.9656                 0.4279

                     22                     23                     24
                      A                      A                      A
 Frequencies --   1035.5198              1050.3883              1073.8001
 Red. masses --      1.9333                 3.3242                 1.8344
 Frc consts  --      1.2215                 2.1609                 1.2462
 IR Inten    --     10.8269                43.9260                 8.7503

                     25                     26                     27
                      A                      A                      A
 Frequencies --   1121.8352              1140.8284              1218.0085
 Red. masses --      1.6852                 1.7408                 2.0324
 Frc consts  --      1.2495                 1.3349                 1.7765
 IR Inten    --      3.8001                19.5858                 7.7946

                     28                     29                     30
                      A                      A                      A
 Frequencies --   1232.1265              1254.8671              1291.5070
 Red. masses --      1.6762                 1.2282                 1.2696
 Frc consts  --      1.4993                 1.1395                 1.2477
 IR Inten    --      6.5514                 6.0992                 7.8305

                     31                     32                     33
                      A                      A                      A
 Frequencies --   1353.7740              1362.4899              1372.7206
 Red. masses --      1.3325                 1.3097                 1.5453
 Frc consts  --      1.4388                 1.4325                 1.7156
 IR Inten    --     24.7730                27.5716                 0.6658

                     34                     35                     36
                      A                      A                      A
 Frequencies --   1389.2895              1408.0042              1435.1133
 Red. masses --      1.3032                 1.3744                 1.4724
 Frc consts  --      1.4820                 1.6053                 1.7867
 IR Inten    --     38.5730                 6.8544                28.3785

                     37                     38                     39
                      A                      A                      A
 Frequencies --   1466.6684              1475.8811              1493.1521
 Red. masses --      1.0958                 1.0856                 1.0950
 Frc consts  --      1.3888                 1.3932                 1.4384
 IR Inten    --      2.3451                 4.2278                 2.5125

                     40                     41                     42
                      A                      A                      A
 Frequencies --   1711.8808              1810.7958              2933.6918
 Red. masses --      6.8936                10.3668                 1.0862
 Frc consts  --     11.9027                20.0279                 5.5079
 IR Inten    --      1.9626               184.5806                60.6162

                     43                     44                     45
                      A                      A                      A
 Frequencies --   2994.6489              3012.3302              3040.4593
 Red. masses --      1.0702                 1.0665                 1.0671
 Frc consts  --      5.6545                 5.7020                 5.8121
 IR Inten    --     27.3082                25.7958                10.3742

                     46                     47                     48
                      A                      A                      A
 Frequencies --   3052.9282              3086.7014              3090.3956
 Red. masses --      1.0815                 1.0986                 1.1015
 Frc consts  --      5.9390                 6.1673                 6.1982
 IR Inten    --     40.1890                28.0516                25.3825

                     49                     50                     51
                      A                      A                      A
 Frequencies --   3143.4043              3167.4697              3674.7545
 Red. masses --      1.0836                 1.0968                 1.0646
 Frc consts  --      6.3081                 6.4837                 8.4705
 IR Inten    --      6.2701                25.4132                84.0698

 - Thermochemistry -
 -------------------
 Temperature   298.150 Kelvin.  Pressure   1.00000 Atm.
 Atom     1 has atomic number  8 and mass  15.99491

 Molecular mass:   126.06808 amu.
 Principal axes and moments of inertia in atomic units:
                           1         2         3
     Eigenvalues --   556.885571507.884491653.91656
           X            0.99997   0.00504   0.00588
           Y           -0.00519   0.99965   0.02599
           Z           -0.00574  -0.02602   0.99965
 This molecule is an asymmetric top.
 Rotational symmetry number  1.
 Warning -- assumption of classical behavior for rotation
           may cause significant error
 Rotational temperatures (Kelvin)      0.15553     0.05744     0.05237
 Rotational constants (GHZ):           3.24078     1.19687     1.09119
 Zero-point vibrational energy     418497.0 (Joules/Mol)
                                  100.02319 (Kcal/Mol)
 Warning -- explicit consideration of  11 degrees of freedom as
           vibrations may cause significant error
 Vibrational temperatures:    107.49   137.22   319.96   384.30   442.88
          (Kelvin)            502.39   545.80   577.72   655.12   703.23
                              748.82   894.00  1033.25  1075.02  1180.66
                             1244.19  1249.48  1321.86  1363.61  1430.83
                             1450.81  1489.88  1511.27  1544.96  1614.07
                             1641.40  1752.44  1772.75  1805.47  1858.19
                             1947.78  1960.32  1975.04  1998.88  2025.80
                             2064.81  2110.21  2123.46  2148.31  2463.01
                             2605.33  4220.92  4308.63  4334.07  4374.54
                             4392.48  4441.07  4446.38  4522.65  4557.28
                             5287.15

 Zero-point correction=                           0.159397 (Hartree/Particle)
 Thermal correction to Energy=                    0.167828
 Thermal correction to Enthalpy=                  0.168772
 Thermal correction to Gibbs Free Energy=         0.126294
 Sum of electronic and zero-point Energies=           -423.054785
 Sum of electronic and thermal Energies=              -423.046354
 Sum of electronic and thermal Enthalpies=            -423.045410
 Sum of electronic and thermal Free Energies=         -423.087888

                     E (Thermal)             CV                S
                      KCal/Mol        Cal/Mol-Kelvin    Cal/Mol-Kelvin
 Total                  105.314             32.515             89.403
 Electronic               0.000              0.000              0.000
 Translational            0.889              2.981             40.409
 Rotational               0.889              2.981             28.720
 Vibrational            103.536             26.553             20.274
 Vibration     1          0.599              1.966              4.025
 Vibration     2          0.603              1.952              3.547
 Vibration     3          0.648              1.807              1.940
 Vibration     4          0.672              1.734              1.615
 Vibration     5          0.698              1.659              1.374
 Vibration     6          0.726              1.577              1.170
 Vibration     7          0.749              1.514              1.042
 Vibration     8          0.767              1.467              0.957
 Vibration     9          0.814              1.349              0.780
 Vibration    10          0.845              1.275              0.687
 Vibration    11          0.875              1.205              0.609

 Optimization completed.
    -- Stationary point found.
 Normal termination of Gaussian 09 at Mon Jan 27 17:34:01 2020.
