 Gaussian 09, Revision D.01,
 Gaussian 09:  ES64L-G09RevD.01 24-Apr-2013

 -----------------------------
 # b3lyp 6-31G(2df,p) opt Freq
 -----------------------------

 -----
 titel
 -----
 Symbolic Z-matrix:
 Charge =  0 Multiplicity = 1

 SCF Done:  E(RB3LYP) =  -423.200740911     A.U. after   13 cycles
 Optimization completed.
    -- Stationary point found.
 Normal termination of Gaussian 09 at Tue Jan 28 00:31:48 2020.

 ----------------------------------------------------------------------
 #N Geom=AllCheck Guess=TCheck SCRF=Check GenChk RB3LYP/6-31G(2df,p) Fr
 eq
 ----------------------------------------------------------------------

 Structure from the checkpoint file:  "/scratch/puck/g09_a7fc63bf-057e-4158-8832-9e3ba3ca14b2/Gau-70375.chk"
 -----
 titel
 -----
 Charge =  0 Multiplicity = 1

                         Standard orientation:
 ---------------------------------------------------------------------
 Center     Atomic      Atomic             Coordinates (Angstroms)
 Number     Number       Type             X           Y           Z
 ---------------------------------------------------------------------
      1          8           0        2.571632   -0.761885    0.247044
      2          6           0        1.332838   -0.416993   -0.372258
      3          6           0        1.250356    1.054381   -0.703551
      4          6           0        0.263296    1.671292   -0.057305
      5          6           0       -0.567567    0.724111    0.778397
      6          8           0       -1.924296    0.644077    0.329069
      7          6           0       -1.990006   -0.389196   -0.644826
      8          6           0       -1.054636   -1.481962   -0.113364
      9          6           0        0.090775   -0.671857    0.532339
     10          1           0        2.723154   -0.127175    0.956493
     11          1           0        1.307909   -1.042081   -1.272357
     12          1           0        1.967962    1.523138   -1.368969
     13          1           0        0.023764    2.727280   -0.121093
     14          1           0       -0.616373    1.029663    1.829185
     15          1           0       -3.034869   -0.698079   -0.731543
     16          1           0       -1.652884   -0.027409   -1.629046
     17          1           0       -1.574073   -2.070676    0.648355
     18          1           0       -0.708883   -2.167957   -0.891151
     19          1           0        0.435268   -1.142891    1.454641
 ---------------------------------------------------------------------

 SCF Done:  E(RB3LYP) =  -423.200740911     A.U. after    1 cycles

 The electronic state is 1-A.
 Alpha  occ. eigenvalues --  -19.13538 -19.13429 -10.23406 -10.23143 -10.22315
 Alpha  occ. eigenvalues --  -10.18795 -10.18699 -10.18665 -10.18418  -1.03217
 Alpha  occ. eigenvalues --   -1.01638  -0.83178  -0.77048  -0.71174  -0.67904
 Alpha  occ. eigenvalues --   -0.59814  -0.57674  -0.54883  -0.51447  -0.49182
 Alpha  occ. eigenvalues --   -0.47796  -0.44483  -0.42710  -0.42306  -0.40550
 Alpha  occ. eigenvalues --   -0.38186  -0.36326  -0.34449  -0.33540  -0.33005
 Alpha  occ. eigenvalues --   -0.30587  -0.27677  -0.26093  -0.24755
 Alpha virt. eigenvalues --    0.00187   0.08654   0.09297   0.10427   0.12733
 Alpha virt. eigenvalues --    0.14350   0.14702   0.15398   0.16277   0.16579
 Alpha virt. eigenvalues --    0.17924   0.19671   0.20245   0.21042   0.21720

 Mulliken charges:
               1
     1  O   -0.432135
     2  C    0.092119
     3  C   -0.120414
     4  C   -0.087515
     5  C    0.065068
     6  O   -0.260533
     7  C   -0.085651
     8  C   -0.232948
     9  C   -0.081941
    10  H    0.273919
    11  H    0.088235
    12  H    0.103305
    13  H    0.105751
    14  H    0.080824
    15  H    0.108690
    16  H    0.091671
    17  H    0.107804
    18  H    0.102588
    19  H    0.081161
 Sum of Mulliken charges =   0.00000

 Dipole moment (field-independent basis, Debye):
    X=              0.1556    Y=              0.3054    Z=              0.0739  Tot=              0.3507
 Quadrupole moment (field-independent basis, Debye-Ang):
   XX=            -58.5278   YY=            -52.7436   ZZ=            -50.2485
   XY=              6.4471   XZ=              2.5108   YZ=              0.6135

  Exact polarizability:  83.621   0.415  75.295  -2.882   1.333  66.290
 Approx polarizability: 121.472  -8.468 109.913  -9.165   6.842 104.999

                      1                      2                      3
                      A                      A                      A
 Frequencies --     51.6358               166.2196               223.8771
 Red. masses --      3.8905                 2.9054                 3.1589
 Frc consts  --      0.0061                 0.0473                 0.0933
 IR Inten    --      3.1832                 0.5005                 2.2317

                      4                      5                      6
                      A                      A                      A
 Frequencies --    308.5921               346.7317               357.6428
 Red. masses --      1.5060                 2.1130                 2.5056
 Frc consts  --      0.0845                 0.1497                 0.1888
 IR Inten    --     20.3022                11.5273                61.3788

                      7                      8                      9
                      A                      A                      A
 Frequencies --    427.5836               536.4429               615.2782
 Red. masses --      2.7997                 3.7494                 4.4957
 Frc consts  --      0.3016                 0.6357                 1.0028
 IR Inten    --      0.8781                 2.3788                 1.9234

                     10                     11                     12
                      A                      A                      A
 Frequencies --    632.4418               731.7798               790.3962
 Red. masses --      2.3599                 4.3797                 1.7891
 Frc consts  --      0.5561                 1.3818                 0.6585
 IR Inten    --      1.1020                 4.1884                20.8323

                     13                     14                     15
                      A                      A                      A
 Frequencies --    835.7949               852.6812               883.4050
 Red. masses --      3.4846                 2.8610                 2.3324
 Frc consts  --      1.4342                 1.2256                 1.0725
 IR Inten    --      9.9233                 4.2554                 8.4031

                     16                     17                     18
                      A                      A                      A
 Frequencies --    916.9957               945.2886               953.1801
 Red. masses --      2.0482                 2.7340                 2.5574
 Frc consts  --      1.0147                 1.4394                 1.3690
 IR Inten    --     25.0715                 9.3888                12.1496

                     19                     20                     21
                      A                      A                      A
 Frequencies --    986.2048              1006.4301              1021.4812
 Red. masses --      1.5001                 2.3830                 1.9385
 Frc consts  --      0.8596                 1.4222                 1.1917
 IR Inten    --      8.2215                22.9358                13.4107

                     22                     23                     24
                      A                      A                      A
 Frequencies --   1046.4227              1058.3027              1094.7883
 Red. masses --      1.8567                 2.6462                 5.9775
 Frc consts  --      1.1978                 1.7462                 4.2211
 IR Inten    --     17.7378                41.1682               139.6078

                     25                     26                     27
                      A                      A                      A
 Frequencies --   1117.3652              1131.9538              1192.1719
 Red. masses --      1.8822                 1.2493                 1.3649
 Frc consts  --      1.3845                 0.9431                 1.1430
 IR Inten    --      2.2230                 6.6245                 9.4873

                     28                     29                     30
                      A                      A                      A
 Frequencies --   1227.4623              1244.1585              1260.0295
 Red. masses --      1.3096                 1.5397                 1.3070
 Frc consts  --      1.1625                 1.4042                 1.2226
 IR Inten    --      1.1041                 1.7677                13.0121

                     31                     32                     33
                      A                      A                      A
 Frequencies --   1296.9812              1306.0040              1314.1832
 Red. masses --      1.3498                 1.4286                 1.3847
 Frc consts  --      1.3378                 1.4357                 1.4091
 IR Inten    --      0.2284                 2.2826                 6.6004

                     34                     35                     36
                      A                      A                      A
 Frequencies --   1344.1255              1352.0490              1372.2786
 Red. masses --      1.4200                 1.2873                 1.6169
 Frc consts  --      1.5116                 1.3864                 1.7940
 IR Inten    --      4.7198                 3.6015                10.0316

                     37                     38                     39
                      A                      A                      A
 Frequencies --   1390.9568              1429.0185              1488.4903
 Red. masses --      1.3419                 1.2221                 1.0948
 Frc consts  --      1.5297                 1.4704                 1.4292
 IR Inten    --      8.2492                66.3062                 2.6904

                     40                     41                     42
                      A                      A                      A
 Frequencies --   1517.1084              1683.1186              2981.3289
 Red. masses --      1.0935                 6.5722                 1.0710
 Frc consts  --      1.4829                10.9695                 5.6087
 IR Inten    --      0.7576                 0.4371                52.9767

                     43                     44                     45
                      A                      A                      A
 Frequencies --   3041.9542              3044.9228              3056.2082
 Red. masses --      1.0838                 1.0857                 1.0621
 Frc consts  --      5.9088                 5.9307                 5.8451
 IR Inten    --     28.0877                31.3527                24.4498

                     46                     47                     48
                      A                      A                      A
 Frequencies --   3092.6495              3094.0703              3107.5555
 Red. masses --      1.0884                 1.0912                 1.1039
 Frc consts  --      6.1334                 6.1546                 6.2807
 IR Inten    --     34.3594                17.0993                34.3970

                     49                     50                     51
                      A                      A                      A
 Frequencies --   3180.2201              3205.8037              3795.8026
 Red. masses --      1.0847                 1.1046                 1.0660
 Frc consts  --      6.4633                 6.6883                 9.0496
 IR Inten    --      7.0327                16.3792                14.5418

 - Thermochemistry -
 -------------------
 Temperature   298.150 Kelvin.  Pressure   1.00000 Atm.
 Atom     1 has atomic number  8 and mass  15.99491

 Molecular mass:   126.06808 amu.
 Principal axes and moments of inertia in atomic units:
                           1         2         3
     Eigenvalues --   599.354151215.248571525.09654
           X            0.99911   0.04132   0.00882
           Y           -0.04134   0.99914   0.00269
           Z           -0.00870  -0.00305   0.99996
 This molecule is an asymmetric top.
 Rotational symmetry number  1.
 Warning -- assumption of classical behavior for rotation
           may cause significant error
 Rotational temperatures (Kelvin)      0.14451     0.07127     0.05679
 Rotational constants (GHZ):           3.01114     1.48508     1.18336
 Zero-point vibrational energy     425018.6 (Joules/Mol)
                                  101.58189 (Kcal/Mol)
 Warning -- explicit consideration of   9 degrees of freedom as
           vibrations may cause significant error
 Vibrational temperatures:     74.29   239.15   322.11   443.99   498.87
          (Kelvin)            514.57   615.20   771.82   885.25   909.94
                             1052.87  1137.20  1202.52  1226.82  1271.02
                             1319.35  1360.06  1371.41  1418.93  1448.03
                             1469.68  1505.57  1522.66  1575.15  1607.64
                             1628.63  1715.27  1766.04  1790.06  1812.90
                             1866.06  1879.05  1890.81  1933.89  1945.29
                             1974.40  2001.27  2056.04  2141.60  2182.78
                             2421.63  4289.46  4376.69  4380.96  4397.20
                             4449.63  4451.67  4471.07  4575.62  4612.43
                             5461.31

 Zero-point correction=                           0.161881 (Hartree/Particle)
 Thermal correction to Energy=                    0.169486
 Thermal correction to Enthalpy=                  0.170431
 Thermal correction to Gibbs Free Energy=         0.129421
 Sum of electronic and zero-point Energies=           -423.038860
 Sum of electronic and thermal Energies=              -423.031254
 Sum of electronic and thermal Enthalpies=            -423.030310
 Sum of electronic and thermal Free Energies=         -423.071320

                     E (Thermal)             CV                S
                      KCal/Mol        Cal/Mol-Kelvin    Cal/Mol-Kelvin
 Total                  106.354             29.950             86.311
 Electronic               0.000              0.000              0.000
 Translational            0.889              2.981             40.409
 Rotational               0.889              2.981             28.498
 Vibrational            104.577             23.988             17.405
 Vibration     1          0.596              1.977              4.754
 Vibration     2          0.624              1.884              2.478
 Vibration     3          0.649              1.805              1.928
 Vibration     4          0.698              1.657              1.370
 Vibration     5          0.725              1.582              1.181
 Vibration     6          0.733              1.560              1.132
 Vibration     7          0.789              1.410              0.867
 Vibration     8          0.891              1.169              0.573
 Vibration     9          0.975              1.000              0.424

 Optimization completed.
    -- Stationary point found.
 Normal termination of Gaussian 09 at Tue Jan 28 01:16:23 2020.
