 Gaussian 09, Revision D.01,
 Gaussian 09:  ES64L-G09RevD.01 24-Apr-2013

 -----------------------------
 # b3lyp 6-31G(2df,p) opt Freq
 -----------------------------

 -----
 titel
 -----
 Symbolic Z-matrix:
 Charge =  0 Multiplicity = 1

 SCF Done:  E(RB3LYP) =  -423.160185593     A.U. after   14 cycles
 Optimization completed.
    -- Stationary point found.
 Normal termination of Gaussian 09 at Tue Jan 28 12:09:15 2020.

 ----------------------------------------------------------------------
 #N Geom=AllCheck Guess=TCheck SCRF=Check GenChk RB3LYP/6-31G(2df,p) Fr
 eq
 ----------------------------------------------------------------------

 Structure from the checkpoint file:  "/scratch/puck/g09_0baf0825-d4da-41e8-b08a-a461069957be/Gau-113995.chk"
 -----
 titel
 -----
 Charge =  0 Multiplicity = 1

                         Standard orientation:
 ---------------------------------------------------------------------
 Center     Atomic      Atomic             Coordinates (Angstroms)
 Number     Number       Type             X           Y           Z
 ---------------------------------------------------------------------
      1          6           0        3.816306   -1.093810    0.330007
      2          6           0        2.851357   -0.006276   -0.148455
      3          6           0        1.383066   -0.425880   -0.030575
      4          6           0        0.412722    0.698702   -0.451897
      5          8           0        0.587625    1.885447    0.312949
      6          6           0       -0.973423    0.227138   -0.408625
      7          6           0       -2.112410   -0.164844   -0.305378
      8          6           0       -3.467473   -0.645529   -0.226380
      9          8           0       -4.236521   -0.380964    0.669095
     10          1           0        3.644610   -1.341011    1.383513
     11          1           0        3.697908   -2.016559   -0.248804
     12          1           0        4.856577   -0.769618    0.230356
     13          1           0        3.002703    0.913137    0.426202
     14          1           0        3.069005    0.246774   -1.194560
     15          1           0        1.184973   -1.308403   -0.651045
     16          1           0        1.150849   -0.714722    1.003291
     17          1           0        0.650927    0.995377   -1.481552
     18          1           0        0.237940    1.720309    1.196251
     19          1           0       -3.765206   -1.298155   -1.072192
 ---------------------------------------------------------------------

 SCF Done:  E(RB3LYP) =  -423.160185593     A.U. after    1 cycles

 The electronic state is 1-A.
 Alpha  occ. eigenvalues --  -19.15567 -19.14712 -10.29307 -10.27239 -10.21438
 Alpha  occ. eigenvalues --  -10.20094 -10.19891 -10.18915 -10.18120  -1.05296
 Alpha  occ. eigenvalues --   -1.03952  -0.81583  -0.78578  -0.73811  -0.67627
 Alpha  occ. eigenvalues --   -0.64281  -0.59887  -0.54431  -0.51249  -0.49277
 Alpha  occ. eigenvalues --   -0.46875  -0.44950  -0.44662  -0.41942  -0.40843
 Alpha  occ. eigenvalues --   -0.38471  -0.37221  -0.36591  -0.34253  -0.33663
 Alpha  occ. eigenvalues --   -0.30560  -0.29056  -0.28179  -0.26976
 Alpha virt. eigenvalues --   -0.06498   0.01206   0.07764   0.09142   0.10145
 Alpha virt. eigenvalues --    0.11100   0.12765   0.13720   0.14405   0.16415
 Alpha virt. eigenvalues --    0.17210   0.17781   0.18639   0.19985   0.22690

 Mulliken charges:
               1
     1  C   -0.389675
     2  C   -0.166823
     3  C   -0.178431
     4  C   -0.076250
     5  O   -0.408436
     6  C    0.087038
     7  C    0.041656
     8  C    0.024394
     9  O   -0.229035
    10  H    0.116599
    11  H    0.115571
    12  H    0.117700
    13  H    0.116861
    14  H    0.097741
    15  H    0.110356
    16  H    0.102000
    17  H    0.126941
    18  H    0.290169
    19  H    0.101626
 Sum of Mulliken charges =   0.00000

 Dipole moment (field-independent basis, Debye):
    X=              2.7048    Y=             -1.2119    Z=             -0.9959  Tot=              3.1267
 Quadrupole moment (field-independent basis, Debye-Ang):
   XX=            -64.5682   YY=            -55.9090   ZZ=            -50.7364
   XY=              0.0968   XZ=              5.7554   YZ=              2.0162

  Exact polarizability: 125.543   8.776  65.826  -4.129   2.514  64.762
 Approx polarizability: 171.336  20.449  97.585 -17.453   3.524 103.011

                      1                      2                      3
                      A                      A                      A
 Frequencies --     38.1983                65.9025                74.5588
 Red. masses --      5.2348                 3.1955                 2.1477
 Frc consts  --      0.0045                 0.0082                 0.0070
 IR Inten    --      6.4457                 2.2578                 2.1076

                      4                      5                      6
                      A                      A                      A
 Frequencies --     93.5181               125.6449               192.9825
 Red. masses --      2.5678                 3.5927                 3.6865
 Frc consts  --      0.0132                 0.0334                 0.0809
 IR Inten    --      1.6900                 2.1678                 1.9033

                      7                      8                      9
                      A                      A                      A
 Frequencies --    233.8117               249.2533               277.7875
 Red. masses --      3.3974                 1.1310                 1.7994
 Frc consts  --      0.1094                 0.0414                 0.0818
 IR Inten    --      0.6659                 0.5492                60.5790

                     10                     11                     12
                      A                      A                      A
 Frequencies --    316.3352               335.4789               392.9493
 Red. masses --      2.0054                 3.1448                 5.6678
 Frc consts  --      0.1182                 0.2085                 0.5156
 IR Inten    --     55.7288                 5.2401                14.1233

                     13                     14                     15
                      A                      A                      A
 Frequencies --    521.5748               565.1821               662.0769
 Red. masses --      3.7940                 4.3141                 7.5949
 Frc consts  --      0.6081                 0.8119                 1.9615
 IR Inten    --      8.2055                 7.1623                10.5612

                     16                     17                     18
                      A                      A                      A
 Frequencies --    749.0967               827.3431               859.3662
 Red. masses --      1.1385                 3.8833                 1.7288
 Frc consts  --      0.3764                 1.5661                 0.7522
 IR Inten    --      2.0872                52.2855                 5.9169

                     19                     20                     21
                      A                      A                      A
 Frequencies --    906.7378               954.4560              1020.9782
 Red. masses --      1.7061                 2.0729                 1.7656
 Frc consts  --      0.8265                 1.1126                 1.0844
 IR Inten    --      4.6253                10.2481                 0.6254

                     22                     23                     24
                      A                      A                      A
 Frequencies --   1043.0700              1079.4395              1101.8772
 Red. masses --      3.1616                 3.1666                 1.7028
 Frc consts  --      2.0267                 2.1739                 1.2181
 IR Inten    --     19.3155                54.1676                15.2776

                     25                     26                     27
                      A                      A                      A
 Frequencies --   1116.9988              1157.0884              1240.4119
 Red. masses --      2.5468                 2.6867                 1.4061
 Frc consts  --      1.8722                 2.1194                 1.2747
 IR Inten    --      3.5503               129.2812                 6.8946

                     28                     29                     30
                      A                      A                      A
 Frequencies --   1266.4910              1296.0215              1333.0096
 Red. masses --      1.2666                 1.3131                 1.1626
 Frc consts  --      1.1970                 1.2995                 1.2172
 IR Inten    --     12.6694                 4.1798                 0.7028

                     31                     32                     33
                      A                      A                      A
 Frequencies --   1344.8318              1388.6556              1413.9752
 Red. masses --      1.2833                 1.5026                 1.2265
 Frc consts  --      1.3674                 1.7072                 1.4447
 IR Inten    --      0.6725                 3.7375                 8.1693

                     34                     35                     36
                      A                      A                      A
 Frequencies --   1418.0255              1422.7455              1477.1921
 Red. masses --      1.2376                 1.1915                 1.0834
 Frc consts  --      1.4662                 1.4210                 1.3929
 IR Inten    --     82.5735                 1.7808                 1.1714

                     37                     38                     39
                      A                      A                      A
 Frequencies --   1494.0971              1500.2779              1510.7803
 Red. masses --      1.0536                 1.0401                 1.0838
 Frc consts  --      1.3857                 1.3794                 1.4574
 IR Inten    --      1.3602                 5.4306                 2.1149

                     40                     41                     42
                      A                      A                      A
 Frequencies --   1767.5415              2318.0448              2920.0205
 Red. masses --     10.5121                11.9522                 1.0817
 Frc consts  --     19.3499                37.8391                 5.4341
 IR Inten    --    254.4904               137.3714                92.5651

                     43                     44                     45
                      A                      A                      A
 Frequencies --   3016.7313              3025.3958              3030.9068
 Red. masses --      1.0633                 1.0658                 1.0424
 Frc consts  --      5.7016                 5.7478                 5.6418
 IR Inten    --      0.7753                15.0907                26.0937

                     46                     47                     48
                      A                      A                      A
 Frequencies --   3034.6401              3060.8943              3078.7580
 Red. masses --      1.0741                 1.0955                 1.0992
 Frc consts  --      5.8278                 6.0475                 6.1388
 IR Inten    --     32.7014                13.1159                 4.5036

                     49                     50                     51
                      A                      A                      A
 Frequencies --   3101.2869              3105.7910              3800.2385
 Red. masses --      1.1022                 1.1005                 1.0662
 Frc consts  --      6.2458                 6.2542                 9.0720
 IR Inten    --     55.7779                35.6376                24.4682

 - Thermochemistry -
 -------------------
 Temperature   298.150 Kelvin.  Pressure   1.00000 Atm.
 Atom     1 has atomic number  6 and mass  12.00000

 Molecular mass:   126.06808 amu.
 Principal axes and moments of inertia in atomic units:
                           1         2         3
     Eigenvalues --   460.683703250.558153522.94824
           X            0.99990  -0.01212   0.00746
           Y            0.01206   0.99990   0.00799
           Z           -0.00756  -0.00790   0.99994
 This molecule is an asymmetric top.
 Rotational symmetry number  1.
 Warning -- assumption of classical behavior for rotation
           may cause significant error
 Rotational temperatures (Kelvin)      0.18801     0.02665     0.02459
 Rotational constants (GHZ):           3.91753     0.55521     0.51228
 Zero-point vibrational energy     408695.0 (Joules/Mol)
                                   97.68045 (Kcal/Mol)
 Warning -- explicit consideration of  14 degrees of freedom as
           vibrations may cause significant error
 Vibrational temperatures:     54.96    94.82   107.27   134.55   180.77
          (Kelvin)            277.66   336.40   358.62   399.67   455.14
                              482.68   565.37   750.43   813.17   952.58
                             1077.78  1190.36  1236.43  1304.59  1373.25
                             1468.96  1500.74  1553.07  1585.35  1607.11
                             1664.79  1784.67  1822.20  1864.68  1917.90
                             1934.91  1997.96  2034.39  2040.22  2047.01
                             2125.35  2149.67  2158.56  2173.67  2543.09
                             3335.15  4201.25  4340.40  4352.86  4360.79
                             4366.16  4403.94  4429.64  4462.05  4468.53
                             5467.69

 Zero-point correction=                           0.155664 (Hartree/Particle)
 Thermal correction to Energy=                    0.166598
 Thermal correction to Enthalpy=                  0.167543
 Thermal correction to Gibbs Free Energy=         0.117856
 Sum of electronic and zero-point Energies=           -423.004522
 Sum of electronic and thermal Energies=              -422.993587
 Sum of electronic and thermal Enthalpies=            -422.992643
 Sum of electronic and thermal Free Energies=         -423.042330

                     E (Thermal)             CV                S
                      KCal/Mol        Cal/Mol-Kelvin    Cal/Mol-Kelvin
 Total                  104.542             36.912            104.575
 Electronic               0.000              0.000              0.000
 Translational            0.889              2.981             40.409
 Rotational               0.889              2.981             30.046
 Vibrational            102.765             30.951             34.121
 Vibration     1          0.594              1.982              5.350
 Vibration     2          0.597              1.971              4.272
 Vibration     3          0.599              1.966              4.029
 Vibration     4          0.603              1.954              3.585
 Vibration     5          0.611              1.927              3.012
 Vibration     6          0.635              1.850              2.199
 Vibration     7          0.654              1.789              1.849
 Vibration     8          0.662              1.764              1.736
 Vibration     9          0.679              1.715              1.547
 Vibration    10          0.703              1.642              1.329
 Vibration    11          0.717              1.605              1.234
 Vibration    12          0.760              1.485              0.989
 Vibration    13          0.877              1.202              0.606
 Vibration    14          0.921              1.107              0.514

 Optimization completed.
    -- Stationary point found.
 Normal termination of Gaussian 09 at Tue Jan 28 12:39:42 2020.
