 Gaussian 09, Revision D.01,
 Gaussian 09:  ES64L-G09RevD.01 24-Apr-2013

 -----------------------------
 # b3lyp 6-31G(2df,p) opt Freq
 -----------------------------

 -----
 titel
 -----
 Symbolic Z-matrix:
 Charge =  0 Multiplicity = 1

 SCF Done:  E(RB3LYP) =  -423.163772569     A.U. after   13 cycles
 Optimization completed.
    -- Stationary point found.
 Normal termination of Gaussian 09 at Mon Jan 27 18:50:02 2020.

 ----------------------------------------------------------------------
 #N Geom=AllCheck Guess=TCheck SCRF=Check GenChk RB3LYP/6-31G(2df,p) Fr
 eq
 ----------------------------------------------------------------------

 Structure from the checkpoint file:  "/scratch/puck/g09_b224fed6-1cfc-4d3b-b357-580eda6575bc/Gau-64362.chk"
 -----
 titel
 -----
 Charge =  0 Multiplicity = 1

                         Standard orientation:
 ---------------------------------------------------------------------
 Center     Atomic      Atomic             Coordinates (Angstroms)
 Number     Number       Type             X           Y           Z
 ---------------------------------------------------------------------
      1          8           0        0.640591    1.849931   -0.695435
      2          6           0        0.499311    0.641926    0.005693
      3          6           0        1.716528    0.100400    0.787925
      4          8           0        1.555858   -1.204054    0.202672
      5          6           0        0.556919   -0.735367   -0.738352
      6          6           0       -0.773009   -1.475285   -0.574529
      7          6           0       -1.567494   -0.644772    0.436276
      8          6           0       -2.062800    0.694249   -0.043570
      9          6           0       -0.801347    0.620229    0.777306
     10          1           0        1.480244    1.830781   -1.167193
     11          1           0        2.667363    0.572154    0.495144
     12          1           0        1.650351    0.080373    1.882019
     13          1           0        0.951426   -0.722177   -1.762690
     14          1           0       -1.304208   -1.575794   -1.527916
     15          1           0       -0.570474   -2.483673   -0.201658
     16          1           0       -2.137274   -1.159294    1.201329
     17          1           0       -1.972615    0.935431   -1.098009
     18          1           0       -2.939186    1.116354    0.435362
     19          1           0       -0.805861    1.030533    1.781231
 ---------------------------------------------------------------------

 SCF Done:  E(RB3LYP) =  -423.163772569     A.U. after    1 cycles

 The electronic state is 1-A.
 Alpha  occ. eigenvalues --  -19.14470 -19.13271 -10.24054 -10.22775 -10.22650
 Alpha  occ. eigenvalues --  -10.19127 -10.18809 -10.18273 -10.18179  -1.04754
 Alpha  occ. eigenvalues --   -1.01828  -0.87261  -0.74486  -0.72431  -0.65871
 Alpha  occ. eigenvalues --   -0.60400  -0.57213  -0.54994  -0.51899  -0.50478
 Alpha  occ. eigenvalues --   -0.46609  -0.44917  -0.42903  -0.41651  -0.39539
 Alpha  occ. eigenvalues --   -0.38809  -0.36978  -0.35893  -0.34718  -0.29978
 Alpha  occ. eigenvalues --   -0.28390  -0.28005  -0.25958  -0.24906
 Alpha virt. eigenvalues --    0.06124   0.08275   0.09969   0.11360   0.11703
 Alpha virt. eigenvalues --    0.13430   0.14981   0.15824   0.16310   0.17571
 Alpha virt. eigenvalues --    0.18453   0.18766   0.19023   0.21740   0.23448

 Mulliken charges:
               1
     1  O   -0.478320
     2  C    0.314077
     3  C   -0.134133
     4  O   -0.291600
     5  C    0.074397
     6  C   -0.257414
     7  C   -0.027874
     8  C   -0.290993
     9  C   -0.054358
    10  H    0.279645
    11  H    0.082622
    12  H    0.105109
    13  H    0.063020
    14  H    0.098946
    15  H    0.116831
    16  H    0.084995
    17  H    0.118470
    18  H    0.110304
    19  H    0.086277
 Sum of Mulliken charges =   0.00000

 Dipole moment (field-independent basis, Debye):
    X=             -0.0758    Y=              0.3884    Z=             -0.2441  Tot=              0.4649
 Quadrupole moment (field-independent basis, Debye-Ang):
   XX=            -51.0954   YY=            -57.7793   ZZ=            -49.6674
   XY=              4.6881   XZ=             -2.4419   YZ=              0.7864

  Exact polarizability:  80.961   2.526  70.981   0.731   1.591  69.287
 Approx polarizability: 108.735   2.312 106.915   2.466   0.333 104.892

                      1                      2                      3
                      A                      A                      A
 Frequencies --    102.6288               188.7298               241.3130
 Red. masses --      3.3144                 2.8953                 2.7409
 Frc consts  --      0.0206                 0.0608                 0.0940
 IR Inten    --      3.6550                 1.0849                 4.6007

                      4                      5                      6
                      A                      A                      A
 Frequencies --    332.1503               356.2751               378.4859
 Red. masses --      1.2806                 2.7975                 2.1036
 Frc consts  --      0.0832                 0.2092                 0.1775
 IR Inten    --     58.2446                11.5298                12.5033

                      7                      8                      9
                      A                      A                      A
 Frequencies --    414.2047               462.6032               594.6180
 Red. masses --      3.3390                 2.9979                 4.2603
 Frc consts  --      0.3375                 0.3780                 0.8875
 IR Inten    --     11.8327                 7.7790                 0.6463

                     10                     11                     12
                      A                      A                      A
 Frequencies --    651.0883               712.1577               789.3177
 Red. masses --      3.3702                 4.1015                 2.2228
 Frc consts  --      0.8418                 1.2256                 0.8159
 IR Inten    --      4.4912                 0.4078                 2.0963

                     13                     14                     15
                      A                      A                      A
 Frequencies --    819.5025               851.3192               853.9460
 Red. masses --      1.5413                 2.7502                 2.5044
 Frc consts  --      0.6099                 1.1744                 1.0760
 IR Inten    --      5.3368                 7.1584                16.1253

                     16                     17                     18
                      A                      A                      A
 Frequencies --    920.3487               927.5397               973.5359
 Red. masses --      1.8673                 2.0945                 1.5540
 Frc consts  --      0.9319                 1.0617                 0.8678
 IR Inten    --      8.6746                 9.3492                 0.5410

                     19                     20                     21
                      A                      A                      A
 Frequencies --    990.6943              1021.6962              1032.0033
 Red. masses --      2.8740                 6.1439                 2.5728
 Frc consts  --      1.6619                 3.7787                 1.6144
 IR Inten    --      5.6371                80.4790                12.5743

                     22                     23                     24
                      A                      A                      A
 Frequencies --   1047.5662              1063.1126              1092.0081
 Red. masses --      1.9001                 1.4587                 2.5781
 Frc consts  --      1.2286                 0.9714                 1.8113
 IR Inten    --      6.9422                 2.5333                39.0026

                     25                     26                     27
                      A                      A                      A
 Frequencies --   1096.2034              1112.5875              1148.9112
 Red. masses --      1.4627                 1.2033                 1.7153
 Frc consts  --      1.0356                 0.8776                 1.3340
 IR Inten    --      7.1575                 0.7262                 1.2496

                     28                     29                     30
                      A                      A                      A
 Frequencies --   1153.3506              1189.2338              1197.2048
 Red. masses --      1.2906                 1.7924                 1.7162
 Frc consts  --      1.0115                 1.4936                 1.4493
 IR Inten    --      0.5447                21.5580                39.4492

                     31                     32                     33
                      A                      A                      A
 Frequencies --   1232.3280              1258.7069              1305.9806
 Red. masses --      1.6682                 1.7646                 1.6191
 Frc consts  --      1.4926                 1.6472                 1.6271
 IR Inten    --     37.3749                35.4238                13.3651

                     34                     35                     36
                      A                      A                      A
 Frequencies --   1314.0975              1348.1752              1358.2283
 Red. masses --      1.3647                 1.3641                 1.7359
 Frc consts  --      1.3885                 1.4607                 1.8868
 IR Inten    --      2.2354                12.1438                20.5515

                     37                     38                     39
                      A                      A                      A
 Frequencies --   1381.6193              1417.9436              1476.2712
 Red. masses --      1.8067                 2.2232                 1.1020
 Frc consts  --      2.0320                 2.6336                 1.4151
 IR Inten    --      8.1317                10.8029                 2.9513

                     40                     41                     42
                      A                      A                      A
 Frequencies --   1493.7935              1519.3071              2979.8588
 Red. masses --      1.2181                 1.1070                 1.0644
 Frc consts  --      1.6015                 1.5055                 5.5684
 IR Inten    --      3.6320                 0.9215                81.9745

                     43                     44                     45
                      A                      A                      A
 Frequencies --   3018.7262              3042.5491              3053.9612
 Red. masses --      1.0832                 1.0668                 1.0997
 Frc consts  --      5.8159                 5.8183                 6.0430
 IR Inten    --     47.8519                54.8475                36.4415

                     46                     47                     48
                      A                      A                      A
 Frequencies --   3090.3916              3130.5162              3165.0339
 Red. masses --      1.1006                 1.0543                 1.0890
 Frc consts  --      6.1930                 6.0877                 6.4274
 IR Inten    --     13.1451                12.7749                11.8938

                     49                     50                     51
                      A                      A                      A
 Frequencies --   3176.2479              3215.9998              3805.0817
 Red. masses --      1.0935                 1.1155                 1.0658
 Frc consts  --      6.4998                 6.7978                 9.0918
 IR Inten    --     15.8872                11.6731                14.2965

 - Thermochemistry -
 -------------------
 Temperature   298.150 Kelvin.  Pressure   1.00000 Atm.
 Atom     1 has atomic number  8 and mass  15.99491

 Molecular mass:   126.06808 amu.
 Principal axes and moments of inertia in atomic units:
                           1         2         3
     Eigenvalues --   717.74045 958.789171300.72213
           X            0.99853   0.05415   0.00062
           Y           -0.05415   0.99823   0.02457
           Z            0.00071  -0.02457   0.99970
 This molecule is an asymmetric top.
 Rotational symmetry number  1.
 Warning -- assumption of classical behavior for rotation
           may cause significant error
 Rotational temperatures (Kelvin)      0.12068     0.09034     0.06659
 Rotational constants (GHZ):           2.51448     1.88231     1.38749
 Zero-point vibrational energy     421678.6 (Joules/Mol)
                                  100.78360 (Kcal/Mol)
 Warning -- explicit consideration of   9 degrees of freedom as
           vibrations may cause significant error
 Vibrational temperatures:    147.66   271.54   347.20   477.89   512.60
          (Kelvin)            544.56   595.95   665.58   855.52   936.77
                             1024.63  1135.65  1179.08  1224.86  1228.64
                             1324.17  1334.52  1400.70  1425.39  1469.99
                             1484.82  1507.21  1529.58  1571.15  1577.19
                             1600.76  1653.02  1659.41  1711.04  1722.51
                             1773.04  1811.00  1879.01  1890.69  1939.72
                             1954.19  1987.84  2040.10  2124.02  2149.23
                             2185.94  4287.35  4343.27  4377.54  4393.96
                             4446.38  4504.11  4553.77  4569.91  4627.10
                             5474.66

 Zero-point correction=                           0.160609 (Hartree/Particle)
 Thermal correction to Energy=                    0.168103
 Thermal correction to Enthalpy=                  0.169048
 Thermal correction to Gibbs Free Energy=         0.128908
 Sum of electronic and zero-point Energies=           -423.003164
 Sum of electronic and thermal Energies=              -422.995669
 Sum of electronic and thermal Enthalpies=            -422.994725
 Sum of electronic and thermal Free Energies=         -423.034865

                     E (Thermal)             CV                S
                      KCal/Mol        Cal/Mol-Kelvin    Cal/Mol-Kelvin
 Total                  105.486             30.338             84.481
 Electronic               0.000              0.000              0.000
 Translational            0.889              2.981             40.409
 Rotational               0.889              2.981             28.284
 Vibrational            103.709             24.376             15.789
 Vibration     1          0.605              1.947              3.404
 Vibration     2          0.633              1.855              2.240
 Vibration     3          0.658              1.777              1.793
 Vibration     4          0.714              1.611              1.250
 Vibration     5          0.732              1.562              1.138
 Vibration     6          0.749              1.516              1.045
 Vibration     7          0.778              1.439              0.912
 Vibration     8          0.820              1.333              0.759
 Vibration     9          0.952              1.043              0.459

 Normal termination of Gaussian 09 at Mon Jan 27 19:36:11 2020.
