 Gaussian 09, Revision D.01,
 Gaussian 09:  ES64L-G09RevD.01 24-Apr-2013

 -----------------------------
 # b3lyp 6-31G(2df,p) opt Freq
 -----------------------------

 -----
 titel
 -----
 Symbolic Z-matrix:
 Charge =  0 Multiplicity = 1

 SCF Done:  E(RB3LYP) =  -423.149907328     A.U. after   14 cycles
 Optimization completed.
    -- Stationary point found.
 Normal termination of Gaussian 09 at Tue Jan 28 14:30:36 2020.

 ----------------------------------------------------------------------
 #N Geom=AllCheck Guess=TCheck SCRF=Check GenChk RB3LYP/6-31G(2df,p) Fr
 eq
 ----------------------------------------------------------------------

 Structure from the checkpoint file:  "/scratch/puck/g09_a1f460a8-a2a2-454c-b993-a3c531e5729a/Gau-112630.chk"
 -----
 titel
 -----
 Charge =  0 Multiplicity = 1

                         Standard orientation:
 ---------------------------------------------------------------------
 Center     Atomic      Atomic             Coordinates (Angstroms)
 Number     Number       Type             X           Y           Z
 ---------------------------------------------------------------------
      1          6           0        4.482145   -0.440536    0.000124
      2          8           0        3.110140   -0.755553   -0.000091
      3          6           0        2.283582    0.383438   -0.000207
      4          6           0        0.832345   -0.079608   -0.000034
      5          6           0       -0.147043    1.110081    0.000079
      6          6           0       -1.544474    0.706480    0.000149
      7          6           0       -2.695153    0.337932    0.000159
      8          6           0       -4.080834   -0.050959   -0.000131
      9          8           0       -4.475133   -1.194920    0.000048
     10          1           0        4.768615    0.139327    0.891987
     11          1           0        5.033826   -1.383473    0.000170
     12          1           0        4.768894    0.139383   -0.891614
     13          1           0        2.487737    1.010790    0.886448
     14          1           0        2.487632    1.010531   -0.887065
     15          1           0        0.653487   -0.705784   -0.879311
     16          1           0        0.653745   -0.705774    0.879302
     17          1           0        0.036260    1.747621    0.875857
     18          1           0        0.036231    1.747778   -0.875587
     19          1           0       -4.789893    0.802414   -0.000681
 ---------------------------------------------------------------------

 SCF Done:  E(RB3LYP) =  -423.149907329     A.U. after    1 cycles

 The electronic state is 1-A.
 Alpha  occ. eigenvalues --  -19.14690 -19.14035 -10.28630 -10.23847 -10.22986
 Alpha  occ. eigenvalues --  -10.22802 -10.21178 -10.19874 -10.19055  -1.04607
 Alpha  occ. eigenvalues --   -1.04112  -0.82725  -0.77235  -0.72772  -0.67092
 Alpha  occ. eigenvalues --   -0.64116  -0.60970  -0.51758  -0.50208  -0.49906
 Alpha  occ. eigenvalues --   -0.47855  -0.46098  -0.45188  -0.44180  -0.41175
 Alpha  occ. eigenvalues --   -0.39895  -0.39768  -0.36784  -0.35626  -0.32504
 Alpha  occ. eigenvalues --   -0.28349  -0.28066  -0.26342  -0.26273
 Alpha virt. eigenvalues --   -0.05822   0.03161   0.08040   0.08870   0.09918
 Alpha virt. eigenvalues --    0.12761   0.13032   0.13589   0.14026   0.15577
 Alpha virt. eigenvalues --    0.16203   0.16711   0.18911   0.20126   0.20537

 Mulliken charges:
               1
     1  C   -0.230978
     2  O   -0.230563
     3  C   -0.050300
     4  C   -0.190106
     5  C   -0.369683
     6  C    0.073980
     7  C    0.056883
     8  C    0.023033
     9  O   -0.230127
    10  H    0.104578
    11  H    0.130880
    12  H    0.104576
    13  H    0.084650
    14  H    0.084658
    15  H    0.127789
    16  H    0.127792
    17  H    0.143285
    18  H    0.143281
    19  H    0.096372
 Sum of Mulliken charges =   0.00000

 Dipole moment (field-independent basis, Debye):
    X=              3.2691    Y=              3.3995    Z=             -0.0003  Tot=              4.7163
 Quadrupole moment (field-independent basis, Debye-Ang):
   XX=            -57.8328   YY=            -55.8773   ZZ=            -52.5273
   XY=             -6.5960   XZ=              0.0025   YZ=             -0.0001

  Exact polarizability: 129.874   9.480  71.004   0.003  -0.002  56.500
 Approx polarizability: 165.592  29.141 115.895   0.003  -0.003  85.009

                      1                      2                      3
                      A                      A                      A
 Frequencies --      8.8722                49.0538                50.0815
 Red. masses --      2.4071                 2.4438                 6.2933
 Frc consts  --      0.0001                 0.0035                 0.0093
 IR Inten    --      2.1845                 4.0051                 0.7969

                      4                      5                      6
                      A                      A                      A
 Frequencies --     94.9079               119.4477               139.9040
 Red. masses --      2.1186                 2.2275                 4.6459
 Frc consts  --      0.0112                 0.0187                 0.0536
 IR Inten    --      0.6416                 0.7496                 2.9697

                      7                      8                      9
                      A                      A                      A
 Frequencies --    188.6878               228.3673               230.4480
 Red. masses --      2.9816                 1.2429                 4.6631
 Frc consts  --      0.0625                 0.0382                 0.1459
 IR Inten    --      6.4627                 2.4615                 1.4463

                     10                     11                     12
                      A                      A                      A
 Frequencies --    331.6347               403.8037               404.6147
 Red. masses --      6.2059                 3.6546                 3.9112
 Frc consts  --      0.4021                 0.3511                 0.3773
 IR Inten    --      1.2809                 6.3690                 0.2608

                     13                     14                     15
                      A                      A                      A
 Frequencies --    509.0196               628.7267               750.0833
 Red. masses --      3.9318                 7.1067                 1.1255
 Frc consts  --      0.6002                 1.6552                 0.3731
 IR Inten    --      6.7772                 1.5347                 1.8320

                     16                     17                     18
                      A                      A                      A
 Frequencies --    829.6418               861.7298               979.4846
 Red. masses --      4.9480                 1.2532                 4.6966
 Frc consts  --      2.0066                 0.5483                 2.6548
 IR Inten    --     74.2699                 0.6337                14.2139

                     19                     20                     21
                      A                      A                      A
 Frequencies --   1022.6995              1039.2861              1069.5970
 Red. masses --      1.7694                 3.0711                 3.3666
 Frc consts  --      1.0904                 1.9544                 2.2693
 IR Inten    --      0.7429                15.6165                 2.1876

                     22                     23                     24
                      A                      A                      A
 Frequencies --   1110.5956              1157.5051              1168.6326
 Red. masses --      1.5250                 3.9259                 4.6520
 Frc consts  --      1.1083                 3.0991                 3.7433
 IR Inten    --      0.0828               136.7966                95.7613

                     25                     26                     27
                      A                      A                      A
 Frequencies --   1180.2221              1222.6449              1223.7399
 Red. masses --      1.2403                 1.5871                 1.3348
 Frc consts  --      1.0179                 1.3978                 1.1777
 IR Inten    --      1.1035                53.2006                 6.9658

                     28                     29                     30
                      A                      A                      A
 Frequencies --   1279.7501              1295.8442              1309.6925
 Red. masses --      1.4555                 1.1577                 1.0616
 Frc consts  --      1.4044                 1.1454                 1.0729
 IR Inten    --     16.2247                 0.0834                 0.0091

                     31                     32                     33
                      A                      A                      A
 Frequencies --   1368.1933              1423.5741              1429.6067
 Red. masses --      1.5159                 1.2009                 1.3897
 Frc consts  --      1.6719                 1.4339                 1.6735
 IR Inten    --      4.3815                23.6749                33.2024

                     34                     35                     36
                      A                      A                      A
 Frequencies --   1460.4920              1481.1725              1485.0736
 Red. masses --      1.0831                 1.1662                 1.0467
 Frc consts  --      1.3612                 1.5074                 1.3600
 IR Inten    --      2.2190                 0.2321                 5.3474

                     37                     38                     39
                      A                      A                      A
 Frequencies --   1496.3712              1505.7295              1532.2587
 Red. masses --      1.0820                 1.0678                 1.0955
 Frc consts  --      1.4274                 1.4263                 1.5154
 IR Inten    --      3.5340                 9.0275                 1.1725

                     40                     41                     42
                      A                      A                      A
 Frequencies --   1767.6660              2331.0659              2913.2746
 Red. masses --     10.5503                11.9351                 1.0813
 Frc consts  --     19.4230                38.2106                 5.4073
 IR Inten    --    244.1977               188.2999               106.9588

                     43                     44                     45
                      A                      A                      A
 Frequencies --   2933.5916              2957.9793              2969.9272
 Red. masses --      1.0530                 1.1047                 1.0379
 Frc consts  --      5.3390                 5.6949                 5.3940
 IR Inten    --     41.4908                61.1783                73.8918

                     46                     47                     48
                      A                      A                      A
 Frequencies --   3012.7414              3012.7524              3041.2501
 Red. masses --      1.0583                 1.1032                 1.0998
 Frc consts  --      5.6595                 5.8996                 5.9931
 IR Inten    --     11.0472                59.0603                 4.7736

                     49                     50                     51
                      A                      A                      A
 Frequencies --   3061.4524              3108.3212              3117.4590
 Red. masses --      1.0589                 1.1055                 1.0956
 Frc consts  --      5.8476                 6.2932                 6.2736
 IR Inten    --     14.3388                21.0723                28.3838

 - Thermochemistry -
 -------------------
 Temperature   298.150 Kelvin.  Pressure   1.00000 Atm.
 Atom     1 has atomic number  6 and mass  12.00000

 Molecular mass:   126.06808 amu.
 Principal axes and moments of inertia in atomic units:
                           1         2         3
     Eigenvalues --   272.520504338.903524566.48369
           X            0.99999  -0.00414   0.00000
           Y            0.00414   0.99999  -0.00001
           Z            0.00000   0.00001   1.00000
 This molecule is an asymmetric top.
 Rotational symmetry number  1.
 Rotational temperatures (Kelvin)      0.31782     0.01996     0.01897
 Rotational constants (GHZ):           6.62241     0.41594     0.39521
 Zero-point vibrational energy     408516.8 (Joules/Mol)
                                   97.63785 (Kcal/Mol)
 Warning -- explicit consideration of  13 degrees of freedom as
           vibrations may cause significant error
 Vibrational temperatures:     12.77    70.58    72.06   136.55   171.86
          (Kelvin)            201.29   271.48   328.57   331.56   477.15
                              580.98   582.15   732.36   904.60  1079.20
                             1193.67  1239.84  1409.26  1471.43  1495.30
                             1538.91  1597.90  1665.39  1681.40  1698.07
                             1759.11  1760.69  1841.27  1864.43  1884.35
                             1968.52  2048.20  2056.88  2101.32  2131.07
                             2136.69  2152.94  2166.41  2204.58  2543.27
                             3353.88  4191.55  4220.78  4255.87  4273.06
                             4334.66  4334.67  4375.68  4404.74  4472.18
                             4485.32

 Zero-point correction=                           0.155596 (Hartree/Particle)
 Thermal correction to Energy=                    0.166653
 Thermal correction to Enthalpy=                  0.167597
 Thermal correction to Gibbs Free Energy=         0.115577
 Sum of electronic and zero-point Energies=           -422.994312
 Sum of electronic and thermal Energies=              -422.983254
 Sum of electronic and thermal Enthalpies=            -422.982310
 Sum of electronic and thermal Free Energies=         -423.034330

                     E (Thermal)             CV                S
                      KCal/Mol        Cal/Mol-Kelvin    Cal/Mol-Kelvin
 Total                  104.576             35.765            109.486
 Electronic               0.000              0.000              0.000
 Translational            0.889              2.981             40.409
 Rotational               0.889              2.981             30.069
 Vibrational            102.799             29.804             39.008
 Vibration     1          0.593              1.987              8.249
 Vibration     2          0.595              1.978              4.855
 Vibration     3          0.595              1.978              4.814
 Vibration     4          0.603              1.953              3.556
 Vibration     5          0.609              1.933              3.109
 Vibration     6          0.615              1.913              2.805
 Vibration     7          0.633              1.855              2.241
 Vibration     8          0.651              1.798              1.892
 Vibration     9          0.652              1.794              1.875
 Vibration    10          0.714              1.612              1.252
 Vibration    11          0.769              1.462              0.949
 Vibration    12          0.770              1.460              0.946
 Vibration    13          0.864              1.230              0.636

 Optimization completed.
    -- Stationary point found.
 Normal termination of Gaussian 09 at Tue Jan 28 14:56:37 2020.
