 Gaussian 09, Revision D.01,
 Gaussian 09:  ES64L-G09RevD.01 24-Apr-2013

 -----------------------------
 # b3lyp 6-31G(2df,p) opt Freq
 -----------------------------

 -----
 titel
 -----
 Symbolic Z-matrix:
 Charge =  0 Multiplicity = 1

 SCF Done:  E(RB3LYP) =  -423.210568962     A.U. after   14 cycles
 Optimization completed.
    -- Stationary point found.
 Normal termination of Gaussian 09 at Tue Jan 28 08:10:45 2020.

 ----------------------------------------------------------------------
 #N Geom=AllCheck Guess=TCheck SCRF=Check GenChk RB3LYP/6-31G(2df,p) Fr
 eq
 ----------------------------------------------------------------------

 Structure from the checkpoint file:  "/scratch/puck/g09_c882859a-44d6-447f-9aef-2d08560f818b/Gau-126971.chk"
 -----
 titel
 -----
 Charge =  0 Multiplicity = 1

                         Standard orientation:
 ---------------------------------------------------------------------
 Center     Atomic      Atomic             Coordinates (Angstroms)
 Number     Number       Type             X           Y           Z
 ---------------------------------------------------------------------
      1          6           0        2.153068   -1.086019   -0.614181
      2          6           0        0.970612   -0.654952    0.251870
      3          8           0       -0.149863   -1.404769   -0.166756
      4          6           0       -1.329152   -1.198451    0.585126
      5          6           0       -2.256299   -0.216447   -0.120531
      6          6           0       -1.670460    1.134378   -0.391381
      7          6           0       -0.409598    1.568852   -0.259263
      8          6           0        0.821758    0.879066    0.195950
      9          8           0        1.785118    1.550762    0.518676
     10          1           0        3.042625   -0.525730   -0.323697
     11          1           0        2.333249   -2.156216   -0.488694
     12          1           0        1.938097   -0.892999   -1.669480
     13          1           0        1.199021   -0.883585    1.306938
     14          1           0       -1.828013   -2.168893    0.687578
     15          1           0       -1.089145   -0.840450    1.597448
     16          1           0       -2.576067   -0.651246   -1.078848
     17          1           0       -3.178210   -0.094163    0.465599
     18          1           0       -2.397296    1.869158   -0.736217
     19          1           0       -0.205874    2.617614   -0.461520
 ---------------------------------------------------------------------

 SCF Done:  E(RB3LYP) =  -423.210568962     A.U. after    1 cycles

 The electronic state is 1-A.
 Alpha  occ. eigenvalues --  -19.14622 -19.12341 -10.26378 -10.23981 -10.23903
 Alpha  occ. eigenvalues --  -10.21449 -10.20267 -10.19328 -10.17570  -1.04622
 Alpha  occ. eigenvalues --   -1.03022  -0.81887  -0.78128  -0.73002  -0.66088
 Alpha  occ. eigenvalues --   -0.64263  -0.58504  -0.53427  -0.50220  -0.48395
 Alpha  occ. eigenvalues --   -0.47881  -0.44153  -0.42524  -0.42094  -0.41195
 Alpha  occ. eigenvalues --   -0.39557  -0.38094  -0.37146  -0.35436  -0.34519
 Alpha  occ. eigenvalues --   -0.32228  -0.27851  -0.27035  -0.23476
 Alpha virt. eigenvalues --   -0.05309   0.05859   0.08396   0.10245   0.12139
 Alpha virt. eigenvalues --    0.13206   0.14620   0.15212   0.15979   0.16842
 Alpha virt. eigenvalues --    0.18368   0.18651   0.19260   0.21231   0.22059

 Mulliken charges:
               1
     1  C   -0.397269
     2  C    0.023426
     3  O   -0.250926
     4  C   -0.095491
     5  C   -0.255744
     6  C   -0.035842
     7  C   -0.132567
     8  C    0.321113
     9  O   -0.334898
    10  H    0.143547
    11  H    0.121791
    12  H    0.125512
    13  H    0.095980
    14  H    0.109015
    15  H    0.099700
    16  H    0.132281
    17  H    0.113198
    18  H    0.107615
    19  H    0.109558
 Sum of Mulliken charges =   0.00000

 Dipole moment (field-independent basis, Debye):
    X=             -2.9731    Y=             -1.0041    Z=             -0.0396  Tot=              3.1383
 Quadrupole moment (field-independent basis, Debye-Ang):
   XX=            -51.3941   YY=            -56.0279   ZZ=            -52.9586
   XY=             -4.6049   XZ=             -1.4471   YZ=             -3.2747

  Exact polarizability: 103.394   3.813  77.883   4.006  -2.061  58.221
 Approx polarizability: 158.522  17.463 110.283  12.655   1.871  91.680

                      1                      2                      3
                      A                      A                      A
 Frequencies --     44.9170               133.7635               225.3831
 Red. masses --      3.8899                 2.7496                 1.1629
 Frc consts  --      0.0046                 0.0290                 0.0348
 IR Inten    --      3.5072                 1.0280                 0.5450

                      4                      5                      6
                      A                      A                      A
 Frequencies --    253.6642               272.0073               288.2550
 Red. masses --      2.5700                 3.8253                 2.5929
 Frc consts  --      0.0974                 0.1668                 0.1269
 IR Inten    --      4.7141                 4.4001                 4.3905

                      7                      8                      9
                      A                      A                      A
 Frequencies --    368.6027               382.9677               460.6932
 Red. masses --      2.8079                 4.0860                 3.6203
 Frc consts  --      0.2248                 0.3531                 0.4527
 IR Inten    --      2.3451                 4.4551                 1.8499

                     10                     11                     12
                      A                      A                      A
 Frequencies --    491.8078               564.5588               620.6930
 Red. masses --      5.5944                 2.2623                 2.7709
 Frc consts  --      0.7972                 0.4248                 0.6290
 IR Inten    --      9.1100                 7.4986                 2.2695

                     13                     14                     15
                      A                      A                      A
 Frequencies --    710.5330               761.7770               827.4884
 Red. masses --      2.4241                 3.2962                 2.0115
 Frc consts  --      0.7211                 1.1270                 0.8115
 IR Inten    --      9.0907                 0.6460                10.7770

                     16                     17                     18
                      A                      A                      A
 Frequencies --    844.7834               880.5547               944.2141
 Red. masses --      2.5802                 2.2353                 2.2101
 Frc consts  --      1.0849                 1.0212                 1.1609
 IR Inten    --      5.7528                14.4938                11.5123

                     19                     20                     21
                      A                      A                      A
 Frequencies --   1010.5631              1022.3301              1034.7876
 Red. masses --      1.8810                 1.8752                 1.2195
 Frc consts  --      1.1318                 1.1547                 0.7693
 IR Inten    --      4.3748                13.7519                 0.5646

                     22                     23                     24
                      A                      A                      A
 Frequencies --   1079.7145              1104.5849              1134.1864
 Red. masses --      2.1037                 2.1683                 2.1726
 Frc consts  --      1.4449                 1.5587                 1.6466
 IR Inten    --      4.9624                13.9463                22.2105

                     25                     26                     27
                      A                      A                      A
 Frequencies --   1157.2868              1209.7654              1253.1489
 Red. masses --      3.4960                 1.6576                 1.3256
 Frc consts  --      2.7587                 1.4293                 1.2265
 IR Inten    --     71.8766                53.9066                 3.9413

                     28                     29                     30
                      A                      A                      A
 Frequencies --   1284.5622              1305.2771              1326.9900
 Red. masses --      1.5274                 1.2814                 1.5954
 Frc consts  --      1.4850                 1.2863                 1.6553
 IR Inten    --     33.8434                33.6830                30.0095

                     31                     32                     33
                      A                      A                      A
 Frequencies --   1351.1198              1392.8363              1397.6373
 Red. masses --      1.1906                 1.3184                 1.5422
 Frc consts  --      1.2806                 1.5069                 1.7750
 IR Inten    --      9.5531                13.9465                 0.8539

                     34                     35                     36
                      A                      A                      A
 Frequencies --   1409.1285              1428.2030              1450.0830
 Red. masses --      1.3566                 1.4008                 1.0989
 Frc consts  --      1.5871                 1.6835                 1.3614
 IR Inten    --     15.9341                 0.3087                 8.5475

                     37                     38                     39
                      A                      A                      A
 Frequencies --   1487.9854              1497.0961              1503.5551
 Red. masses --      1.0482                 1.0571                 1.0880
 Frc consts  --      1.3673                 1.3959                 1.4492
 IR Inten    --      7.8861                 0.7431                 3.8382

                     40                     41                     42
                      A                      A                      A
 Frequencies --   1696.4692              1745.2278              2959.5257
 Red. masses --      7.1549                11.6069                 1.0810
 Frc consts  --     12.1324                20.8291                 5.5785
 IR Inten    --     40.9668               153.0391                24.3220

                     43                     44                     45
                      A                      A                      A
 Frequencies --   2994.8993              3006.6995              3036.0711
 Red. masses --      1.0657                 1.0606                 1.0966
 Frc consts  --      5.6317                 5.6493                 5.9554
 IR Inten    --     36.5544                12.8052                27.3476

                     46                     47                     48
                      A                      A                      A
 Frequencies --   3052.3888              3062.3126              3124.6379
 Red. masses --      1.0354                 1.0998                 1.1017
 Frc consts  --      5.6837                 6.0769                 6.3376
 IR Inten    --     16.2002                41.7838                19.2103

                     49                     50                     51
                      A                      A                      A
 Frequencies --   3131.6189              3154.7347              3166.1041
 Red. masses --      1.0850                 1.1017                 1.0917
 Frc consts  --      6.2695                 6.4604                 6.4480
 IR Inten    --     11.3613                 6.1037                12.0242

 - Thermochemistry -
 -------------------
 Temperature   298.150 Kelvin.  Pressure   1.00000 Atm.
 Atom     1 has atomic number  6 and mass  12.00000

 Molecular mass:   126.06808 amu.
 Principal axes and moments of inertia in atomic units:
                           1         2         3
     Eigenvalues --   753.750791140.488221698.61864
           X            0.99750  -0.06940  -0.01302
           Y            0.06914   0.99742  -0.01946
           Z            0.01434   0.01852   0.99973
 This molecule is an asymmetric top.
 Rotational symmetry number  1.
 Warning -- assumption of classical behavior for rotation
           may cause significant error
 Rotational temperatures (Kelvin)      0.11491     0.07594     0.05099
 Rotational constants (GHZ):           2.39435     1.58243     1.06248
 Zero-point vibrational energy     418981.2 (Joules/Mol)
                                  100.13892 (Kcal/Mol)
 Warning -- explicit consideration of  12 degrees of freedom as
           vibrations may cause significant error
 Vibrational temperatures:     64.63   192.46   324.28   364.97   391.36
          (Kelvin)            414.73   530.34   551.00   662.83   707.60
                              812.27   893.04  1022.30  1096.03  1190.57
                             1215.45  1266.92  1358.51  1453.97  1470.90
                             1488.83  1553.47  1589.25  1631.84  1665.08
                             1740.58  1803.00  1848.20  1878.00  1909.24
                             1943.96  2003.98  2010.89  2027.42  2054.86
                             2086.34  2140.88  2153.98  2163.28  2440.84
                             2510.99  4258.09  4308.99  4325.96  4368.22
                             4391.70  4405.98  4495.65  4505.70  4538.95
                             4555.31

 Zero-point correction=                           0.159582 (Hartree/Particle)
 Thermal correction to Energy=                    0.168068
 Thermal correction to Enthalpy=                  0.169012
 Thermal correction to Gibbs Free Energy=         0.126141
 Sum of electronic and zero-point Energies=           -423.050987
 Sum of electronic and thermal Energies=              -423.042501
 Sum of electronic and thermal Enthalpies=            -423.041557
 Sum of electronic and thermal Free Energies=         -423.084427

                     E (Thermal)             CV                S
                      KCal/Mol        Cal/Mol-Kelvin    Cal/Mol-Kelvin
 Total                  105.464             32.119             90.229
 Electronic               0.000              0.000              0.000
 Translational            0.889              2.981             40.409
 Rotational               0.889              2.981             28.770
 Vibrational            103.687             26.157             21.051
 Vibration     1          0.595              1.979              5.030
 Vibration     2          0.613              1.920              2.891
 Vibration     3          0.650              1.802              1.915
 Vibration     4          0.665              1.757              1.705
 Vibration     5          0.675              1.725              1.583
 Vibration     6          0.685              1.696              1.484
 Vibration     7          0.741              1.537              1.086
 Vibration     8          0.752              1.507              1.027
 Vibration     9          0.819              1.337              0.764
 Vibration    10          0.848              1.268              0.679
 Vibration    11          0.920              1.108              0.515
 Vibration    12          0.981              0.988              0.415

 Optimization completed.
    -- Stationary point found.
 Normal termination of Gaussian 09 at Tue Jan 28 08:56:18 2020.
