 Gaussian 09, Revision D.01,
 Gaussian 09:  ES64L-G09RevD.01 24-Apr-2013

 -----------------------------
 # b3lyp 6-31G(2df,p) opt Freq
 -----------------------------

 -----
 titel
 -----
 Symbolic Z-matrix:
 Charge =  0 Multiplicity = 1

 SCF Done:  E(RB3LYP) =  -423.126337761     A.U. after   13 cycles
 Optimization completed.
    -- Stationary point found.
 Normal termination of Gaussian 09 at Tue Jan 28 09:47:16 2020.

 ----------------------------------------------------------------------
 #N Geom=AllCheck Guess=TCheck SCRF=Check GenChk RB3LYP/6-31G(2df,p) Fr
 eq
 ----------------------------------------------------------------------

 Structure from the checkpoint file:  "/scratch/puck/g09_0f71eb4a-6577-4579-817e-3facc3891748/Gau-83879.chk"
 -----
 titel
 -----
 Charge =  0 Multiplicity = 1

                         Standard orientation:
 ---------------------------------------------------------------------
 Center     Atomic      Atomic             Coordinates (Angstroms)
 Number     Number       Type             X           Y           Z
 ---------------------------------------------------------------------
      1          8           0       -2.682776   -0.901836    0.249394
      2          6           0       -1.711514   -0.436116   -0.680116
      3          6           0       -0.567002    0.265179   -0.011058
      4          6           0       -0.625102    1.729677    0.356764
      5          6           0        0.455624    1.265906   -0.580442
      6          6           0        1.562905    0.609943    0.228229
      7          8           0        2.232932   -0.446063   -0.482734
      8          6           0        1.358886   -1.449356    0.079296
      9          6           0        0.523797   -0.398291    0.832754
     10          1           0       -2.966898   -0.142651    0.769602
     11          1           0       -1.366479   -1.331431   -1.208792
     12          1           0       -2.159889    0.230955   -1.434507
     13          1           0       -1.424216    2.296800   -0.111721
     14          1           0       -0.379284    2.060674    1.363581
     15          1           0        0.554968    1.639778   -1.592561
     16          1           0        2.260056    1.238604    0.790083
     17          1           0        0.843180   -2.036189   -0.690552
     18          1           0        1.912451   -2.133832    0.734001
     19          1           0        0.339292   -0.561177    1.895020
 ---------------------------------------------------------------------

 SCF Done:  E(RB3LYP) =  -423.126337761     A.U. after    1 cycles

 The electronic state is 1-A.
 Alpha  occ. eigenvalues --  -19.13524 -19.13109 -10.23781 -10.23129 -10.22985
 Alpha  occ. eigenvalues --  -10.20401 -10.19770 -10.19744 -10.19604  -1.04082
 Alpha  occ. eigenvalues --   -1.01595  -0.89553  -0.73418  -0.71436  -0.68074
 Alpha  occ. eigenvalues --   -0.60615  -0.58734  -0.52519  -0.51479  -0.49732
 Alpha  occ. eigenvalues --   -0.48846  -0.46714  -0.43471  -0.43030  -0.41441
 Alpha  occ. eigenvalues --   -0.38625  -0.36217  -0.35041  -0.33557  -0.30489
 Alpha  occ. eigenvalues --   -0.29056  -0.27979  -0.25786  -0.24494
 Alpha virt. eigenvalues --    0.06474   0.08618   0.10172   0.10336   0.11096
 Alpha virt. eigenvalues --    0.12309   0.13121   0.14118   0.15768   0.17376
 Alpha virt. eigenvalues --    0.17885   0.18491   0.19969   0.20608   0.21634

 Mulliken charges:
               1
     1  O   -0.413964
     2  C   -0.183424
     3  C    0.346757
     4  C   -0.357318
     5  C   -0.139341
     6  C    0.124807
     7  O   -0.294759
     8  C   -0.088590
     9  C   -0.161330
    10  H    0.281527
    11  H    0.113034
    12  H    0.086968
    13  H    0.115075
    14  H    0.110070
    15  H    0.098846
    16  H    0.078167
    17  H    0.103531
    18  H    0.102991
    19  H    0.076952
 Sum of Mulliken charges =   0.00000

 Dipole moment (field-independent basis, Debye):
    X=             -0.8826    Y=              1.5177    Z=              0.8582  Tot=              1.9542
 Quadrupole moment (field-independent basis, Debye-Ang):
   XX=            -59.4631   YY=            -52.3168   ZZ=            -51.3765
   XY=             -4.3973   XZ=              2.1246   YZ=              0.2194

  Exact polarizability:  79.000  -2.739  78.959   0.944   0.299  65.879
 Approx polarizability: 110.271   0.015 115.646  -4.352  -0.233 102.114

                      1                      2                      3
                      A                      A                      A
 Frequencies --     78.0289               127.2762               214.2703
 Red. masses --      4.1689                 3.8730                 3.6928
 Frc consts  --      0.0150                 0.0370                 0.0999
 IR Inten    --      2.6417                 2.8619                 1.0933

                      4                      5                      6
                      A                      A                      A
 Frequencies --    232.3028               319.2703               348.2009
 Red. masses --      2.0444                 1.3526                 2.2753
 Frc consts  --      0.0650                 0.0812                 0.1625
 IR Inten    --      5.2689                81.5589                 3.0496

                      7                      8                      9
                      A                      A                      A
 Frequencies --    405.0099               442.2386               497.7875
 Red. masses --      2.3681                 2.8994                 3.5054
 Frc consts  --      0.2289                 0.3341                 0.5118
 IR Inten    --     34.1983                 3.2251                 0.1444

                     10                     11                     12
                      A                      A                      A
 Frequencies --    648.7869               720.4618               814.9202
 Red. masses --      3.9591                 2.7923                 1.8398
 Frc consts  --      0.9819                 0.8540                 0.7199
 IR Inten    --      1.7034                 4.3134                 9.4770

                     13                     14                     15
                      A                      A                      A
 Frequencies --    837.7631               869.0165               906.8862
 Red. masses --      2.0475                 2.1807                 3.5457
 Frc consts  --      0.8467                 0.9703                 1.7181
 IR Inten    --      8.4340                 4.7450                 7.2304

                     16                     17                     18
                      A                      A                      A
 Frequencies --    910.0720               959.5369               988.5150
 Red. masses --      2.3402                 1.6353                 1.8595
 Frc consts  --      1.1420                 0.8871                 1.0706
 IR Inten    --      4.2952                22.3419                26.1204

                     19                     20                     21
                      A                      A                      A
 Frequencies --   1007.5993              1023.2633              1026.9994
 Red. masses --      2.4676                 1.5373                 2.6792
 Frc consts  --      1.4760                 0.9484                 1.6649
 IR Inten    --     31.8939                 6.3835                11.9810

                     22                     23                     24
                      A                      A                      A
 Frequencies --   1040.7623              1052.2484              1080.3161
 Red. masses --      2.1674                 2.9477                 2.3315
 Frc consts  --      1.3832                 1.9229                 1.6032
 IR Inten    --     36.7834                75.1967                 9.6497

                     25                     26                     27
                      A                      A                      A
 Frequencies --   1086.7309              1092.1527              1158.0789
 Red. masses --      1.5180                 2.3337                 1.3096
 Frc consts  --      1.0562                 1.6400                 1.0348
 IR Inten    --      1.8016                20.8137                 2.1984

                     28                     29                     30
                      A                      A                      A
 Frequencies --   1179.0912              1185.3682              1219.3127
 Red. masses --      1.4230                 1.6594                 1.5066
 Frc consts  --      1.1656                 1.3738                 1.3197
 IR Inten    --     11.5343                 4.7324                 4.0554

                     31                     32                     33
                      A                      A                      A
 Frequencies --   1253.2953              1281.6132              1305.1631
 Red. masses --      1.4810                 1.6977                 1.3695
 Frc consts  --      1.3706                 1.6429                 1.3745
 IR Inten    --     12.1209                 0.5328                18.5652

                     34                     35                     36
                      A                      A                      A
 Frequencies --   1325.5683              1364.0757              1365.3057
 Red. masses --      2.1262                 1.6077                 1.5719
 Frc consts  --      2.2012                 1.7625                 1.7264
 IR Inten    --      4.9264                 8.5585                 2.1629

                     37                     38                     39
                      A                      A                      A
 Frequencies --   1383.7345              1429.4892              1490.0594
 Red. masses --      1.6908                 1.3855                 1.2878
 Frc consts  --      1.9074                 1.6681                 1.6846
 IR Inten    --      3.3659                57.0098                 2.7697

                     40                     41                     42
                      A                      A                      A
 Frequencies --   1502.4544              1524.5902              2971.1172
 Red. masses --      1.0978                 1.0983                 1.0711
 Frc consts  --      1.4601                 1.5041                 5.5711
 IR Inten    --      2.4494                 1.7145                55.7413

                     43                     44                     45
                      A                      A                      A
 Frequencies --   3014.5540              3055.2820              3063.3632
 Red. masses --      1.0554                 1.1089                 1.0877
 Frc consts  --      5.6510                 6.0991                 6.0136
 IR Inten    --     70.9719                34.5464                65.3597

                     46                     47                     48
                      A                      A                      A
 Frequencies --   3065.7881              3102.9455              3104.6763
 Red. masses --      1.0915                 1.0650                 1.0807
 Frc consts  --      6.0445                 6.0418                 6.1375
 IR Inten    --     27.5280                15.8955                43.8082

                     49                     50                     51
                      A                      A                      A
 Frequencies --   3184.9561              3194.1857              3807.1157
 Red. masses --      1.1007                 1.1056                 1.0660
 Frc consts  --      6.5783                 6.6463                 9.1029
 IR Inten    --      5.7490                15.2869                13.2469

 - Thermochemistry -
 -------------------
 Temperature   298.150 Kelvin.  Pressure   1.00000 Atm.
 Atom     1 has atomic number  8 and mass  15.99491

 Molecular mass:   126.06808 amu.
 Principal axes and moments of inertia in atomic units:
                           1         2         3
     Eigenvalues --   604.779511293.526481622.28204
           X            0.99960  -0.02389   0.01539
           Y            0.02376   0.99968   0.00860
           Z           -0.01559  -0.00824   0.99984
 This molecule is an asymmetric top.
 Rotational symmetry number  1.
 Warning -- assumption of classical behavior for rotation
           may cause significant error
 Rotational temperatures (Kelvin)      0.14322     0.06696     0.05339
 Rotational constants (GHZ):           2.98413     1.39521     1.11247
 Zero-point vibrational energy     420257.7 (Joules/Mol)
                                  100.44400 (Kcal/Mol)
 Warning -- explicit consideration of   9 degrees of freedom as
           vibrations may cause significant error
 Vibrational temperatures:    112.27   183.12   308.29   334.23   459.36
          (Kelvin)            500.98   582.72   636.28   716.20   933.46
                             1036.58  1172.49  1205.35  1250.32  1304.81
                             1309.39  1380.56  1422.25  1449.71  1472.25
                             1477.62  1497.42  1513.95  1554.33  1563.56
                             1571.36  1666.22  1696.45  1705.48  1754.32
                             1803.21  1843.95  1877.84  1907.19  1962.60
                             1964.37  1990.88  2056.71  2143.86  2161.69
                             2193.54  4274.77  4337.27  4395.86  4407.49
                             4410.98  4464.44  4466.93  4582.44  4595.72
                             5477.58

 Zero-point correction=                           0.160068 (Hartree/Particle)
 Thermal correction to Energy=                    0.168009
 Thermal correction to Enthalpy=                  0.168953
 Thermal correction to Gibbs Free Energy=         0.127412
 Sum of electronic and zero-point Energies=           -422.966270
 Sum of electronic and thermal Energies=              -422.958329
 Sum of electronic and thermal Enthalpies=            -422.957385
 Sum of electronic and thermal Free Energies=         -422.998925

                     E (Thermal)             CV                S
                      KCal/Mol        Cal/Mol-Kelvin    Cal/Mol-Kelvin
 Total                  105.427             30.785             87.430
 Electronic               0.000              0.000              0.000
 Translational            0.889              2.981             40.409
 Rotational               0.889              2.981             28.630
 Vibrational            103.650             24.824             18.391
 Vibration     1          0.599              1.964              3.940
 Vibration     2          0.611              1.926              2.987
 Vibration     3          0.644              1.819              2.007
 Vibration     4          0.653              1.792              1.861
 Vibration     5          0.705              1.637              1.314
 Vibration     6          0.726              1.579              1.174
 Vibration     7          0.770              1.459              0.944
 Vibration     8          0.802              1.378              0.820
 Vibration     9          0.853              1.255              0.664

 Optimization completed.
    -- Stationary point found.
 Normal termination of Gaussian 09 at Tue Jan 28 10:49:54 2020.
