 Gaussian 09, Revision D.01,
 Gaussian 09:  ES64L-G09RevD.01 24-Apr-2013

 -----------------------------
 # b3lyp 6-31G(2df,p) opt Freq
 -----------------------------

 -----
 titel
 -----
 Symbolic Z-matrix:
 Charge =  0 Multiplicity = 1

 SCF Done:  E(RB3LYP) =  -423.178391988     A.U. after   14 cycles
 Optimization completed.
    -- Stationary point found.
 Normal termination of Gaussian 09 at Mon Jan 27 15:35:19 2020.

 ----------------------------------------------------------------------
 #N Geom=AllCheck Guess=TCheck SCRF=Check GenChk RB3LYP/6-31G(2df,p) Fr
 eq
 ----------------------------------------------------------------------

 Structure from the checkpoint file:  "/scratch/puck/g09_e225cbbe-12c7-4e1a-a058-a8d6c54a85d6/Gau-45569.chk"
 -----
 titel
 -----
 Charge =  0 Multiplicity = 1

                         Standard orientation:
 ---------------------------------------------------------------------
 Center     Atomic      Atomic             Coordinates (Angstroms)
 Number     Number       Type             X           Y           Z
 ---------------------------------------------------------------------
      1          6           0       -3.726085   -0.151058    0.182557
      2          6           0       -2.240611    0.139596    0.340637
      3          8           0       -1.972550    1.347561   -0.347868
      4          6           0       -1.373452   -1.016607   -0.217445
      5          6           0        0.049353   -0.720988   -0.137550
      6          6           0        1.220526   -0.431858   -0.058259
      7          6           0        2.638649   -0.129773    0.031344
      8          6           0        2.990860    1.342609    0.099870
      9          8           0        3.473625   -1.008457    0.048892
     10          1           0       -4.312849    0.682259    0.576618
     11          1           0       -3.978924   -0.276483   -0.875046
     12          1           0       -4.006071   -1.060638    0.722052
     13          1           0       -2.003152    0.247934    1.411481
     14          1           0       -1.023099    1.507992   -0.293714
     15          1           0       -1.592969   -1.945396    0.323439
     16          1           0       -1.646331   -1.183299   -1.267635
     17          1           0        4.073556    1.456825    0.168748
     18          1           0        2.616065    1.860999   -0.789554
     19          1           0        2.509738    1.805451    0.968488
 ---------------------------------------------------------------------

 SCF Done:  E(RB3LYP) =  -423.178391988     A.U. after    1 cycles

 The electronic state is 1-A.
 Alpha  occ. eigenvalues --  -19.14115 -19.13597 -10.29170 -10.24927 -10.22087
 Alpha  occ. eigenvalues --  -10.21107 -10.19591 -10.19368 -10.18401  -1.04650
 Alpha  occ. eigenvalues --   -1.02715  -0.81525  -0.77671  -0.74906  -0.71002
 Alpha  occ. eigenvalues --   -0.62110  -0.59973  -0.52595  -0.49976  -0.48106
 Alpha  occ. eigenvalues --   -0.47078  -0.45023  -0.44072  -0.42660  -0.40493
 Alpha  occ. eigenvalues --   -0.39656  -0.39220  -0.37626  -0.37048  -0.33875
 Alpha  occ. eigenvalues --   -0.29394  -0.28500  -0.27139  -0.25959
 Alpha virt. eigenvalues --   -0.05184   0.02875   0.07456   0.08591   0.09899
 Alpha virt. eigenvalues --    0.11899   0.13230   0.14072   0.15082   0.15932
 Alpha virt. eigenvalues --    0.16671   0.17670   0.18664   0.19196   0.21563

 Mulliken charges:
               1
     1  C   -0.384899
     2  C    0.141838
     3  O   -0.430059
     4  C   -0.358452
     5  C   -0.039424
     6  C    0.123914
     7  C    0.247339
     8  C   -0.480213
     9  O   -0.274288
    10  H    0.130503
    11  H    0.126230
    12  H    0.115831
    13  H    0.077196
    14  H    0.284042
    15  H    0.138576
    16  H    0.146020
    17  H    0.145690
    18  H    0.145641
    19  H    0.144514
 Sum of Mulliken charges =   0.00000

 Dipole moment (field-independent basis, Debye):
    X=             -2.0076    Y=              1.0023    Z=              0.5049  Tot=              2.3000
 Quadrupole moment (field-independent basis, Debye-Ang):
   XX=            -60.1954   YY=            -54.7437   ZZ=            -52.5057
   XY=             12.7357   XZ=             -1.4748   YZ=              0.8996

  Exact polarizability: 123.810   5.915  71.978   1.218   0.175  56.831
 Approx polarizability: 174.128   3.043 106.795   4.627  -1.074  86.401

                      1                      2                      3
                      A                      A                      A
 Frequencies --     14.8913                55.5609                66.1281
 Red. masses --      3.9965                 4.3242                 3.4525
 Frc consts  --      0.0005                 0.0079                 0.0089
 IR Inten    --      5.7638                 2.0365                 0.3303

                      4                      5                      6
                      A                      A                      A
 Frequencies --    124.8085               139.2142               179.2387
 Red. masses --      1.0652                 4.8454                 4.0438
 Frc consts  --      0.0098                 0.0553                 0.0765
 IR Inten    --      0.1274                 3.2892                 0.9388

                      7                      8                      9
                      A                      A                      A
 Frequencies --    221.8410               291.2847               347.6941
 Red. masses --      1.0503                 3.2200                 4.9956
 Frc consts  --      0.0305                 0.1610                 0.3558
 IR Inten    --      1.0895                 0.2923                 1.7193

                     10                     11                     12
                      A                      A                      A
 Frequencies --    379.6297               390.4937               415.8657
 Red. masses --      1.3195                 1.9364                 3.2102
 Frc consts  --      0.1120                 0.1740                 0.3271
 IR Inten    --     69.0161                36.3604                11.1358

                     13                     14                     15
                      A                      A                      A
 Frequencies --    467.6080               539.6389               592.4539
 Red. masses --      2.4374                 3.8915                 6.4807
 Frc consts  --      0.3140                 0.6677                 1.3402
 IR Inten    --      6.6838                 6.5239                 6.1728

                     16                     17                     18
                      A                      A                      A
 Frequencies --    603.4822               693.8601               831.1662
 Red. masses --      2.7685                 3.9296                 2.6412
 Frc consts  --      0.5940                 1.1147                 1.0750
 IR Inten    --      2.9610                21.8180                 4.9250

                     19                     20                     21
                      A                      A                      A
 Frequencies --    900.3126               936.8296               961.7697
 Red. masses --      1.5489                 2.1630                 2.3512
 Frc consts  --      0.7397                 1.1185                 1.2814
 IR Inten    --      1.2408                18.8641                35.1302

                     22                     23                     24
                      A                      A                      A
 Frequencies --   1042.4001              1043.7200              1061.5865
 Red. masses --      1.8417                 2.4399                 2.1347
 Frc consts  --      1.1791                 1.5660                 1.4174
 IR Inten    --      5.5043                14.5646                35.5266

                     25                     26                     27
                      A                      A                      A
 Frequencies --   1099.8877              1154.1775              1235.1476
 Red. masses --      1.7078                 2.4480                 1.2509
 Frc consts  --      1.2173                 1.9214                 1.1244
 IR Inten    --      4.4643                26.6396                13.3247

                     28                     29                     30
                      A                      A                      A
 Frequencies --   1245.2328              1293.2065              1301.9970
 Red. masses --      3.5163                 1.1845                 1.4365
 Frc consts  --      3.2125                 1.1671                 1.4347
 IR Inten    --    168.6164                62.7387                28.2181

                     31                     32                     33
                      A                      A                      A
 Frequencies --   1380.2002              1381.6430              1401.5968
 Red. masses --      1.2357                 1.3071                 1.2351
 Frc consts  --      1.3869                 1.4701                 1.4296
 IR Inten    --     12.9210                47.7331                 4.8799

                     34                     35                     36
                      A                      A                      A
 Frequencies --   1441.7279              1450.2566              1461.3953
 Red. masses --      1.4848                 1.1499                 1.0548
 Frc consts  --      1.8184                 1.4250                 1.3273
 IR Inten    --     20.2320                13.7034                14.1448

                     37                     38                     39
                      A                      A                      A
 Frequencies --   1469.9483              1483.7535              1498.7161
 Red. masses --      1.0476                 1.0524                 1.0507
 Frc consts  --      1.3336                 1.3650                 1.3905
 IR Inten    --      7.8298                 4.0137                 2.2115

                     40                     41                     42
                      A                      A                      A
 Frequencies --   1769.2045              2321.2921              2968.4352
 Red. masses --     11.0992                11.9382                 1.0829
 Frc consts  --     20.4691                37.9010                 5.6221
 IR Inten    --    214.8294               137.9382                44.1029

                     43                     44                     45
                      A                      A                      A
 Frequencies --   3024.4974              3037.7275              3043.7792
 Red. masses --      1.0581                 1.0359                 1.0355
 Frc consts  --      5.7029                 5.6320                 5.6525
 IR Inten    --      9.1252                 1.7804                17.1416

                     46                     47                     48
                      A                      A                      A
 Frequencies --   3065.8318              3101.4736              3116.7744
 Red. masses --      1.1016                 1.0987                 1.1017
 Frc consts  --      6.1006                 6.2270                 6.3056
 IR Inten    --      7.9916                 5.9739                24.5442

                     49                     50                     51
                      A                      A                      A
 Frequencies --   3127.3932              3151.9002              3788.6148
 Red. masses --      1.1017                 1.1025                 1.0656
 Frc consts  --      6.3488                 6.4533                 9.0113
 IR Inten    --     16.7231                10.0928                25.5360

 - Thermochemistry -
 -------------------
 Temperature   298.150 Kelvin.  Pressure   1.00000 Atm.
 Atom     1 has atomic number  6 and mass  12.00000

 Molecular mass:   126.06808 amu.
 Principal axes and moments of inertia in atomic units:
                           1         2         3
     Eigenvalues --   420.717932915.497373252.20925
           X            0.99957   0.02914  -0.00203
           Y           -0.02911   0.99950   0.01204
           Z            0.00238  -0.01197   0.99993
 This molecule is an asymmetric top.
 Rotational symmetry number  1.
 Rotational temperatures (Kelvin)      0.20587     0.02971     0.02663
 Rotational constants (GHZ):           4.28967     0.61902     0.55493
 Zero-point vibrational energy     407431.9 (Joules/Mol)
                                   97.37855 (Kcal/Mol)
 Warning -- explicit consideration of  16 degrees of freedom as
           vibrations may cause significant error
 Vibrational temperatures:     21.43    79.94    95.14   179.57   200.30
          (Kelvin)            257.88   319.18   419.09   500.25   546.20
                              561.83   598.34   672.78   776.42   852.41
                              868.28   998.31  1195.86  1295.35  1347.89
                             1383.77  1499.78  1501.68  1527.38  1582.49
                             1660.60  1777.10  1791.61  1860.63  1873.28
                             1985.80  1987.87  2016.58  2074.32  2086.59
                             2102.62  2114.93  2134.79  2156.32  2545.49
                             3339.82  4270.91  4351.57  4370.61  4379.31
                             4411.04  4462.32  4484.34  4499.62  4534.88
                             5450.96

 Zero-point correction=                           0.155183 (Hartree/Particle)
 Thermal correction to Energy=                    0.166103
 Thermal correction to Enthalpy=                  0.167047
 Thermal correction to Gibbs Free Energy=         0.116839
 Sum of electronic and zero-point Energies=           -423.023209
 Sum of electronic and thermal Energies=              -423.012289
 Sum of electronic and thermal Enthalpies=            -423.011345
 Sum of electronic and thermal Free Energies=         -423.061553

                     E (Thermal)             CV                S
                      KCal/Mol        Cal/Mol-Kelvin    Cal/Mol-Kelvin
 Total                  104.231             37.515            105.672
 Electronic               0.000              0.000              0.000
 Translational            0.889              2.981             40.409
 Rotational               0.889              2.981             29.768
 Vibrational            102.454             31.554             35.495
 Vibration     1          0.593              1.986              7.220
 Vibration     2          0.596              1.975              4.609
 Vibration     3          0.598              1.970              4.265
 Vibration     4          0.610              1.928              3.025
 Vibration     5          0.615              1.914              2.815
 Vibration     6          0.629              1.868              2.336
 Vibration     7          0.648              1.808              1.944
 Vibration     8          0.687              1.690              1.466
 Vibration     9          0.725              1.580              1.177
 Vibration    10          0.750              1.514              1.041
 Vibration    11          0.758              1.490              0.998
 Vibration    12          0.779              1.436              0.906
 Vibration    13          0.825              1.322              0.744
 Vibration    14          0.895              1.162              0.566
 Vibration    15          0.950              1.048              0.463
 Vibration    16          0.962              1.024              0.444

 Normal termination of Gaussian 09 at Mon Jan 27 16:07:12 2020.
