 Gaussian 09, Revision D.01,
 Gaussian 09:  ES64L-G09RevD.01 24-Apr-2013

 -----------------------------
 # b3lyp 6-31G(2df,p) opt Freq
 -----------------------------

 -----
 titel
 -----
 Symbolic Z-matrix:
 Charge =  0 Multiplicity = 1

 SCF Done:  E(RB3LYP) =  -423.111763414     A.U. after   12 cycles
 Optimization completed.
    -- Stationary point found.
 Normal termination of Gaussian 09 at Mon Jan 27 16:30:33 2020.

 ----------------------------------------------------------------------
 #N Geom=AllCheck Guess=TCheck SCRF=Check GenChk RB3LYP/6-31G(2df,p) Fr
 eq
 ----------------------------------------------------------------------

 Structure from the checkpoint file:  "/scratch/puck/g09_1807cd0f-6b9c-46fb-b838-e786b4aced05/Gau-12340.chk"
 -----
 titel
 -----
 Charge =  0 Multiplicity = 1

                         Standard orientation:
 ---------------------------------------------------------------------
 Center     Atomic      Atomic             Coordinates (Angstroms)
 Number     Number       Type             X           Y           Z
 ---------------------------------------------------------------------
      1          8           0        0.592957    1.790339    0.266553
      2          6           0        0.019279    0.530029    0.024081
      3          6           0        0.977982   -0.599384   -0.207507
      4          6           0        2.389651   -0.332188   -0.674638
      5          6           0        2.137599   -0.828723    0.727264
      6          6           0       -1.255302    0.408629    0.841829
      7          6           0       -1.936620   -0.921576    0.559868
      8          8           0       -1.869222   -0.697020   -0.879655
      9          6           0       -1.321354    0.605349   -0.661264
     10          1           0        0.952092    2.112605   -0.567835
     11          1           0        0.503515   -1.478077   -0.629331
     12          1           0        2.820535   -1.010833   -1.402169
     13          1           0        2.715501    0.697010   -0.777095
     14          1           0        2.407720   -1.848811    0.976662
     15          1           0        2.272474   -0.113067    1.531031
     16          1           0       -1.466888    1.093029    1.651537
     17          1           0       -1.422310   -1.840155    0.863940
     18          1           0       -2.981232   -0.955527    0.888287
     19          1           0       -1.658689    1.424465   -1.288003
 ---------------------------------------------------------------------

 SCF Done:  E(RB3LYP) =  -423.111763414     A.U. after    1 cycles

 The electronic state is 1-A.
 Alpha  occ. eigenvalues --  -19.15182 -19.14082 -10.24333 -10.23631 -10.23585
 Alpha  occ. eigenvalues --  -10.19236 -10.18822 -10.18450 -10.18056  -1.05727
 Alpha  occ. eigenvalues --   -1.03130  -0.85311  -0.81714  -0.70089  -0.64046
 Alpha  occ. eigenvalues --   -0.59771  -0.57300  -0.54755  -0.53046  -0.50585
 Alpha  occ. eigenvalues --   -0.47812  -0.46364  -0.45002  -0.41788  -0.40536
 Alpha  occ. eigenvalues --   -0.37859  -0.36121  -0.33997  -0.32957  -0.31002
 Alpha  occ. eigenvalues --   -0.29898  -0.28800  -0.25912  -0.22444
 Alpha virt. eigenvalues --    0.06468   0.07973   0.10069   0.11074   0.12412
 Alpha virt. eigenvalues --    0.13381   0.13735   0.14601   0.16341   0.17507
 Alpha virt. eigenvalues --    0.18608   0.19074   0.21088   0.22006   0.22953

 Mulliken charges:
               1
     1  O   -0.468216
     2  C    0.340210
     3  C   -0.042362
     4  C   -0.286700
     5  C   -0.266232
     6  C   -0.160559
     7  C   -0.109718
     8  O   -0.286080
     9  C    0.009600
    10  H    0.287731
    11  H    0.104793
    12  H    0.112532
    13  H    0.100668
    14  H    0.108705
    15  H    0.122265
    16  H    0.106648
    17  H    0.110475
    18  H    0.113537
    19  H    0.102703
 Sum of Mulliken charges =   0.00000

 Dipole moment (field-independent basis, Debye):
    X=              0.3521    Y=              0.3687    Z=              0.0633  Tot=              0.5138
 Quadrupole moment (field-independent basis, Debye-Ang):
   XX=            -53.4564   YY=            -51.1559   ZZ=            -53.0942
   XY=             -0.9285   XZ=             -4.6327   YZ=             -4.6269

  Exact polarizability:  86.394   0.985  71.761  -3.326  -4.153  67.661
 Approx polarizability: 112.155   4.576 105.691  -1.882  -4.404 108.634

                      1                      2                      3
                      A                      A                      A
 Frequencies --     47.3922               166.0863               182.0362
 Red. masses --      2.6987                 3.8183                 2.8777
 Frc consts  --      0.0036                 0.0621                 0.0562
 IR Inten    --      0.1737                 0.9799                 0.1462

                      4                      5                      6
                      A                      A                      A
 Frequencies --    262.9216               296.8230               329.9907
 Red. masses --      4.3311                 3.0795                 1.7281
 Frc consts  --      0.1764                 0.1599                 0.1109
 IR Inten    --      2.9405                 9.3420                63.9743

                      7                      8                      9
                      A                      A                      A
 Frequencies --    375.6903               445.1754               507.3849
 Red. masses --      1.4989                 4.4552                 3.6814
 Frc consts  --      0.1246                 0.5202                 0.5584
 IR Inten    --     47.6261                19.9955                 1.5782

                     10                     11                     12
                      A                      A                      A
 Frequencies --    557.0051               666.6170               764.0886
 Red. masses --      3.2175                 2.4914                 2.8248
 Frc consts  --      0.5881                 0.6523                 0.9717
 IR Inten    --      3.8122                 1.1728                 7.9207

                     13                     14                     15
                      A                      A                      A
 Frequencies --    787.9396               821.2906               837.0502
 Red. masses --      1.0876                 1.3627                 1.4575
 Frc consts  --      0.3978                 0.5416                 0.6017
 IR Inten    --      1.2163                 5.9403                 6.6304

                     16                     17                     18
                      A                      A                      A
 Frequencies --    912.0072               916.0435               933.0888
 Red. masses --      3.5971                 2.8496                 3.2715
 Frc consts  --      1.7628                 1.4089                 1.6782
 IR Inten    --      6.7012                10.4685                 4.3142

                     19                     20                     21
                      A                      A                      A
 Frequencies --    948.4434               973.3021              1009.2344
 Red. masses --      3.7714                 1.5264                 2.1010
 Frc consts  --      1.9989                 0.8519                 1.2608
 IR Inten    --     30.6850                 4.0930                 1.9668

                     22                     23                     24
                      A                      A                      A
 Frequencies --   1017.8677              1055.6925              1060.8939
 Red. masses --      3.1803                 1.7219                 1.7180
 Frc consts  --      1.9413                 1.1307                 1.1393
 IR Inten    --     73.7040                 6.9054                 4.0406

                     25                     26                     27
                      A                      A                      A
 Frequencies --   1069.6927              1083.7922              1099.2898
 Red. masses --      1.7126                 1.3779                 2.2702
 Frc consts  --      1.1546                 0.9536                 1.6163
 IR Inten    --     24.4178                 1.4331                20.6670

                     28                     29                     30
                      A                      A                      A
 Frequencies --   1149.1532              1159.8755              1172.9946
 Red. masses --      1.0951                 1.1920                 2.0008
 Frc consts  --      0.8520                 0.9449                 1.6220
 IR Inten    --      0.7663                 3.0604                37.9836

                     31                     32                     33
                      A                      A                      A
 Frequencies --   1199.9066              1220.7009              1228.2970
 Red. masses --      1.3841                 2.0712                 1.4933
 Frc consts  --      1.1742                 1.8184                 1.3274
 IR Inten    --      0.6136                 1.5256                 3.6461

                     34                     35                     36
                      A                      A                      A
 Frequencies --   1280.0703              1310.0022              1327.6691
 Red. masses --      2.0937                 1.5844                 1.7043
 Frc consts  --      2.0213                 1.6020                 1.7700
 IR Inten    --     20.7852                38.4780                 2.0751

                     37                     38                     39
                      A                      A                      A
 Frequencies --   1379.3247              1447.0934              1459.7773
 Red. masses --      1.7583                 2.1953                 1.1066
 Frc consts  --      1.9710                 2.7086                 1.3893
 IR Inten    --      4.4322                 9.4580                 1.7139

                     40                     41                     42
                      A                      A                      A
 Frequencies --   1502.4916              1517.2995              3029.2957
 Red. masses --      1.5434                 1.1036                 1.0547
 Frc consts  --      2.0529                 1.4970                 5.7023
 IR Inten    --      1.5670                 0.2609                68.1836

                     43                     44                     45
                      A                      A                      A
 Frequencies --   3077.4205              3132.8973              3136.4214
 Red. masses --      1.1115                 1.0500                 1.0577
 Frc consts  --      6.2021                 6.0721                 6.1303
 IR Inten    --     35.3993                20.7031                12.5958

                     46                     47                     48
                      A                      A                      A
 Frequencies --   3164.9875              3177.0958              3212.2796
 Red. masses --      1.0920                 1.0885                 1.1175
 Frc consts  --      6.4450                 6.4732                 6.7939
 IR Inten    --     22.0237                 1.7169                 1.1933

                     49                     50                     51
                      A                      A                      A
 Frequencies --   3213.1309              3227.6846              3793.4881
 Red. masses --      1.0957                 1.1152                 1.0660
 Frc consts  --      6.6650                 6.8455                 9.0381
 IR Inten    --      4.4572                18.0031                18.3897

 - Thermochemistry -
 -------------------
 Temperature   298.150 Kelvin.  Pressure   1.00000 Atm.
 Atom     1 has atomic number  8 and mass  15.99491

 Molecular mass:   126.06808 amu.
 Principal axes and moments of inertia in atomic units:
                           1         2         3
     Eigenvalues --   599.657981358.535851561.07745
           X            0.99971  -0.01536  -0.01842
           Y            0.01410   0.99768  -0.06655
           Z            0.01940   0.06627   0.99761
 This molecule is an asymmetric top.
 Rotational symmetry number  1.
 Warning -- assumption of classical behavior for rotation
           may cause significant error
 Rotational temperatures (Kelvin)      0.14444     0.06376     0.05548
 Rotational constants (GHZ):           3.00962     1.32845     1.15609
 Zero-point vibrational energy     416576.8 (Joules/Mol)
                                   99.56424 (Kcal/Mol)
 Warning -- explicit consideration of  10 degrees of freedom as
           vibrations may cause significant error
 Vibrational temperatures:     68.19   238.96   261.91   378.29   427.06
          (Kelvin)            474.78   540.53   640.51   730.01   801.41
                              959.11  1099.35  1133.67  1181.65  1204.33
                             1312.17  1317.98  1342.50  1364.60  1400.36
                             1452.06  1464.48  1518.90  1526.39  1539.05
                             1559.33  1581.63  1653.37  1668.80  1687.68
                             1726.40  1756.31  1767.24  1841.73  1884.80
                             1910.22  1984.54  2082.04  2100.29  2161.75
                             2183.05  4358.48  4427.72  4507.53  4512.61
                             4553.71  4571.13  4621.75  4622.97  4643.91
                             5457.98

 Zero-point correction=                           0.158666 (Hartree/Particle)
 Thermal correction to Energy=                    0.166878
 Thermal correction to Enthalpy=                  0.167822
 Thermal correction to Gibbs Free Energy=         0.125610
 Sum of electronic and zero-point Energies=           -422.953098
 Sum of electronic and thermal Energies=              -422.944886
 Sum of electronic and thermal Enthalpies=            -422.943941
 Sum of electronic and thermal Free Energies=         -422.986153

                     E (Thermal)             CV                S
                      KCal/Mol        Cal/Mol-Kelvin    Cal/Mol-Kelvin
 Total                  104.717             32.118             88.843
 Electronic               0.000              0.000              0.000
 Translational            0.889              2.981             40.409
 Rotational               0.889              2.981             28.632
 Vibrational            102.940             26.157             19.802
 Vibration     1          0.595              1.979              4.923
 Vibration     2          0.624              1.884              2.479
 Vibration     3          0.630              1.864              2.307
 Vibration     4          0.670              1.741              1.642
 Vibration     5          0.690              1.680              1.435
 Vibration     6          0.713              1.616              1.260
 Vibration     7          0.747              1.522              1.056
 Vibration     8          0.805              1.372              0.811
 Vibration     9          0.863              1.234              0.640
 Vibration    10          0.913              1.124              0.530

 Normal termination of Gaussian 09 at Mon Jan 27 18:21:29 2020.
