 Gaussian 09, Revision D.01,
 Gaussian 09:  ES64L-G09RevD.01 24-Apr-2013

 -----------------------------
 # b3lyp 6-31G(2df,p) opt Freq
 -----------------------------

 -----
 titel
 -----
 Symbolic Z-matrix:
 Charge =  0 Multiplicity = 1

 SCF Done:  E(RB3LYP) =  -423.158730789     A.U. after   14 cycles
 Optimization completed.
    -- Stationary point found.
 Normal termination of Gaussian 09 at Tue Jan 28 09:18:34 2020.

 ----------------------------------------------------------------------
 #N Geom=AllCheck Guess=TCheck SCRF=Check GenChk RB3LYP/6-31G(2df,p) Fr
 eq
 ----------------------------------------------------------------------

 Structure from the checkpoint file:  "/scratch/puck/g09_75781007-3972-4e1a-87f0-eb604013ad23/Gau-28615.chk"
 -----
 titel
 -----
 Charge =  0 Multiplicity = 1

                         Standard orientation:
 ---------------------------------------------------------------------
 Center     Atomic      Atomic             Coordinates (Angstroms)
 Number     Number       Type             X           Y           Z
 ---------------------------------------------------------------------
      1          6           0        2.312933   -1.156698   -0.029907
      2          8           0        1.303609   -0.571200    0.786458
      3          6           0        0.136222   -0.260089    0.084263
      4          6           0       -0.762637   -1.316043   -0.465585
      5          6           0       -2.047047   -0.978320   -0.327769
      6          6           0       -2.226935    0.346199    0.387738
      7          6           0       -0.793964    0.826067    0.611231
      8          6           0        0.092855    1.099966   -0.587475
      9          8           0        1.194401    1.938916   -0.417485
     10          1           0        2.557133   -0.516168   -0.886924
     11          1           0        3.197539   -1.275330    0.599874
     12          1           0        2.010458   -2.145278   -0.399048
     13          1           0       -0.395889   -2.212695   -0.950971
     14          1           0       -2.886467   -1.554969   -0.699883
     15          1           0       -2.805471    1.057810   -0.215784
     16          1           0       -2.777312    0.223652    1.330292
     17          1           0       -0.531447    1.358990    1.518348
     18          1           0       -0.343436    1.202222   -1.577133
     19          1           0        1.722251    1.553537    0.294467
 ---------------------------------------------------------------------

 SCF Done:  E(RB3LYP) =  -423.158730789     A.U. after    1 cycles

 The electronic state is 1-A.
 Alpha  occ. eigenvalues --  -19.15748 -19.13793 -10.23563 -10.23111 -10.23074
 Alpha  occ. eigenvalues --  -10.19057 -10.18604 -10.18448 -10.18393  -1.05317
 Alpha  occ. eigenvalues --   -1.01771  -0.87394  -0.76291  -0.71166  -0.68811
 Alpha  occ. eigenvalues --   -0.60536  -0.57090  -0.54945  -0.52414  -0.49616
 Alpha  occ. eigenvalues --   -0.45610  -0.45024  -0.44164  -0.42293  -0.40762
 Alpha  occ. eigenvalues --   -0.38473  -0.37111  -0.36794  -0.34725  -0.34226
 Alpha  occ. eigenvalues --   -0.30141  -0.27384  -0.24911  -0.21672
 Alpha virt. eigenvalues --    0.01307   0.08208   0.09877   0.12182   0.12522
 Alpha virt. eigenvalues --    0.13393   0.14362   0.14968   0.15551   0.16850
 Alpha virt. eigenvalues --    0.18070   0.18947   0.20088   0.20446   0.23294

 Mulliken charges:
               1
     1  C   -0.268165
     2  O   -0.303793
     3  C    0.364080
     4  C   -0.161083
     5  C   -0.072177
     6  C   -0.286070
     7  C   -0.192136
     8  C    0.081777
     9  O   -0.447349
    10  H    0.126956
    11  H    0.129740
    12  H    0.118276
    13  H    0.097966
    14  H    0.098104
    15  H    0.114664
    16  H    0.111713
    17  H    0.096470
    18  H    0.101429
    19  H    0.289600
 Sum of Mulliken charges =   0.00000

 Dipole moment (field-independent basis, Debye):
    X=             -0.2240    Y=             -1.4709    Z=             -0.2214  Tot=              1.5042
 Quadrupole moment (field-independent basis, Debye-Ang):
   XX=            -47.4285   YY=            -55.9158   ZZ=            -53.9164
   XY=             -2.7660   XZ=              0.6784   YZ=              3.6388

  Exact polarizability:  96.517  -1.794  74.186  -1.308   4.322  59.931
 Approx polarizability: 137.472  -3.693 108.555  -3.217   4.260  94.989

                      1                      2                      3
                      A                      A                      A
 Frequencies --     92.7548               160.6769               185.2950
 Red. masses --      2.4855                 1.9612                 1.5169
 Frc consts  --      0.0126                 0.0298                 0.0307
 IR Inten    --      8.6971                 3.0866                 1.9598

                      4                      5                      6
                      A                      A                      A
 Frequencies --    220.4887               260.8253               289.2345
 Red. masses --      3.7795                 3.2270                 2.5982
 Frc consts  --      0.1083                 0.1293                 0.1281
 IR Inten    --      2.8511                 6.4033                 3.6229

                      7                      8                      9
                      A                      A                      A
 Frequencies --    322.1897               410.3477               435.6327
 Red. masses --      3.3193                 1.2697                 2.9263
 Frc consts  --      0.2030                 0.1260                 0.3272
 IR Inten    --      9.2856                56.0910                18.7247

                     10                     11                     12
                      A                      A                      A
 Frequencies --    471.3590               523.2409               707.7215
 Red. masses --      2.2618                 4.8379                 3.1957
 Frc consts  --      0.2961                 0.7804                 0.9431
 IR Inten    --      3.4004                 3.7827                 3.2476

                     13                     14                     15
                      A                      A                      A
 Frequencies --    714.2110               742.1358               789.2423
 Red. masses --      3.2628                 1.6621                 4.0618
 Frc consts  --      0.9806                 0.5394                 1.4907
 IR Inten    --     10.9474                25.4951                 0.2865

                     16                     17                     18
                      A                      A                      A
 Frequencies --    889.7660               919.2979               927.4880
 Red. masses --      2.2963                 2.3795                 3.0363
 Frc consts  --      1.0711                 1.1848                 1.5389
 IR Inten    --     18.3828                 5.7531                 9.8125

                     19                     20                     21
                      A                      A                      A
 Frequencies --    957.5173               975.1841              1020.6397
 Red. masses --      1.3872                 1.9392                 1.8009
 Frc consts  --      0.7494                 1.0865                 1.1053
 IR Inten    --      3.1520                19.1949                 2.8852

                     22                     23                     24
                      A                      A                      A
 Frequencies --   1025.2327              1061.4308              1085.3252
 Red. masses --      2.9648                 1.6858                 2.4176
 Frc consts  --      1.8361                 1.1190                 1.6778
 IR Inten    --     15.7893                23.0040                33.1507

                     25                     26                     27
                      A                      A                      A
 Frequencies --   1121.2819              1135.6980              1175.8768
 Red. masses --      1.2407                 2.6057                 1.2921
 Frc consts  --      0.9191                 1.9802                 1.0526
 IR Inten    --     24.8439                90.5357                 9.8229

                     28                     29                     30
                      A                      A                      A
 Frequencies --   1178.8632              1202.2451              1229.7858
 Red. masses --      1.2803                 1.4962                 1.7381
 Frc consts  --      1.0483                 1.2742                 1.5487
 IR Inten    --      1.4358                 2.4805                39.6837

                     31                     32                     33
                      A                      A                      A
 Frequencies --   1246.8771              1279.9032              1310.5813
 Red. masses --      1.8137                 1.8861                 1.8159
 Frc consts  --      1.6614                 1.8204                 1.8377
 IR Inten    --      6.9311                49.2232                 3.4089

                     34                     35                     36
                      A                      A                      A
 Frequencies --   1351.3883              1388.9221              1442.8836
 Red. masses --      1.7516                 1.7323                 1.7987
 Frc consts  --      1.8847                 1.9689                 2.2063
 IR Inten    --     11.5429                31.5527               102.4698

                     37                     38                     39
                      A                      A                      A
 Frequencies --   1475.9308              1478.9568              1492.2158
 Red. masses --      1.1630                 1.1256                 1.0601
 Frc consts  --      1.4926                 1.4506                 1.3908
 IR Inten    --      0.5787                 8.0452                 7.2877

                     40                     41                     42
                      A                      A                      A
 Frequencies --   1506.4344              1666.6805              3005.6842
 Red. masses --      1.0490                 6.3779                 1.0332
 Frc consts  --      1.4025                10.4383                 5.4994
 IR Inten    --      8.1643                 5.2829                50.2518

                     43                     44                     45
                      A                      A                      A
 Frequencies --   3013.4028              3040.6550              3065.6672
 Red. masses --      1.0605                 1.1008                 1.1045
 Frc consts  --      5.6740                 5.9965                 6.1162
 IR Inten    --     43.5120                19.6562                33.6053

                     46                     47                     48
                      A                      A                      A
 Frequencies --   3122.6633              3149.8568              3178.1006
 Red. masses --      1.1004                 1.0905                 1.0900
 Frc consts  --      6.3217                 6.3746                 6.4865
 IR Inten    --     25.9615                15.2384                 7.0410

                     49                     50                     51
                      A                      A                      A
 Frequencies --   3188.4863              3213.2351              3762.3417
 Red. masses --      1.0847                 1.1032                 1.0649
 Frc consts  --      6.4974                 6.7113                 8.8811
 IR Inten    --      6.0161                17.0783                38.6127

 - Thermochemistry -
 -------------------
 Temperature   298.150 Kelvin.  Pressure   1.00000 Atm.
 Atom     1 has atomic number  6 and mass  12.00000

 Molecular mass:   126.06808 amu.
 Principal axes and moments of inertia in atomic units:
                           1         2         3
     Eigenvalues --   698.764451157.700431596.58865
           X            0.99878  -0.04885  -0.00722
           Y            0.04908   0.99814   0.03620
           Z            0.00544  -0.03651   0.99932
 This molecule is an asymmetric top.
 Rotational symmetry number  1.
 Warning -- assumption of classical behavior for rotation
           may cause significant error
 Rotational temperatures (Kelvin)      0.12395     0.07482     0.05425
 Rotational constants (GHZ):           2.58276     1.55890     1.13037
 Zero-point vibrational energy     416371.4 (Joules/Mol)
                                   99.51514 (Kcal/Mol)
 Warning -- explicit consideration of  11 degrees of freedom as
           vibrations may cause significant error
 Vibrational temperatures:    133.45   231.18   266.60   317.23   375.27
          (Kelvin)            416.14   463.56   590.40   626.78   678.18
                              752.83  1018.25  1027.59  1067.77  1135.54
                             1280.17  1322.66  1334.45  1377.65  1403.07
                             1468.47  1475.08  1527.16  1561.54  1613.27
                             1634.01  1691.82  1696.12  1729.76  1769.39
                             1793.98  1841.49  1885.63  1944.34  1998.35
                             2075.99  2123.53  2127.89  2146.96  2167.42
                             2397.98  4324.50  4335.61  4374.82  4410.81
                             4492.81  4531.94  4572.57  4587.51  4623.12
                             5413.16

 Zero-point correction=                           0.158587 (Hartree/Particle)
 Thermal correction to Energy=                    0.167187
 Thermal correction to Enthalpy=                  0.168131
 Thermal correction to Gibbs Free Energy=         0.125640
 Sum of electronic and zero-point Energies=           -423.000143
 Sum of electronic and thermal Energies=              -422.991543
 Sum of electronic and thermal Enthalpies=            -422.990599
 Sum of electronic and thermal Free Energies=         -423.033091

                     E (Thermal)             CV                S
                      KCal/Mol        Cal/Mol-Kelvin    Cal/Mol-Kelvin
 Total                  104.912             33.032             89.432
 Electronic               0.000              0.000              0.000
 Translational            0.889              2.981             40.409
 Rotational               0.889              2.981             28.648
 Vibrational            103.134             27.070             20.375
 Vibration     1          0.602              1.954              3.601
 Vibration     2          0.622              1.891              2.542
 Vibration     3          0.631              1.860              2.274
 Vibration     4          0.647              1.810              1.955
 Vibration     5          0.669              1.744              1.656
 Vibration     6          0.686              1.694              1.478
 Vibration     7          0.707              1.631              1.299
 Vibration     8          0.775              1.448              0.925
 Vibration     9          0.796              1.393              0.840
 Vibration    10          0.828              1.314              0.734
 Vibration    11          0.878              1.199              0.602

 Optimization completed.
    -- Stationary point found.
 Normal termination of Gaussian 09 at Tue Jan 28 10:04:57 2020.
