 Gaussian 09, Revision D.01,
 Gaussian 09:  ES64L-G09RevD.01 24-Apr-2013

 -----------------------------
 # b3lyp 6-31G(2df,p) opt Freq
 -----------------------------

 -----
 titel
 -----
 Symbolic Z-matrix:
 Charge =  0 Multiplicity = 1

 SCF Done:  E(RB3LYP) =  -423.172061298     A.U. after   14 cycles
 Optimization completed.
    -- Stationary point found.
 Normal termination of Gaussian 09 at Tue Jan 28 00:43:37 2020.

 ----------------------------------------------------------------------
 #N Geom=AllCheck Guess=TCheck SCRF=Check GenChk RB3LYP/6-31G(2df,p) Fr
 eq
 ----------------------------------------------------------------------

 Structure from the checkpoint file:  "/scratch/puck/g09_8af7c9c6-391b-4a2c-8634-01e8b3a42ba8/Gau-189746.chk"
 -----
 titel
 -----
 Charge =  0 Multiplicity = 1

                         Standard orientation:
 ---------------------------------------------------------------------
 Center     Atomic      Atomic             Coordinates (Angstroms)
 Number     Number       Type             X           Y           Z
 ---------------------------------------------------------------------
      1          6           0       -2.651473   -0.721072    0.801982
      2          6           0       -1.802337   -0.326250   -0.392794
      3          8           0       -0.631565   -1.158574   -0.586283
      4          6           0        0.305610   -0.047818   -0.565764
      5          6           0        1.405885   -0.179611    0.442052
      6          6           0        2.698113   -0.863411    0.061672
      7          6           0        2.669974    0.627362    0.260039
      8          6           0       -0.876086    0.890805   -0.251216
      9          8           0       -1.007949    2.041348    0.034740
     10          1           0       -3.469762   -0.005457    0.928194
     11          1           0       -3.079973   -1.715872    0.649622
     12          1           0       -2.055326   -0.737545    1.718510
     13          1           0       -2.412396   -0.281419   -1.307269
     14          1           0        0.725024    0.135678   -1.567279
     15          1           0        1.062397   -0.323543    1.461980
     16          1           0        3.182695   -1.477016    0.812370
     17          1           0        2.788584   -1.243332   -0.950298
     18          1           0        3.131582    1.044439    1.147273
     19          1           0        2.745175    1.261846   -0.616578
 ---------------------------------------------------------------------

 SCF Done:  E(RB3LYP) =  -423.172061299     A.U. after    1 cycles

 The electronic state is 1-A.
 Alpha  occ. eigenvalues --  -19.15130 -19.14248 -10.27590 -10.24326 -10.24260
 Alpha  occ. eigenvalues --  -10.20154 -10.19435 -10.19317 -10.18898  -1.06634
 Alpha  occ. eigenvalues --   -1.03888  -0.86652  -0.76443  -0.71752  -0.65964
 Alpha  occ. eigenvalues --   -0.60656  -0.58694  -0.54823  -0.49388  -0.48577
 Alpha  occ. eigenvalues --   -0.48464  -0.46846  -0.43534  -0.42035  -0.40294
 Alpha  occ. eigenvalues --   -0.38213  -0.37634  -0.37131  -0.37020  -0.33947
 Alpha  occ. eigenvalues --   -0.30906  -0.30206  -0.26230  -0.24629
 Alpha virt. eigenvalues --   -0.02906   0.07541   0.08868   0.10120   0.11121
 Alpha virt. eigenvalues --    0.13324   0.13718   0.14228   0.15253   0.16935
 Alpha virt. eigenvalues --    0.17459   0.18350   0.20857   0.21993   0.22973

 Mulliken charges:
               1
     1  C   -0.401722
     2  C    0.033875
     3  O   -0.315693
     4  C    0.007846
     5  C    0.011803
     6  C   -0.269855
     7  C   -0.262282
     8  C    0.308910
     9  O   -0.278931
    10  H    0.135026
    11  H    0.135089
    12  H    0.126484
    13  H    0.102990
    14  H    0.096145
    15  H    0.090016
    16  H    0.119273
    17  H    0.119714
    18  H    0.120896
    19  H    0.120416
 Sum of Mulliken charges =   0.00000

 Dipole moment (field-independent basis, Debye):
    X=              0.3659    Y=             -0.9561    Z=              0.0172  Tot=              1.0239
 Quadrupole moment (field-independent basis, Debye-Ang):
   XX=            -47.9213   YY=            -61.4610   ZZ=            -50.1212
   XY=              2.2673   XZ=              0.6040   YZ=             -1.9808

  Exact polarizability:  95.233   1.075  72.637  -0.901   0.265  64.188
 Approx polarizability: 116.541  -0.468 116.440  -1.341   3.649  96.281

                      1                      2                      3
                      A                      A                      A
 Frequencies --     63.5045                65.7576               129.7318
 Red. masses --      3.2928                 3.4610                 3.4534
 Frc consts  --      0.0078                 0.0088                 0.0342
 IR Inten    --      2.1897                 0.7197                 1.2481

                      4                      5                      6
                      A                      A                      A
 Frequencies --    191.7810               193.8493               262.7453
 Red. masses --      1.1550                 2.6774                 3.0914
 Frc consts  --      0.0250                 0.0593                 0.1257
 IR Inten    --      0.5556                 2.5819                 3.1641

                      7                      8                      9
                      A                      A                      A
 Frequencies --    291.6229               389.3546               406.4009
 Red. masses --      3.7858                 3.5042                 4.1396
 Frc consts  --      0.1897                 0.3130                 0.4028
 IR Inten    --      1.8587                 7.8637                 0.9555

                     10                     11                     12
                      A                      A                      A
 Frequencies --    541.3974               586.9304               708.3881
 Red. masses --      3.0652                 3.5358                 5.4687
 Frc consts  --      0.5293                 0.7176                 1.6169
 IR Inten    --      9.2524                 0.8590                 1.0312

                     13                     14                     15
                      A                      A                      A
 Frequencies --    771.0895               826.3449               843.6954
 Red. masses --      1.0869                 1.5062                 2.2117
 Frc consts  --      0.3808                 0.6060                 0.9276
 IR Inten    --      0.3408                 3.6039                 1.1066

                     16                     17                     18
                      A                      A                      A
 Frequencies --    863.2318               886.2069               931.2664
 Red. masses --      1.9515                 3.1453                 3.5152
 Frc consts  --      0.8568                 1.4554                 1.7962
 IR Inten    --      3.9976                11.5423                 5.5347

                     19                     20                     21
                      A                      A                      A
 Frequencies --    957.1965               996.6095              1037.2711
 Red. masses --      2.5906                 4.6251                 1.9333
 Frc consts  --      1.3985                 2.7066                 1.2256
 IR Inten    --     14.8658               198.4713                48.5855

                     22                     23                     24
                      A                      A                      A
 Frequencies --   1059.4208              1064.4263              1081.9780
 Red. masses --      1.9146                 1.3297                 1.3423
 Frc consts  --      1.2661                 0.8876                 0.9258
 IR Inten    --      0.8173                 8.0354                 1.3492

                     25                     26                     27
                      A                      A                      A
 Frequencies --   1094.0395              1127.9073              1130.0811
 Red. masses --      2.2884                 1.1734                 2.2439
 Frc consts  --      1.6138                 0.8795                 1.6884
 IR Inten    --     20.3460                 0.4630                11.6882

                     28                     29                     30
                      A                      A                      A
 Frequencies --   1194.6703              1195.8195              1223.2675
 Red. masses --      1.5189                 2.0765                 1.7458
 Frc consts  --      1.2772                 1.7495                 1.5392
 IR Inten    --      0.7639                 4.0479                 6.1484

                     31                     32                     33
                      A                      A                      A
 Frequencies --   1239.7558              1280.1118              1298.8452
 Red. masses --      1.6195                 1.5113                 1.2963
 Frc consts  --      1.4666                 1.4592                 1.2885
 IR Inten    --      2.9328                 4.8824                 1.7783

                     34                     35                     36
                      A                      A                      A
 Frequencies --   1352.7991              1399.6117              1426.4159
 Red. masses --      1.4380                 1.2368                 1.6902
 Frc consts  --      1.5505                 1.4274                 2.0262
 IR Inten    --      2.3455                 4.7214                 3.8492

                     37                     38                     39
                      A                      A                      A
 Frequencies --   1471.6327              1480.9609              1494.1651
 Red. masses --      1.0861                 1.0547                 1.0501
 Frc consts  --      1.3858                 1.3629                 1.3813
 IR Inten    --      1.7164                 5.0863                 2.4147

                     40                     41                     42
                      A                      A                      A
 Frequencies --   1504.7217              1917.6976              2985.8042
 Red. masses --      1.3666                12.9757                 1.0810
 Frc consts  --      1.8230                28.1152                 5.6778
 IR Inten    --      1.0327               223.6866                21.6455

                     43                     44                     45
                      A                      A                      A
 Frequencies --   2999.0706              3042.6530              3119.3888
 Red. masses --      1.0834                 1.0340                 1.1019
 Frc consts  --      5.7412                 5.6399                 6.3174
 IR Inten    --     37.9659                12.6752                11.4454

                     46                     47                     48
                      A                      A                      A
 Frequencies --   3122.4482              3136.9026              3141.1392
 Red. masses --      1.1026                 1.0512                 1.0584
 Frc consts  --      6.3337                 6.0942                 6.1526
 IR Inten    --     19.6637                15.5245                10.8351

                     49                     50                     51
                      A                      A                      A
 Frequencies --   3153.9398              3216.0100              3230.4296
 Red. masses --      1.0892                 1.1178                 1.1153
 Frc consts  --      6.3838                 6.8118                 6.8576
 IR Inten    --      6.9455                 0.2332                14.6221

 - Thermochemistry -
 -------------------
 Temperature   298.150 Kelvin.  Pressure   1.00000 Atm.
 Atom     1 has atomic number  6 and mass  12.00000

 Molecular mass:   126.06808 amu.
 Principal axes and moments of inertia in atomic units:
                           1         2         3
     Eigenvalues --   592.630341637.991431968.76092
           X            0.99978   0.01918  -0.00888
           Y           -0.01940   0.99948  -0.02579
           Z            0.00838   0.02596   0.99963
 This molecule is an asymmetric top.
 Rotational symmetry number  1.
 Warning -- assumption of classical behavior for rotation
           may cause significant error
 Rotational temperatures (Kelvin)      0.14615     0.05288     0.04399
 Rotational constants (GHZ):           3.04531     1.10180     0.91669
 Zero-point vibrational energy     413492.2 (Joules/Mol)
                                   98.82700 (Kcal/Mol)
 Warning -- explicit consideration of  11 degrees of freedom as
           vibrations may cause significant error
 Vibrational temperatures:     91.37    94.61   186.65   275.93   278.91
          (Kelvin)            378.03   419.58   560.19   584.72   778.95
                              844.46  1019.21  1109.42  1188.92  1213.89
                             1242.00  1275.05  1339.88  1377.19  1433.90
                             1492.40  1524.27  1531.47  1556.72  1574.08
                             1622.81  1625.93  1718.86  1720.52  1760.01
                             1783.73  1841.79  1868.75  1946.37  2013.73
                             2052.29  2117.35  2130.77  2149.77  2164.96
                             2759.14  4295.90  4314.99  4377.69  4488.10
                             4492.50  4513.30  4519.39  4537.81  4627.12
                             4647.86

 Zero-point correction=                           0.157491 (Hartree/Particle)
 Thermal correction to Energy=                    0.166541
 Thermal correction to Enthalpy=                  0.167486
 Thermal correction to Gibbs Free Energy=         0.122908
 Sum of electronic and zero-point Energies=           -423.014570
 Sum of electronic and thermal Energies=              -423.005520
 Sum of electronic and thermal Enthalpies=            -423.004576
 Sum of electronic and thermal Free Energies=         -423.049153

                     E (Thermal)             CV                S
                      KCal/Mol        Cal/Mol-Kelvin    Cal/Mol-Kelvin
 Total                  104.506             32.975             93.821
 Electronic               0.000              0.000              0.000
 Translational            0.889              2.981             40.409
 Rotational               0.889              2.981             29.037
 Vibrational            102.729             27.013             24.376
 Vibration     1          0.597              1.972              4.345
 Vibration     2          0.597              1.971              4.276
 Vibration     3          0.612              1.924              2.950
 Vibration     4          0.634              1.851              2.211
 Vibration     5          0.635              1.848              2.191
 Vibration     6          0.670              1.741              1.643
 Vibration     7          0.687              1.689              1.465
 Vibration     8          0.757              1.493              1.003
 Vibration     9          0.771              1.456              0.939
 Vibration    10          0.896              1.159              0.562
 Vibration    11          0.944              1.060              0.473

 Optimization completed.
    -- Stationary point found.
 Normal termination of Gaussian 09 at Tue Jan 28 01:23:06 2020.
