 Gaussian 09, Revision D.01,
 Gaussian 09:  ES64L-G09RevD.01 24-Apr-2013

 -----------------------------
 # b3lyp 6-31G(2df,p) opt Freq
 -----------------------------

 -----
 titel
 -----
 Symbolic Z-matrix:
 Charge =  0 Multiplicity = 1

 SCF Done:  E(RB3LYP) =  -423.179991242     A.U. after   14 cycles
 Optimization completed.
    -- Stationary point found.
 Normal termination of Gaussian 09 at Mon Jan 27 15:59:38 2020.

 ----------------------------------------------------------------------
 #N Geom=AllCheck Guess=TCheck SCRF=Check GenChk RB3LYP/6-31G(2df,p) Fr
 eq
 ----------------------------------------------------------------------

 Structure from the checkpoint file:  "/scratch/puck/g09_5ec202d2-d4a3-4039-bd14-60b8ce07bb9d/Gau-10491.chk"
 -----
 titel
 -----
 Charge =  0 Multiplicity = 1

                         Standard orientation:
 ---------------------------------------------------------------------
 Center     Atomic      Atomic             Coordinates (Angstroms)
 Number     Number       Type             X           Y           Z
 ---------------------------------------------------------------------
      1          6           0       -2.608346   -1.283428    0.674380
      2          6           0       -1.660414   -0.503590   -0.258646
      3          6           0       -0.182804   -0.813641    0.072227
      4          6           0        0.792813   -0.125939   -0.876776
      5          8           0        2.142578   -0.602771   -0.670206
      6          6           0        2.855768    0.009905    0.284118
      7          8           0        2.484083    0.906833    0.990138
      8          6           0       -1.938314    0.931942   -0.202465
      9          6           0       -2.169314    2.110136   -0.138367
     10          1           0       -2.428987   -2.359299    0.584464
     11          1           0       -2.447819   -0.992045    1.716456
     12          1           0       -3.652728   -1.082900    0.423010
     13          1           0       -1.849457   -0.841243   -1.288242
     14          1           0        0.035575   -0.502065    1.098395
     15          1           0       -0.033996   -1.897716    0.012992
     16          1           0        0.571951   -0.372264   -1.918684
     17          1           0        0.768456    0.957033   -0.744753
     18          1           0        3.857832   -0.445929    0.317067
     19          1           0       -2.370456    3.151622   -0.086982
 ---------------------------------------------------------------------

 SCF Done:  E(RB3LYP) =  -423.179991242     A.U. after    1 cycles

 The electronic state is 1-A.
 Alpha  occ. eigenvalues --  -19.18855 -19.13270 -10.30752 -10.24161 -10.22190
 Alpha  occ. eigenvalues --  -10.19531 -10.18700 -10.18189 -10.17348  -1.10375
 Alpha  occ. eigenvalues --   -1.02040  -0.83166  -0.75887  -0.72726  -0.67415
 Alpha  occ. eigenvalues --   -0.62272  -0.57963  -0.53575  -0.52368  -0.48752
 Alpha  occ. eigenvalues --   -0.47628  -0.46807  -0.43407  -0.42616  -0.41163
 Alpha  occ. eigenvalues --   -0.38796  -0.37740  -0.36763  -0.35569  -0.34325
 Alpha  occ. eigenvalues --   -0.30324  -0.28000  -0.26654  -0.26615
 Alpha virt. eigenvalues --    0.00985   0.04797   0.05289   0.09008   0.11663
 Alpha virt. eigenvalues --    0.12032   0.12703   0.13188   0.14472   0.14896
 Alpha virt. eigenvalues --    0.17187   0.17895   0.18858   0.19467   0.22318

 Mulliken charges:
               1
     1  C   -0.390762
     2  C   -0.152530
     3  C   -0.194901
     4  C   -0.083088
     5  O   -0.206149
     6  C    0.182204
     7  O   -0.304598
     8  C    0.344795
     9  C   -0.486267
    10  H    0.115696
    11  H    0.131557
    12  H    0.128292
    13  H    0.106271
    14  H    0.131312
    15  H    0.105834
    16  H    0.114610
    17  H    0.148263
    18  H    0.109388
    19  H    0.200074
 Sum of Mulliken charges =   0.00000

 Dipole moment (field-independent basis, Debye):
    X=             -0.8302    Y=             -1.5641    Z=             -1.1188  Tot=              2.0946
 Quadrupole moment (field-independent basis, Debye-Ang):
   XX=            -52.3519   YY=            -50.9738   ZZ=            -54.8074
   XY=             -2.5267   XZ=             -1.8679   YZ=             -2.1523

  Exact polarizability:  85.036  -4.771  86.787   1.905   2.461  61.737
 Approx polarizability: 101.905 -10.656 141.594   2.695  12.562  96.753

                      1                      2                      3
                      A                      A                      A
 Frequencies --     36.4409                55.5735               102.0564
 Red. masses --      6.0599                 5.6538                 3.1289
 Frc consts  --      0.0047                 0.0103                 0.0192
 IR Inten    --      1.2228                 0.8785                 0.9685

                      4                      5                      6
                      A                      A                      A
 Frequencies --    144.9404               186.1672               214.3894
 Red. masses --      2.6793                 3.0074                 1.5866
 Frc consts  --      0.0332                 0.0614                 0.0430
 IR Inten    --      0.9227                 0.7030                 0.6765

                      7                      8                      9
                      A                      A                      A
 Frequencies --    254.7203               274.9831               314.4970
 Red. masses --      1.6589                 2.6465                 2.9614
 Frc consts  --      0.0634                 0.1179                 0.1726
 IR Inten    --      0.2163                 5.1832                11.8875

                     10                     11                     12
                      A                      A                      A
 Frequencies --    374.8996               437.9154               539.3913
 Red. masses --      3.9546                 4.2213                 3.4367
 Frc consts  --      0.3275                 0.4770                 0.5891
 IR Inten    --      6.2188                13.2394                 0.1919

                     13                     14                     15
                      A                      A                      A
 Frequencies --    567.8541               632.2890               641.8019
 Red. masses --      3.8898                 1.2071                 1.2233
 Frc consts  --      0.7390                 0.2843                 0.2969
 IR Inten    --      5.5990                39.7787                44.4762

                     16                     17                     18
                      A                      A                      A
 Frequencies --    747.8592               795.3731               830.3182
 Red. masses --      1.9831                 3.1542                 1.7778
 Frc consts  --      0.6535                 1.1757                 0.7221
 IR Inten    --      3.5641                 5.2876                 0.8585

                     19                     20                     21
                      A                      A                      A
 Frequencies --    935.0175               945.0318               987.6608
 Red. masses --      4.8267                 1.7079                 1.5162
 Frc consts  --      2.4862                 0.8987                 0.8714
 IR Inten    --     21.6746                 1.2951                 2.0132

                     22                     23                     24
                      A                      A                      A
 Frequencies --   1039.6355              1046.7225              1103.2700
 Red. masses --      2.9459                 1.8009                 2.7786
 Frc consts  --      1.8760                 1.1626                 1.9927
 IR Inten    --      4.1446                 0.3073                 2.7099

                     25                     26                     27
                      A                      A                      A
 Frequencies --   1128.2440              1159.0969              1192.4608
 Red. masses --      1.6510                 2.1944                 4.0773
 Frc consts  --      1.2382                 1.7370                 3.4160
 IR Inten    --      4.7183                 4.0577               326.0560

                     28                     29                     30
                      A                      A                      A
 Frequencies --   1255.0033              1295.0800              1330.7510
 Red. masses --      1.4662                 1.2652                 1.1546
 Frc consts  --      1.3606                 1.2503                 1.2047
 IR Inten    --     40.2781                 5.5184                 3.8575

                     31                     32                     33
                      A                      A                      A
 Frequencies --   1348.0418              1361.0369              1406.0301
 Red. masses --      1.3801                 1.3555                 1.1904
 Frc consts  --      1.4777                 1.4794                 1.3866
 IR Inten    --      6.2579                12.5977                 2.1784

                     34                     35                     36
                      A                      A                      A
 Frequencies --   1409.2427              1422.4052              1483.3057
 Red. masses --      1.1650                 1.3432                 1.0876
 Frc consts  --      1.3632                 1.6012                 1.4098
 IR Inten    --      0.7888                 2.3734                 3.3199

                     37                     38                     39
                      A                      A                      A
 Frequencies --   1491.7106              1496.5683              1501.3305
 Red. masses --      1.0562                 1.0727                 1.0605
 Frc consts  --      1.3847                 1.4155                 1.4084
 IR Inten    --      2.8337                 5.7510                 2.8767

                     40                     41                     42
                      A                      A                      A
 Frequencies --   1821.2557              2233.4527              2997.7502
 Red. masses --      9.1325                 5.9236                 1.0812
 Frc consts  --     17.8477                17.4097                 5.7248
 IR Inten    --    230.4077                 0.6879                14.6168

                     43                     44                     45
                      A                      A                      A
 Frequencies --   3026.5313              3040.6067              3045.0844
 Red. masses --      1.0901                 1.0405                 1.0534
 Frc consts  --      5.8832                 5.6677                 5.7550
 IR Inten    --     74.6898                 8.5816                29.5821

                     46                     47                     48
                      A                      A                      A
 Frequencies --   3070.9975              3095.8809              3115.4124
 Red. masses --      1.0615                 1.0996                 1.1021
 Frc consts  --      5.8985                 6.2096                 6.3023
 IR Inten    --     23.8271                 8.2562                24.6914

                     49                     50                     51
                      A                      A                      A
 Frequencies --   3124.8585              3137.9704              3503.6323
 Red. masses --      1.1024                 1.1073                 1.1620
 Frc consts  --      6.3424                 6.4243                 8.4043
 IR Inten    --     20.8591                13.0883                64.7516

 - Thermochemistry -
 -------------------
 Temperature   298.150 Kelvin.  Pressure   1.00000 Atm.
 Atom     1 has atomic number  6 and mass  12.00000

 Molecular mass:   126.06808 amu.
 Principal axes and moments of inertia in atomic units:
                           1         2         3
     Eigenvalues --   671.414322124.907002434.39164
           X            0.99987   0.01246  -0.01044
           Y           -0.01286   0.99911  -0.04006
           Z            0.00994   0.04019   0.99914
 This molecule is an asymmetric top.
 Rotational symmetry number  1.
 Warning -- assumption of classical behavior for rotation
           may cause significant error
 Rotational temperatures (Kelvin)      0.12900     0.04076     0.03558
 Rotational constants (GHZ):           2.68797     0.84933     0.74135
 Zero-point vibrational energy     410932.5 (Joules/Mol)
                                   98.21522 (Kcal/Mol)
 Warning -- explicit consideration of  13 degrees of freedom as
           vibrations may cause significant error
 Vibrational temperatures:     52.43    79.96   146.84   208.54   267.85
          (Kelvin)            308.46   366.49   395.64   452.49   539.40
                              630.06   776.06   817.01   909.72   923.41
                             1076.00  1144.36  1194.64  1345.28  1359.69
                             1421.02  1495.80  1506.00  1587.36  1623.29
                             1667.68  1715.68  1805.67  1863.33  1914.65
                             1939.53  1958.23  2022.96  2027.58  2046.52
                             2134.14  2146.24  2153.23  2160.08  2620.38
                             3213.44  4313.09  4354.50  4374.75  4381.19
                             4418.47  4454.28  4482.38  4495.97  4514.83
                             5040.94

 Zero-point correction=                           0.156516 (Hartree/Particle)
 Thermal correction to Energy=                    0.166757
 Thermal correction to Enthalpy=                  0.167702
 Thermal correction to Gibbs Free Energy=         0.119976
 Sum of electronic and zero-point Energies=           -423.023475
 Sum of electronic and thermal Energies=              -423.013234
 Sum of electronic and thermal Enthalpies=            -423.012290
 Sum of electronic and thermal Free Energies=         -423.060016

                     E (Thermal)             CV                S
                      KCal/Mol        Cal/Mol-Kelvin    Cal/Mol-Kelvin
 Total                  104.642             35.929            100.448
 Electronic               0.000              0.000              0.000
 Translational            0.889              2.981             40.409
 Rotational               0.889              2.981             29.631
 Vibrational            102.864             29.967             30.408
 Vibration     1          0.594              1.982              5.444
 Vibration     2          0.596              1.975              4.609
 Vibration     3          0.604              1.948              3.415
 Vibration     4          0.616              1.908              2.738
 Vibration     5          0.632              1.859              2.266
 Vibration     6          0.644              1.819              2.006
 Vibration     7          0.665              1.755              1.698
 Vibration     8          0.677              1.720              1.565
 Vibration     9          0.702              1.646              1.339
 Vibration    10          0.746              1.524              1.060
 Vibration    11          0.798              1.388              0.833
 Vibration    12          0.894              1.163              0.567
 Vibration    13          0.924              1.101              0.508

 Optimization completed.
    -- Stationary point found.
 Normal termination of Gaussian 09 at Mon Jan 27 17:35:45 2020.
