 Gaussian 09, Revision D.01,
 Gaussian 09:  ES64L-G09RevD.01 24-Apr-2013

 -----------------------------
 # b3lyp 6-31G(2df,p) opt Freq
 -----------------------------

 -----
 titel
 -----
 Symbolic Z-matrix:
 Charge =  0 Multiplicity = 1

 SCF Done:  E(RB3LYP) =  -423.140084492     A.U. after   14 cycles
 Optimization completed.
    -- Stationary point found.
 Normal termination of Gaussian 09 at Tue Jan 28 14:03:20 2020.

 ----------------------------------------------------------------------
 #N Geom=AllCheck Guess=TCheck SCRF=Check GenChk RB3LYP/6-31G(2df,p) Fr
 eq
 ----------------------------------------------------------------------

 Structure from the checkpoint file:  "/scratch/puck/g09_7c144852-25ef-4bad-8cd2-73452e6b2383/Gau-33524.chk"
 -----
 titel
 -----
 Charge =  0 Multiplicity = 1

                         Standard orientation:
 ---------------------------------------------------------------------
 Center     Atomic      Atomic             Coordinates (Angstroms)
 Number     Number       Type             X           Y           Z
 ---------------------------------------------------------------------
      1          6           0       -3.056540   -0.011601   -0.049300
      2          6           0       -1.696814   -0.369188   -0.661644
      3          6           0       -0.597814   -0.499383    0.381984
      4          6           0        0.056842    0.743686    1.044799
      5          8           0        1.230543   -0.102402    1.379830
      6          6           0        0.909184   -0.539330   -0.018079
      7          6           0        1.728829   -1.617666   -0.644560
      8          6           0        0.821399    0.995314   -0.280429
      9          8           0        1.236043    1.852318   -0.989440
     10          1           0       -3.830233    0.051844   -0.819824
     11          1           0       -3.372031   -0.764498    0.680935
     12          1           0       -3.019217    0.954343    0.465180
     13          1           0       -1.777351   -1.318598   -1.205901
     14          1           0       -1.417313    0.386939   -1.406268
     15          1           0       -0.803981   -1.260355    1.141659
     16          1           0       -0.314683    1.413070    1.817232
     17          1           0        1.384353   -1.798393   -1.667544
     18          1           0        2.781355   -1.323385   -0.684871
     19          1           0        1.645890   -2.551287   -0.080334
 ---------------------------------------------------------------------

 SCF Done:  E(RB3LYP) =  -423.140084492     A.U. after    1 cycles

 The electronic state is 1-A.
 Alpha  occ. eigenvalues --  -19.15760 -19.14750 -10.27962 -10.25842 -10.25298
 Alpha  occ. eigenvalues --  -10.20983 -10.19689 -10.19540 -10.18617  -1.07984
 Alpha  occ. eigenvalues --   -1.04821  -0.81743  -0.76380  -0.74557  -0.66111
 Alpha  occ. eigenvalues --   -0.63354  -0.60820  -0.49641  -0.49305  -0.46902
 Alpha  occ. eigenvalues --   -0.46011  -0.45797  -0.44048  -0.41827  -0.40654
 Alpha  occ. eigenvalues --   -0.39935  -0.38593  -0.37745  -0.36791  -0.34898
 Alpha  occ. eigenvalues --   -0.33374  -0.32205  -0.26157  -0.24984
 Alpha virt. eigenvalues --   -0.00611   0.08224   0.09307   0.09690   0.11967
 Alpha virt. eigenvalues --    0.12026   0.13614   0.13899   0.14230   0.15482
 Alpha virt. eigenvalues --    0.16820   0.17159   0.17816   0.19008   0.20131

 Mulliken charges:
               1
     1  C   -0.377069
     2  C   -0.236604
     3  C   -0.010449
     4  C   -0.080352
     5  O   -0.339162
     6  C    0.258086
     7  C   -0.526154
     8  C    0.420393
     9  O   -0.319481
    10  H    0.120531
    11  H    0.120274
    12  H    0.122459
    13  H    0.106844
    14  H    0.115285
    15  H    0.089547
    16  H    0.109385
    17  H    0.139613
    18  H    0.148588
    19  H    0.138266
 Sum of Mulliken charges =   0.00000

 Dipole moment (field-independent basis, Debye):
    X=             -2.1216    Y=             -2.1491    Z=             -0.0032  Tot=              3.0199
 Quadrupole moment (field-independent basis, Debye-Ang):
   XX=            -53.7521   YY=            -55.0070   ZZ=            -55.3331
   XY=             -3.8351   XZ=             -1.0588   YZ=              4.5510

  Exact polarizability:  82.023  -1.261  76.071  -3.716   0.434  70.665
 Approx polarizability: 108.189   0.666 116.742  -3.343  -6.922 116.667

                      1                      2                      3
                      A                      A                      A
 Frequencies --     71.6557               129.3524               141.3975
 Red. masses --      2.7026                 4.0226                 1.4599
 Frc consts  --      0.0082                 0.0397                 0.0172
 IR Inten    --      0.4923                 2.0531                 0.6920

                      4                      5                      6
                      A                      A                      A
 Frequencies --    157.9579               204.1726               222.0699
 Red. masses --      1.3900                 3.2900                 1.3797
 Frc consts  --      0.0204                 0.0808                 0.0401
 IR Inten    --      0.0989                 0.9304                 1.8624

                      7                      8                      9
                      A                      A                      A
 Frequencies --    263.3133               317.1983               435.9493
 Red. masses --      3.0694                 2.8263                 3.3209
 Frc consts  --      0.1254                 0.1675                 0.3719
 IR Inten    --      0.7939                 3.2240                 5.0736

                     10                     11                     12
                      A                      A                      A
 Frequencies --    473.0835               553.1819               655.0988
 Red. masses --      3.1529                 4.6676                 3.8786
 Frc consts  --      0.4157                 0.8416                 0.9807
 IR Inten    --      1.0049                 4.6353                 1.3385

                     13                     14                     15
                      A                      A                      A
 Frequencies --    680.8035               738.3605               788.8456
 Red. masses --      4.0024                 2.1352                 2.1882
 Frc consts  --      1.0930                 0.6858                 0.8023
 IR Inten    --      2.7314                 5.3560                21.1946

                     16                     17                     18
                      A                      A                      A
 Frequencies --    805.0456               856.8889               872.1917
 Red. masses --      3.7844                 4.1751                 2.0726
 Frc consts  --      1.4451                 1.8062                 0.9289
 IR Inten    --      3.1842                19.5898                 7.3473

                     19                     20                     21
                      A                      A                      A
 Frequencies --    893.4530               965.0031               986.5239
 Red. masses --      3.2190                 2.1616                 2.3882
 Frc consts  --      1.5140                 1.1860                 1.3694
 IR Inten    --     30.5026                 8.7709                 1.3144

                     22                     23                     24
                      A                      A                      A
 Frequencies --   1027.2087              1053.4187              1097.7113
 Red. masses --      1.3270                 1.8152                 1.8861
 Frc consts  --      0.8250                 1.1868                 1.3390
 IR Inten    --      1.5647                 1.9695                 9.7172

                     25                     26                     27
                      A                      A                      A
 Frequencies --   1116.4524              1160.8974              1190.3688
 Red. masses --      1.8745                 2.3538                 1.6679
 Frc consts  --      1.3767                 1.8690                 1.3924
 IR Inten    --      1.7974                 3.7535                 2.1228

                     28                     29                     30
                      A                      A                      A
 Frequencies --   1213.1221              1222.2834              1284.0527
 Red. masses --      1.6235                 1.7866                 1.3322
 Frc consts  --      1.4077                 1.5726                 1.2942
 IR Inten    --      0.0283                 4.6866                 4.3746

                     31                     32                     33
                      A                      A                      A
 Frequencies --   1330.2124              1354.2210              1398.3981
 Red. masses --      1.4461                 1.8421                 1.4286
 Frc consts  --      1.5076                 1.9904                 1.6460
 IR Inten    --     10.0054                 1.8975                 0.4590

                     34                     35                     36
                      A                      A                      A
 Frequencies --   1413.5115              1424.8756              1474.3579
 Red. masses --      1.2338                 2.2530                 1.0458
 Frc consts  --      1.4524                 2.6950                 1.3393
 IR Inten    --      2.9105                11.6437                 3.8624

                     37                     38                     39
                      A                      A                      A
 Frequencies --   1484.9703              1487.3374              1500.1231
 Red. masses --      1.0584                 1.0481                 1.0399
 Frc consts  --      1.3751                 1.3661                 1.3787
 IR Inten    --      3.1378                 3.4078                 6.0410

                     40                     41                     42
                      A                      A                      A
 Frequencies --   1506.0548              1926.8697              3022.9217
 Red. masses --      1.0752                12.5866                 1.0593
 Frc consts  --      1.4369                27.5337                 5.7033
 IR Inten    --      4.6361               338.8458                14.3194

                     43                     44                     45
                      A                      A                      A
 Frequencies --   3035.2091              3042.8508              3052.7101
 Red. masses --      1.0355                 1.0348                 1.0990
 Frc consts  --      5.6203                 5.6450                 6.0343
 IR Inten    --     25.1527                11.7648                 5.4638

                     46                     47                     48
                      A                      A                      A
 Frequencies --   3074.1329              3103.0501              3110.4471
 Red. masses --      1.0872                 1.1021                 1.1013
 Frc consts  --      6.0537                 6.2522                 6.2777
 IR Inten    --     14.4787                37.1421                27.4286

                     49                     50                     51
                      A                      A                      A
 Frequencies --   3115.7425              3120.9406              3156.4507
 Red. masses --      1.1010                 1.1017                 1.0941
 Frc consts  --      6.2976                 6.3225                 6.4228
 IR Inten    --      9.8877                 8.5244                21.9525

 - Thermochemistry -
 -------------------
 Temperature   298.150 Kelvin.  Pressure   1.00000 Atm.
 Atom     1 has atomic number  6 and mass  12.00000

 Molecular mass:   126.06808 amu.
 Principal axes and moments of inertia in atomic units:
                           1         2         3
     Eigenvalues --   771.077131397.023941567.85136
           X            0.99894  -0.04373  -0.01418
           Y            0.04523   0.99022   0.13200
           Z            0.00827  -0.13250   0.99115
 This molecule is an asymmetric top.
 Rotational symmetry number  1.
 Warning -- assumption of classical behavior for rotation
           may cause significant error
 Rotational temperatures (Kelvin)      0.11233     0.06200     0.05524
 Rotational constants (GHZ):           2.34055     1.29185     1.15109
 Zero-point vibrational energy     410991.7 (Joules/Mol)
                                   98.22938 (Kcal/Mol)
 Warning -- explicit consideration of  11 degrees of freedom as
           vibrations may cause significant error
 Vibrational temperatures:    103.10   186.11   203.44   227.27   293.76
          (Kelvin)            319.51   378.85   456.38   627.23   680.66
                              795.90   942.54   979.52  1062.33  1134.97
                             1158.28  1232.87  1254.89  1285.48  1388.42
                             1419.39  1477.92  1515.63  1579.36  1606.32
                             1670.27  1712.67  1745.41  1758.59  1847.46
                             1913.88  1948.42  2011.98  2033.73  2050.08
                             2121.27  2136.54  2139.94  2158.34  2166.87
                             2772.33  4349.30  4366.98  4377.98  4392.16
                             4422.99  4464.59  4475.23  4482.85  4490.33
                             4541.42

 Zero-point correction=                           0.156538 (Hartree/Particle)
 Thermal correction to Energy=                    0.165814
 Thermal correction to Enthalpy=                  0.166758
 Thermal correction to Gibbs Free Energy=         0.122314
 Sum of electronic and zero-point Energies=           -422.983546
 Sum of electronic and thermal Energies=              -422.974271
 Sum of electronic and thermal Enthalpies=            -422.973327
 Sum of electronic and thermal Free Energies=         -423.017770

                     E (Thermal)             CV                S
                      KCal/Mol        Cal/Mol-Kelvin    Cal/Mol-Kelvin
 Total                  104.050             33.960             93.540
 Electronic               0.000              0.000              0.000
 Translational            0.889              2.981             40.409
 Rotational               0.889              2.981             28.914
 Vibrational            102.272             27.998             24.217
 Vibration     1          0.598              1.968              4.107
 Vibration     2          0.612              1.924              2.956
 Vibration     3          0.615              1.912              2.785
 Vibration     4          0.621              1.894              2.574
 Vibration     5          0.640              1.834              2.095
 Vibration     6          0.648              1.807              1.942
 Vibration     7          0.670              1.740              1.640
 Vibration     8          0.704              1.641              1.325
 Vibration     9          0.796              1.392              0.839
 Vibration    10          0.830              1.310              0.729
 Vibration    11          0.909              1.133              0.538

 Optimization completed.
    -- Stationary point found.
 Normal termination of Gaussian 09 at Tue Jan 28 14:43:21 2020.
