 Gaussian 09, Revision D.01,
 Gaussian 09:  ES64L-G09RevD.01 24-Apr-2013

 -----------------------------
 # b3lyp 6-31G(2df,p) opt Freq
 -----------------------------

 -----
 titel
 -----
 Symbolic Z-matrix:
 Charge =  0 Multiplicity = 1

 SCF Done:  E(RB3LYP) =  -423.169287832     A.U. after   13 cycles
 Optimization completed.
    -- Stationary point found.
 Normal termination of Gaussian 09 at Tue Jan 28 12:40:04 2020.

 ----------------------------------------------------------------------
 #N Geom=AllCheck Guess=TCheck SCRF=Check GenChk RB3LYP/6-31G(2df,p) Fr
 eq
 ----------------------------------------------------------------------

 Structure from the checkpoint file:  "/scratch/puck/g09_d250091c-fcaa-4e82-b44d-39d4ecb17bb3/Gau-30036.chk"
 -----
 titel
 -----
 Charge =  0 Multiplicity = 1

                         Standard orientation:
 ---------------------------------------------------------------------
 Center     Atomic      Atomic             Coordinates (Angstroms)
 Number     Number       Type             X           Y           Z
 ---------------------------------------------------------------------
      1          8           0       -2.442406   -1.267571   -0.440197
      2          6           0       -2.277039   -0.064892    0.306236
      3          6           0       -0.887531    0.489863    0.214647
      4          6           0       -0.508105    1.660235   -0.310420
      5          6           0        0.985702    1.891551   -0.217240
      6          6           0        1.509652    0.580229    0.367116
      7          6           0        1.268977   -0.698416   -0.392460
      8          8           0        2.071187   -1.802757   -0.092238
      9          6           0        0.296815   -0.292730    0.688543
     10          1           0       -1.767521   -1.888816   -0.146945
     11          1           0       -2.999814    0.646575   -0.103659
     12          1           0       -2.542708   -0.227569    1.365136
     13          1           0       -1.180612    2.376134   -0.770719
     14          1           0        1.428450    2.119073   -1.196264
     15          1           0        1.222118    2.746245    0.431430
     16          1           0        2.361127    0.584724    1.037648
     17          1           0        0.918970   -0.638636   -1.424241
     18          1           0        2.949907   -1.640587   -0.452049
     19          1           0        0.249015   -0.909563    1.580604
 ---------------------------------------------------------------------

 SCF Done:  E(RB3LYP) =  -423.169287832     A.U. after    1 cycles

 The electronic state is 1-A.
 Alpha  occ. eigenvalues --  -19.14537 -19.12913 -10.23635 -10.22719 -10.19106
 Alpha  occ. eigenvalues --  -10.19076 -10.19034 -10.18494 -10.17941  -1.03065
 Alpha  occ. eigenvalues --   -1.00933  -0.88226  -0.76952  -0.72863  -0.65410
 Alpha  occ. eigenvalues --   -0.60644  -0.57310  -0.54162  -0.52455  -0.49386
 Alpha  occ. eigenvalues --   -0.46765  -0.45253  -0.43037  -0.41465  -0.40762
 Alpha  occ. eigenvalues --   -0.38230  -0.36461  -0.35518  -0.33451  -0.31938
 Alpha  occ. eigenvalues --   -0.29607  -0.26542  -0.25556  -0.22962
 Alpha virt. eigenvalues --    0.01398   0.07934   0.09129   0.10286   0.12075
 Alpha virt. eigenvalues --    0.12779   0.14006   0.15135   0.16330   0.16965
 Alpha virt. eigenvalues --    0.17498   0.18430   0.20491   0.22165   0.23725

 Mulliken charges:
               1
     1  O   -0.417574
     2  C   -0.180280
     3  C    0.324488
     4  C   -0.192509
     5  C   -0.277527
     6  C   -0.105634
     7  C    0.097677
     8  O   -0.432125
     9  C   -0.183472
    10  H    0.290255
    11  H    0.113133
    12  H    0.090024
    13  H    0.092890
    14  H    0.108449
    15  H    0.108966
    16  H    0.089321
    17  H    0.092801
    18  H    0.286712
    19  H    0.094404
 Sum of Mulliken charges =   0.00000

 Dipole moment (field-independent basis, Debye):
    X=              2.0197    Y=              1.3099    Z=              0.3512  Tot=              2.4328
 Quadrupole moment (field-independent basis, Debye-Ang):
   XX=            -51.7907   YY=            -53.8699   ZZ=            -52.9617
   XY=             -1.9827   XZ=             -4.1052   YZ=             -1.2794

  Exact polarizability:  85.889   0.943  85.571  -1.707  -5.401  60.633
 Approx polarizability: 115.359   5.125 132.235  -3.210 -11.319  96.469

                      1                      2                      3
                      A                      A                      A
 Frequencies --     85.7641               100.4061               223.2753
 Red. masses --      3.3895                 4.8016                 2.4552
 Frc consts  --      0.0147                 0.0285                 0.0721
 IR Inten    --      1.5930                 1.1662                17.9147

                      4                      5                      6
                      A                      A                      A
 Frequencies --    237.0571               253.9655               293.2011
 Red. masses --      1.8557                 1.7620                 1.3359
 Frc consts  --      0.0614                 0.0670                 0.0677
 IR Inten    --     37.0639                46.5445                94.0652

                      7                      8                      9
                      A                      A                      A
 Frequencies --    310.6617               343.3445               385.9122
 Red. masses --      1.7744                 2.4950                 2.9783
 Frc consts  --      0.1009                 0.1733                 0.2613
 IR Inten    --      9.5043                37.5224                 1.6709

                     10                     11                     12
                      A                      A                      A
 Frequencies --    440.3246               542.9805               704.3087
 Red. masses --      4.6411                 4.0149                 4.0568
 Frc consts  --      0.5302                 0.6974                 1.1857
 IR Inten    --     15.3676                 1.7291                13.3469

                     13                     14                     15
                      A                      A                      A
 Frequencies --    734.4351               828.1023               834.5640
 Red. masses --      4.8900                 1.3175                 1.6117
 Frc consts  --      1.5540                 0.5323                 0.6614
 IR Inten    --      3.9022                11.3100                 6.4464

                     16                     17                     18
                      A                      A                      A
 Frequencies --    849.1494               889.6310               943.1833
 Red. masses --      3.1792                 2.7403                 2.3014
 Frc consts  --      1.3507                 1.2778                 1.2062
 IR Inten    --      3.9904                17.3262                17.5925

                     19                     20                     21
                      A                      A                      A
 Frequencies --    958.0205               989.5299               996.0495
 Red. masses --      2.2092                 1.8016                 1.7493
 Frc consts  --      1.1947                 1.0393                 1.0225
 IR Inten    --      5.8146                12.4774                 7.4077

                     22                     23                     24
                      A                      A                      A
 Frequencies --   1038.9929              1044.3571              1068.4167
 Red. masses --      3.5879                 2.3280                 1.3409
 Frc consts  --      2.2820                 1.4960                 0.9018
 IR Inten    --     42.2278                44.2730                 2.3273

                     25                     26                     27
                      A                      A                      A
 Frequencies --   1086.9191              1128.5579              1171.1287
 Red. masses --      1.2214                 2.1429                 1.8367
 Frc consts  --      0.8501                 1.6080                 1.4842
 IR Inten    --      8.5085                57.3962                 6.4693

                     28                     29                     30
                      A                      A                      A
 Frequencies --   1182.9938              1192.7026              1205.9477
 Red. masses --      1.4889                 1.3627                 1.6470
 Frc consts  --      1.2276                 1.1421                 1.4113
 IR Inten    --     21.9169                12.4218                13.9039

                     31                     32                     33
                      A                      A                      A
 Frequencies --   1259.1437              1292.0417              1301.8289
 Red. masses --      1.4735                 1.2025                 1.5503
 Frc consts  --      1.3764                 1.1827                 1.5480
 IR Inten    --      7.9245                46.8343                 0.4020

                     34                     35                     36
                      A                      A                      A
 Frequencies --   1333.9534              1360.8555              1370.6963
 Red. masses --      1.5290                 1.3426                 2.0802
 Frc consts  --      1.6031                 1.4650                 2.3027
 IR Inten    --     10.4109                 1.8737                 9.5052

                     37                     38                     39
                      A                      A                      A
 Frequencies --   1420.8989              1440.0279              1481.7726
 Red. masses --      1.2606                 2.2436                 1.0965
 Frc consts  --      1.4995                 2.7412                 1.4185
 IR Inten    --     63.4048                23.7640                 1.8260

                     40                     41                     42
                      A                      A                      A
 Frequencies --   1498.9012              1702.6886              2952.6285
 Red. masses --      1.0951                 7.4177                 1.0717
 Frc consts  --      1.4496                12.6703                 5.5050
 IR Inten    --      0.7163                 1.0388                65.5586

                     43                     44                     45
                      A                      A                      A
 Frequencies --   3009.0990              3034.6211              3084.6072
 Red. masses --      1.0604                 1.1007                 1.0898
 Frc consts  --      5.6574                 5.9721                 6.1095
 IR Inten    --     50.1983                22.5478                25.2080

                     46                     47                     48
                      A                      A                      A
 Frequencies --   3087.5134              3161.0932              3181.6400
 Red. masses --      1.0879                 1.0892                 1.0908
 Frc consts  --      6.1101                 6.4124                 6.5055
 IR Inten    --     25.1456                10.2005                15.2527

                     49                     50                     51
                      A                      A                      A
 Frequencies --   3191.2800              3798.4652              3812.6525
 Red. masses --      1.0937                 1.0662                 1.0661
 Frc consts  --      6.5626                 9.0635                 9.1311
 IR Inten    --     10.6940                19.8123                16.9702

 - Thermochemistry -
 -------------------
 Temperature   298.150 Kelvin.  Pressure   1.00000 Atm.
 Atom     1 has atomic number  8 and mass  15.99491

 Molecular mass:   126.06808 amu.
 Principal axes and moments of inertia in atomic units:
                           1         2         3
     Eigenvalues --   783.491671296.104661895.90454
           X            0.99992   0.00866  -0.00950
           Y           -0.00879   0.99986  -0.01454
           Z            0.00938   0.01463   0.99985
 This molecule is an asymmetric top.
 Rotational symmetry number  1.
 Warning -- assumption of classical behavior for rotation
           may cause significant error
 Rotational temperatures (Kelvin)      0.11055     0.06683     0.04568
 Rotational constants (GHZ):           2.30346     1.39243     0.95192
 Zero-point vibrational energy     417737.7 (Joules/Mol)
                                   99.84171 (Kcal/Mol)
 Warning -- explicit consideration of  11 degrees of freedom as
           vibrations may cause significant error
 Vibrational temperatures:    123.40   144.46   321.24   341.07   365.40
          (Kelvin)            421.85   446.97   494.00   555.24   633.53
                              781.23  1013.34  1056.69  1191.45  1200.75
                             1221.74  1279.98  1357.03  1378.38  1423.71
                             1433.09  1494.88  1502.60  1537.21  1563.83
                             1623.74  1684.99  1702.06  1716.03  1735.09
                             1811.62  1858.96  1873.04  1919.26  1957.97
                             1972.12  2044.35  2071.88  2131.94  2156.58
                             2449.79  4248.17  4329.42  4366.14  4438.06
                             4442.24  4548.10  4577.66  4591.53  5465.14
                             5485.55

 Zero-point correction=                           0.159108 (Hartree/Particle)
 Thermal correction to Energy=                    0.167876
 Thermal correction to Enthalpy=                  0.168820
 Thermal correction to Gibbs Free Energy=         0.125614
 Sum of electronic and zero-point Energies=           -423.010180
 Sum of electronic and thermal Energies=              -423.001412
 Sum of electronic and thermal Enthalpies=            -423.000467
 Sum of electronic and thermal Free Energies=         -423.043674

                     E (Thermal)             CV                S
                      KCal/Mol        Cal/Mol-Kelvin    Cal/Mol-Kelvin
 Total                  105.344             33.292             90.936
 Electronic               0.000              0.000              0.000
 Translational            0.889              2.981             40.409
 Rotational               0.889              2.981             29.044
 Vibrational            103.566             27.330             21.483
 Vibration     1          0.601              1.959              3.754
 Vibration     2          0.604              1.949              3.446
 Vibration     3          0.649              1.806              1.932
 Vibration     4          0.656              1.784              1.825
 Vibration     5          0.665              1.756              1.703
 Vibration     6          0.688              1.686              1.455
 Vibration     7          0.700              1.653              1.359
 Vibration     8          0.722              1.589              1.197
 Vibration     9          0.755              1.500              1.016
 Vibration    10          0.800              1.382              0.826
 Vibration    11          0.898              1.155              0.559

 Normal termination of Gaussian 09 at Tue Jan 28 13:22:20 2020.
