 Gaussian 09, Revision D.01,
 Gaussian 09:  ES64L-G09RevD.01 24-Apr-2013

 -----------------------------
 # b3lyp 6-31G(2df,p) opt Freq
 -----------------------------

 -----
 titel
 -----
 Symbolic Z-matrix:
 Charge =  0 Multiplicity = 1

 SCF Done:  E(RB3LYP) =  -423.262482278     A.U. after   14 cycles
 Optimization completed.
    -- Stationary point found.
 Normal termination of Gaussian 09 at Mon Jan 27 12:57:35 2020.

 ----------------------------------------------------------------------
 #N Geom=AllCheck Guess=TCheck SCRF=Check GenChk RB3LYP/6-31G(2df,p) Fr
 eq
 ----------------------------------------------------------------------

 Structure from the checkpoint file:  "/scratch/puck/g09_d74b14d1-37ff-442a-9d59-9fb905a1bc9f/Gau-73325.chk"
 -----
 titel
 -----
 Charge =  0 Multiplicity = 1

                         Standard orientation:
 ---------------------------------------------------------------------
 Center     Atomic      Atomic             Coordinates (Angstroms)
 Number     Number       Type             X           Y           Z
 ---------------------------------------------------------------------
      1          8           0       -2.671782   -0.298059   -0.713319
      2          6           0       -1.636409   -0.101638   -0.146549
      3          6           0       -1.041890    1.228030    0.301043
      4          6           0        0.396882    0.909821    0.723167
      5          6           0        1.490885    1.199167   -0.343870
      6          6           0        1.803432   -0.158241   -1.005591
      7          6           0        1.623311   -1.159721    0.145956
      8          6           0        0.387205   -0.643451    0.881781
      9          8           0       -0.798857   -1.111675    0.208343
     10          1           0       -1.125685    1.959276   -0.505827
     11          1           0       -1.649479    1.599460    1.132930
     12          1           0        0.644826    1.397472    1.667310
     13          1           0        1.177218    1.962181   -1.061801
     14          1           0        2.389498    1.580470    0.152875
     15          1           0        1.081107   -0.375255   -1.800121
     16          1           0        2.799550   -0.192774   -1.453591
     17          1           0        1.499216   -2.196909   -0.173737
     18          1           0        2.482418   -1.116436    0.826591
     19          1           0        0.325953   -0.983408    1.919560
 ---------------------------------------------------------------------

 SCF Done:  E(RB3LYP) =  -423.262482278     A.U. after    1 cycles

 The electronic state is 1-A.
 Alpha  occ. eigenvalues --  -19.17600 -19.11567 -10.29868 -10.24769 -10.20523
 Alpha  occ. eigenvalues --  -10.20114 -10.19275 -10.19100 -10.18961  -1.09415
 Alpha  occ. eigenvalues --   -1.01517  -0.84699  -0.78050  -0.72329  -0.68871
 Alpha  occ. eigenvalues --   -0.60290  -0.58195  -0.55032  -0.52546  -0.47698
 Alpha  occ. eigenvalues --   -0.47139  -0.45313  -0.44589  -0.42137  -0.40322
 Alpha  occ. eigenvalues --   -0.38539  -0.36369  -0.36149  -0.34631  -0.33880
 Alpha  occ. eigenvalues --   -0.33498  -0.33035  -0.28846  -0.26052
 Alpha virt. eigenvalues --    0.01840   0.06347   0.09012   0.10645   0.12630
 Alpha virt. eigenvalues --    0.13429   0.14360   0.15370   0.15901   0.16713
 Alpha virt. eigenvalues --    0.17385   0.18823   0.19908   0.20989   0.21603

 Mulliken charges:
               1
     1  O   -0.336773
     2  C    0.421204
     3  C   -0.373447
     4  C   -0.036985
     5  C   -0.219344
     6  C   -0.212007
     7  C   -0.216151
     8  C    0.109249
     9  O   -0.230410
    10  H    0.138336
    11  H    0.139432
    12  H    0.083767
    13  H    0.103373
    14  H    0.103897
    15  H    0.118403
    16  H    0.101555
    17  H    0.118471
    18  H    0.101367
    19  H    0.086064
 Sum of Mulliken charges =   0.00000

 Dipole moment (field-independent basis, Debye):
    X=              3.6634    Y=              1.7616    Z=              1.7178  Tot=              4.4130
 Quadrupole moment (field-independent basis, Debye-Ang):
   XX=            -61.1168   YY=            -52.9251   ZZ=            -51.5232
   XY=             -3.6542   XZ=             -3.4013   YZ=             -0.4459

  Exact polarizability:  84.412  -2.681  71.002   3.215  -0.223  66.284
 Approx polarizability: 118.140  -2.148 103.127  10.918  -0.432 101.587

                      1                      2                      3
                      A                      A                      A
 Frequencies --     62.6778               100.2385               226.3236
 Red. masses --      2.5547                 5.5024                 2.4461
 Frc consts  --      0.0059                 0.0326                 0.0738
 IR Inten    --      2.8938                 0.5405                 0.2853

                      4                      5                      6
                      A                      A                      A
 Frequencies --    341.1542               381.0492               498.8816
 Red. masses --      2.5450                 2.0481                 3.7956
 Frc consts  --      0.1745                 0.1752                 0.5566
 IR Inten    --      1.8398                 0.4881                 2.6032

                      7                      8                      9
                      A                      A                      A
 Frequencies --    537.4830               572.9163               596.0496
 Red. masses --      2.9400                 3.1119                 2.3533
 Frc consts  --      0.5004                 0.6018                 0.4926
 IR Inten    --      3.0938                 2.4857                 0.3160

                     10                     11                     12
                      A                      A                      A
 Frequencies --    658.6981               774.7746               813.3345
 Red. masses --      5.6588                 3.2065                 2.6374
 Frc consts  --      1.4466                 1.1340                 1.0279
 IR Inten    --      8.2965                 1.4542                 2.4649

                     13                     14                     15
                      A                      A                      A
 Frequencies --    833.2967               854.8070               888.2828
 Red. masses --      4.1807                 2.0654                 2.1480
 Frc consts  --      1.7104                 0.8892                 0.9986
 IR Inten    --      1.0942                 1.3588                 9.9188

                     16                     17                     18
                      A                      A                      A
 Frequencies --    903.5430               916.9863               970.7345
 Red. masses --      2.5924                 2.4447                 1.8460
 Frc consts  --      1.2469                 1.2112                 1.0249
 IR Inten    --      6.7968                 4.8094                 2.3939

                     19                     20                     21
                      A                      A                      A
 Frequencies --   1002.4913              1005.4121              1046.9644
 Red. masses --      1.7780                 2.3144                 2.2188
 Frc consts  --      1.0528                 1.3784                 1.4330
 IR Inten    --      0.2263                38.7709                42.9702

                     22                     23                     24
                      A                      A                      A
 Frequencies --   1073.5442              1115.3893              1156.0993
 Red. masses --      1.9287                 1.9508                 1.2793
 Frc consts  --      1.3097                 1.4300                 1.0074
 IR Inten    --      2.6944                17.6230                10.4051

                     25                     26                     27
                      A                      A                      A
 Frequencies --   1175.5707              1188.9700              1209.0021
 Red. masses --      2.5557                 1.6381                 1.4318
 Frc consts  --      2.0809                 1.3644                 1.2331
 IR Inten    --    151.7056                45.9389                 4.1131

                     28                     29                     30
                      A                      A                      A
 Frequencies --   1231.1066              1276.2666              1288.9094
 Red. masses --      1.6206                 1.5979                 1.4026
 Frc consts  --      1.4472                 1.5335                 1.3728
 IR Inten    --     27.0894                 2.8173                 0.8112

                     31                     32                     33
                      A                      A                      A
 Frequencies --   1317.0480              1333.4651              1340.9680
 Red. masses --      1.3812                 1.4642                 1.2762
 Frc consts  --      1.4116                 1.5340                 1.3521
 IR Inten    --      4.5753                14.0510                 0.7641

                     34                     35                     36
                      A                      A                      A
 Frequencies --   1358.0409              1363.8579              1386.1784
 Red. masses --      1.4596                 1.5036                 1.3827
 Frc consts  --      1.5860                 1.6478                 1.5653
 IR Inten    --      4.8906                 4.0670                12.0435

                     37                     38                     39
                      A                      A                      A
 Frequencies --   1459.6069              1478.5598              1494.5378
 Red. masses --      1.0857                 1.0950                 1.0821
 Frc consts  --      1.3629                 1.4104                 1.4241
 IR Inten    --      5.6780                 4.8600                 3.3962

                     40                     41                     42
                      A                      A                      A
 Frequencies --   1508.2002              1878.8435              3038.6696
 Red. masses --      1.1004                12.8668                 1.0681
 Frc consts  --      1.4748                26.7609                 5.8107
 IR Inten    --      3.2714               391.7450                12.6106

                     43                     44                     45
                      A                      A                      A
 Frequencies --   3044.5648              3051.3148              3059.7462
 Red. masses --      1.0658                 1.0624                 1.0662
 Frc consts  --      5.8206                 5.8281                 5.8809
 IR Inten    --     22.2803                18.3601                 8.7343

                     46                     47                     48
                      A                      A                      A
 Frequencies --   3066.1843              3088.8143              3093.8610
 Red. masses --      1.0856                 1.0936                 1.0918
 Frc consts  --      6.0135                 6.1477                 6.1574
 IR Inten    --     44.7935                 9.0741                34.2172

                     49                     50                     51
                      A                      A                      A
 Frequencies --   3105.0212              3112.0424              3113.4719
 Red. masses --      1.0992                 1.1001                 1.0995
 Frc consts  --      6.2441                 6.2772                 6.2798
 IR Inten    --     28.8901                20.6727                18.4366

 - Thermochemistry -
 -------------------
 Temperature   298.150 Kelvin.  Pressure   1.00000 Atm.
 Atom     1 has atomic number  8 and mass  15.99491

 Molecular mass:   126.06808 amu.
 Principal axes and moments of inertia in atomic units:
                           1         2         3
     Eigenvalues --   588.186051264.664761461.15340
           X            0.99949  -0.02572  -0.01885
           Y            0.02571   0.99967  -0.00093
           Z            0.01887   0.00044   0.99982
 This molecule is an asymmetric top.
 Rotational symmetry number  1.
 Warning -- assumption of classical behavior for rotation
           may cause significant error
 Rotational temperatures (Kelvin)      0.14726     0.06849     0.05928
 Rotational constants (GHZ):           3.06832     1.42705     1.23515
 Zero-point vibrational energy     427030.7 (Joules/Mol)
                                  102.06278 (Kcal/Mol)
 Warning -- explicit consideration of   9 degrees of freedom as
           vibrations may cause significant error
 Vibrational temperatures:     90.18   144.22   325.63   490.84   548.24
          (Kelvin)            717.78   773.32   824.30   857.58   947.72
                             1114.73  1170.21  1198.93  1229.88  1278.04
                             1300.00  1319.34  1396.67  1442.36  1446.56
                             1506.35  1544.59  1604.79  1663.37  1691.38
                             1710.66  1739.48  1771.29  1836.26  1854.45
                             1894.94  1918.56  1929.35  1953.92  1962.28
                             1994.40  2100.05  2127.32  2150.30  2169.96
                             2703.23  4371.96  4380.44  4390.16  4402.29
                             4411.55  4444.11  4451.37  4467.43  4477.53
                             4479.59

 Zero-point correction=                           0.162647 (Hartree/Particle)
 Thermal correction to Energy=                    0.169971
 Thermal correction to Enthalpy=                  0.170916
 Thermal correction to Gibbs Free Energy=         0.130271
 Sum of electronic and zero-point Energies=           -423.099835
 Sum of electronic and thermal Energies=              -423.092511
 Sum of electronic and thermal Enthalpies=            -423.091567
 Sum of electronic and thermal Free Energies=         -423.132212

                     E (Thermal)             CV                S
                      KCal/Mol        Cal/Mol-Kelvin    Cal/Mol-Kelvin
 Total                  106.659             28.733             85.545
 Electronic               0.000              0.000              0.000
 Translational            0.889              2.981             40.409
 Rotational               0.889              2.981             28.476
 Vibrational            104.881             22.772             16.660
 Vibration     1          0.597              1.972              4.371
 Vibration     2          0.604              1.949              3.450
 Vibration     3          0.650              1.801              1.908
 Vibration     4          0.721              1.593              1.207
 Vibration     5          0.751              1.511              1.035
 Vibration     6          0.854              1.252              0.661
 Vibration     7          0.893              1.167              0.571
 Vibration     8          0.929              1.090              0.499
 Vibration     9          0.954              1.040              0.457

 Normal termination of Gaussian 09 at Mon Jan 27 13:42:59 2020.
