 Gaussian 09, Revision D.01,
 Gaussian 09:  ES64L-G09RevD.01 24-Apr-2013

 -----------------------------
 # b3lyp 6-31G(2df,p) opt Freq
 -----------------------------

 -----
 titel
 -----
 Symbolic Z-matrix:
 Charge =  0 Multiplicity = 1

 SCF Done:  E(RB3LYP) =  -423.125669484     A.U. after   13 cycles
 Optimization completed.
    -- Stationary point found.
 Normal termination of Gaussian 09 at Mon Jan 27 17:38:47 2020.

 ----------------------------------------------------------------------
 #N Geom=AllCheck Guess=TCheck SCRF=Check GenChk RB3LYP/6-31G(2df,p) Fr
 eq
 ----------------------------------------------------------------------

 Structure from the checkpoint file:  "/scratch/puck/g09_c3e95475-180a-4969-b06c-ce9badad4f57/Gau-39962.chk"
 -----
 titel
 -----
 Charge =  0 Multiplicity = 1

                         Standard orientation:
 ---------------------------------------------------------------------
 Center     Atomic      Atomic             Coordinates (Angstroms)
 Number     Number       Type             X           Y           Z
 ---------------------------------------------------------------------
      1          6           0        2.394913    0.359941   -0.278270
      2          6           0        1.008282   -0.147733   -0.046512
      3          8           0        0.691074   -1.459037   -0.525106
      4          6           0        0.432892   -1.175507    0.852502
      5          6           0       -0.927904   -0.446417    0.931707
      6          6           0       -1.901095   -0.694929   -0.240975
      7          8           0       -1.282549    0.349014   -1.036703
      8          6           0       -0.344679    0.660018    0.013226
      9          6           0       -0.262839    2.125759    0.347387
     10          1           0        2.526281    0.656390   -1.325030
     11          1           0        2.609390    1.230974    0.348318
     12          1           0        3.125788   -0.421642   -0.053357
     13          1           0        0.900109   -1.822482    1.587355
     14          1           0       -1.321965   -0.232885    1.923990
     15          1           0       -1.834359   -1.672943   -0.724964
     16          1           0       -2.946852   -0.451847   -0.019867
     17          1           0        0.136129    2.687744   -0.504600
     18          1           0       -1.254414    2.522598    0.581837
     19          1           0        0.394272    2.297484    1.206408
 ---------------------------------------------------------------------

 SCF Done:  E(RB3LYP) =  -423.125669484     A.U. after    1 cycles

 The electronic state is 1-A.
 Alpha  occ. eigenvalues --  -19.15111 -19.12613 -10.23903 -10.23885 -10.23771
 Alpha  occ. eigenvalues --  -10.22436 -10.19133 -10.18812 -10.18318  -1.08422
 Alpha  occ. eigenvalues --   -1.02468  -0.79259  -0.75313  -0.72937  -0.67015
 Alpha  occ. eigenvalues --   -0.61524  -0.58651  -0.51401  -0.50301  -0.48721
 Alpha  occ. eigenvalues --   -0.45971  -0.45138  -0.42469  -0.41921  -0.40243
 Alpha  occ. eigenvalues --   -0.39565  -0.38839  -0.37489  -0.34486  -0.33558
 Alpha  occ. eigenvalues --   -0.30573  -0.26536  -0.25751  -0.23677
 Alpha virt. eigenvalues --    0.06318   0.09173   0.09299   0.11608   0.12621
 Alpha virt. eigenvalues --    0.12838   0.13704   0.15081   0.15974   0.16393
 Alpha virt. eigenvalues --    0.16969   0.17111   0.19366   0.20300   0.21755

 Mulliken charges:
               1
     1  C   -0.518118
     2  C    0.374110
     3  O   -0.271491
     4  C   -0.067078
     5  C   -0.185937
     6  C   -0.089639
     7  O   -0.324232
     8  C    0.394818
     9  C   -0.487992
    10  H    0.138295
    11  H    0.124620
    12  H    0.135212
    13  H    0.102544
    14  H    0.083045
    15  H    0.115675
    16  H    0.096821
    17  H    0.132337
    18  H    0.127538
    19  H    0.119471
 Sum of Mulliken charges =   0.00000

 Dipole moment (field-independent basis, Debye):
    X=              0.6566    Y=              0.8448    Z=              2.6012  Tot=              2.8126
 Quadrupole moment (field-independent basis, Debye-Ang):
   XX=            -50.3118   YY=            -53.0924   ZZ=            -54.2081
   XY=              2.3636   XZ=             -1.6674   YZ=             -1.5097

  Exact polarizability:  83.417   3.197  76.184  -1.935  -2.423  64.211
 Approx polarizability: 110.333   4.143 110.931  -2.916  -3.824 105.164

                      1                      2                      3
                      A                      A                      A
 Frequencies --    151.0923               185.8886               211.1765
 Red. masses --      2.3059                 1.1580                 1.4879
 Frc consts  --      0.0310                 0.0236                 0.0391
 IR Inten    --      0.4917                 0.1667                 0.2896

                      4                      5                      6
                      A                      A                      A
 Frequencies --    231.0714               259.2845               275.4506
 Red. masses --      1.5876                 2.4919                 2.9651
 Frc consts  --      0.0499                 0.0987                 0.1325
 IR Inten    --      0.4639                 2.3998                 1.3426

                      7                      8                      9
                      A                      A                      A
 Frequencies --    343.8964               384.9057               503.5873
 Red. masses --      3.9273                 3.2160                 2.5628
 Frc consts  --      0.2737                 0.2807                 0.3829
 IR Inten    --      1.7775                 2.4613                 3.9789

                     10                     11                     12
                      A                      A                      A
 Frequencies --    548.0487               603.8116               664.0320
 Red. masses --      4.9187                 3.7488                 4.0596
 Frc consts  --      0.8704                 0.8053                 1.0547
 IR Inten    --     10.9586                 3.5634                11.2462

                     13                     14                     15
                      A                      A                      A
 Frequencies --    779.4307               813.8170               818.0946
 Red. masses --      4.1772                 3.4700                 2.4120
 Frc consts  --      1.4952                 1.3540                 0.9511
 IR Inten    --      1.2568                 3.7646                 4.1356

                     16                     17                     18
                      A                      A                      A
 Frequencies --    853.8956               883.7820               901.3188
 Red. masses --      2.3636                 1.9154                 2.4698
 Frc consts  --      1.0154                 0.8815                 1.1821
 IR Inten    --      9.3562                 8.5827                22.6374

                     19                     20                     21
                      A                      A                      A
 Frequencies --    971.8969               989.7739              1003.4314
 Red. masses --      1.5503                 7.2270                 1.9561
 Frc consts  --      0.8628                 4.1714                 1.1604
 IR Inten    --      1.1199                78.1644                 7.0415

                     22                     23                     24
                      A                      A                      A
 Frequencies --   1030.9147              1063.5230              1085.2057
 Red. masses --      1.8468                 2.3561                 1.7774
 Frc consts  --      1.1564                 1.5701                 1.2333
 IR Inten    --      2.5486                 2.7404                18.1703

                     25                     26                     27
                      A                      A                      A
 Frequencies --   1103.9457              1136.1733              1159.2813
 Red. masses --      1.8616                 2.1249                 1.9277
 Frc consts  --      1.3367                 1.6161                 1.5264
 IR Inten    --      5.8836                21.1960                17.8375

                     28                     29                     30
                      A                      A                      A
 Frequencies --   1166.9657              1223.0916              1252.8135
 Red. masses --      1.2192                 3.2272                 1.4003
 Frc consts  --      0.9783                 2.8444                 1.2950
 IR Inten    --      3.7497                10.5167                 8.9967

                     31                     32                     33
                      A                      A                      A
 Frequencies --   1290.2981              1303.5960              1348.3836
 Red. masses --      1.8824                 2.9262                 1.4943
 Frc consts  --      1.8465                 2.9298                 1.6007
 IR Inten    --      5.1006                14.3533                 3.3157

                     34                     35                     36
                      A                      A                      A
 Frequencies --   1399.3446              1407.4631              1446.4189
 Red. masses --      1.3169                 1.3588                 3.0404
 Frc consts  --      1.5193                 1.5859                 3.7477
 IR Inten    --      5.3477                 6.5668                 9.7820

                     37                     38                     39
                      A                      A                      A
 Frequencies --   1478.4331              1483.8139              1486.9744
 Red. masses --      1.1372                 1.0489                 1.0829
 Frc consts  --      1.4645                 1.3606                 1.4107
 IR Inten    --      5.7629                 4.9626                 4.6928

                     40                     41                     42
                      A                      A                      A
 Frequencies --   1495.1665              1505.6592              3029.3305
 Red. masses --      1.0559                 1.1403                 1.0594
 Frc consts  --      1.3908                 1.5231                 5.7282
 IR Inten    --      3.0709                 0.3217                79.3694

                     43                     44                     45
                      A                      A                      A
 Frequencies --   3032.2085              3036.1098              3094.6595
 Red. masses --      1.0364                 1.0361                 1.1051
 Frc consts  --      5.6144                 5.6271                 6.2354
 IR Inten    --      9.9609                19.6680                21.5698

                     46                     47                     48
                      A                      A                      A
 Frequencies --   3098.4596              3101.2769              3114.8796
 Red. masses --      1.0999                 1.0999                 1.1014
 Frc consts  --      6.2213                 6.2331                 6.2964
 IR Inten    --      1.7913                25.8804                23.8159

                     49                     50                     51
                      A                      A                      A
 Frequencies --   3119.9403              3128.9621              3173.7209
 Red. masses --      1.1014                 1.0894                 1.0942
 Frc consts  --      6.3167                 6.2843                 6.4935
 IR Inten    --      9.6721                21.8256                23.9821

 - Thermochemistry -
 -------------------
 Temperature   298.150 Kelvin.  Pressure   1.00000 Atm.
 Atom     1 has atomic number  6 and mass  12.00000

 Molecular mass:   126.06808 amu.
 Principal axes and moments of inertia in atomic units:
                           1         2         3
     Eigenvalues --   726.96243 955.792091293.60548
           X            0.99707   0.07481  -0.01614
           Y           -0.07476   0.99719   0.00401
           Z            0.01639  -0.00279   0.99986
 This molecule is an asymmetric top.
 Rotational symmetry number  1.
 Warning -- assumption of classical behavior for rotation
           may cause significant error
 Rotational temperatures (Kelvin)      0.11914     0.09062     0.06696
 Rotational constants (GHZ):           2.48258     1.88822     1.39512
 Zero-point vibrational energy     413756.6 (Joules/Mol)
                                   98.89020 (Kcal/Mol)
 Warning -- explicit consideration of  11 degrees of freedom as
           vibrations may cause significant error
 Vibrational temperatures:    217.39   267.45   303.84   332.46   373.05
          (Kelvin)            396.31   494.79   553.79   724.55   788.52
                              868.75   955.39  1121.43  1170.90  1177.05
                             1228.56  1271.56  1296.80  1398.34  1424.06
                             1443.71  1483.25  1530.17  1561.37  1588.33
                             1634.70  1667.95  1679.00  1759.75  1802.52
                             1856.45  1875.58  1940.02  2013.34  2025.02
                             2081.07  2127.13  2134.87  2139.42  2151.21
                             2166.30  4358.53  4362.67  4368.28  4452.52
                             4457.99  4462.04  4481.61  4488.89  4501.87
                             4566.27

 Zero-point correction=                           0.157592 (Hartree/Particle)
 Thermal correction to Energy=                    0.165825
 Thermal correction to Enthalpy=                  0.166769
 Thermal correction to Gibbs Free Energy=         0.125424
 Sum of electronic and zero-point Energies=           -422.968078
 Sum of electronic and thermal Energies=              -422.959844
 Sum of electronic and thermal Enthalpies=            -422.958900
 Sum of electronic and thermal Free Energies=         -423.000245

                     E (Thermal)             CV                S
                      KCal/Mol        Cal/Mol-Kelvin    Cal/Mol-Kelvin
 Total                  104.057             32.312             87.018
 Electronic               0.000              0.000              0.000
 Translational            0.889              2.981             40.409
 Rotational               0.889              2.981             28.288
 Vibrational            102.279             26.351             18.322
 Vibration     1          0.619              1.901              2.658
 Vibration     2          0.632              1.859              2.268
 Vibration     3          0.643              1.824              2.033
 Vibration     4          0.653              1.793              1.871
 Vibration     5          0.668              1.747              1.667
 Vibration     6          0.677              1.719              1.562
 Vibration     7          0.723              1.588              1.194
 Vibration     8          0.754              1.502              1.020
 Vibration     9          0.859              1.242              0.649
 Vibration    10          0.903              1.144              0.548
 Vibration    11          0.962              1.024              0.443

 Normal termination of Gaussian 09 at Mon Jan 27 18:43:06 2020.
