 Gaussian 09, Revision D.01,
 Gaussian 09:  ES64L-G09RevD.01 24-Apr-2013

 -----------------------------
 # b3lyp 6-31G(2df,p) opt Freq
 -----------------------------

 -----
 titel
 -----
 Symbolic Z-matrix:
 Charge =  0 Multiplicity = 1

 SCF Done:  E(RB3LYP) =  -423.114289757     A.U. after   13 cycles
 Optimization completed.
    -- Stationary point found.
 Normal termination of Gaussian 09 at Mon Jan 27 16:24:39 2020.

 ----------------------------------------------------------------------
 #N Geom=AllCheck Guess=TCheck SCRF=Check GenChk RB3LYP/6-31G(2df,p) Fr
 eq
 ----------------------------------------------------------------------

 Structure from the checkpoint file:  "/scratch/puck/g09_c93a8e33-1aac-4908-ab7a-a0435fe6eb22/Gau-37040.chk"
 -----
 titel
 -----
 Charge =  0 Multiplicity = 1

                         Standard orientation:
 ---------------------------------------------------------------------
 Center     Atomic      Atomic             Coordinates (Angstroms)
 Number     Number       Type             X           Y           Z
 ---------------------------------------------------------------------
      1          8           0        1.264583   -1.415212   -0.770512
      2          6           0        1.052211   -0.204519   -0.081014
      3          6           0        2.094315    0.177051    0.950536
      4          6           0        2.068822    0.849589   -0.404805
      5          6           0       -0.380250    0.124926    0.151214
      6          6           0       -1.017076    1.501637    0.089663
      7          6           0       -1.528791    0.408137   -0.795491
      8          8           0       -2.437493   -0.434677   -0.086399
      9          6           0       -1.379843   -0.819410    0.830058
     10          1           0        1.102529   -2.140372   -0.157904
     11          1           0        1.775856    0.751740    1.813282
     12          1           0        2.885990   -0.539766    1.138242
     13          1           0        1.763317    1.887304   -0.459798
     14          1           0        2.829147    0.556382   -1.118824
     15          1           0       -1.636639    1.862809    0.906651
     16          1           0       -0.421764    2.259547   -0.408762
     17          1           0       -1.597614    0.443785   -1.876087
     18          1           0       -1.638246   -0.625949    1.878183
     19          1           0       -1.135618   -1.880832    0.699337
 ---------------------------------------------------------------------

 SCF Done:  E(RB3LYP) =  -423.114289757     A.U. after    1 cycles

 The electronic state is 1-A.
 Alpha  occ. eigenvalues --  -19.14332 -19.13637 -10.24662 -10.23724 -10.23510
 Alpha  occ. eigenvalues --  -10.20194 -10.19188 -10.18862 -10.18813  -1.05138
 Alpha  occ. eigenvalues --   -1.02891  -0.85686  -0.82433  -0.70539  -0.62956
 Alpha  occ. eigenvalues --   -0.61061  -0.58941  -0.54840  -0.53787  -0.49522
 Alpha  occ. eigenvalues --   -0.48269  -0.46224  -0.44358  -0.40497  -0.40213
 Alpha  occ. eigenvalues --   -0.39218  -0.36775  -0.35710  -0.33806  -0.33003
 Alpha  occ. eigenvalues --   -0.28489  -0.27063  -0.26599  -0.22929
 Alpha virt. eigenvalues --    0.06604   0.08207   0.10213   0.10430   0.11356
 Alpha virt. eigenvalues --    0.12007   0.13338   0.13893   0.15176   0.17510
 Alpha virt. eigenvalues --    0.18245   0.19847   0.20657   0.21040   0.22862

 Mulliken charges:
               1
     1  O   -0.456745
     2  C    0.256245
     3  C   -0.320688
     4  C   -0.304816
     5  C    0.257391
     6  C   -0.357076
     7  C    0.055661
     8  O   -0.284887
     9  C   -0.139937
    10  H    0.281181
    11  H    0.115541
    12  H    0.114208
    13  H    0.115621
    14  H    0.127605
    15  H    0.111799
    16  H    0.118442
    17  H    0.112024
    18  H    0.103690
    19  H    0.094742
 Sum of Mulliken charges =   0.00000

 Dipole moment (field-independent basis, Debye):
    X=              1.4006    Y=              0.3408    Z=              1.3142  Tot=              1.9506
 Quadrupole moment (field-independent basis, Debye-Ang):
   XX=            -59.9948   YY=            -49.2575   ZZ=            -52.2251
   XY=             -1.3451   XZ=              0.6953   YZ=             -3.3546

  Exact polarizability:  79.937   0.659  75.615   0.502  -3.326  69.055
 Approx polarizability: 108.373   1.582 112.889   2.817  -4.166 106.538

                      1                      2                      3
                      A                      A                      A
 Frequencies --     37.0437               147.2745               210.1051
 Red. masses --      3.4096                 4.1839                 3.3686
 Frc consts  --      0.0028                 0.0535                 0.0876
 IR Inten    --      1.0236                 2.1549                 2.6529

                      4                      5                      6
                      A                      A                      A
 Frequencies --    254.4312               299.9787               320.6336
 Red. masses --      1.2108                 3.2259                 2.3321
 Frc consts  --      0.0462                 0.1710                 0.1413
 IR Inten    --     85.5711                10.5908                 5.1598

                      7                      8                      9
                      A                      A                      A
 Frequencies --    362.1273               452.0625               462.4151
 Red. masses --      2.0857                 2.2135                 3.8299
 Frc consts  --      0.1612                 0.2665                 0.4825
 IR Inten    --     22.4134                 1.3497                 9.9085

                     10                     11                     12
                      A                      A                      A
 Frequencies --    511.3713               561.3072               758.4028
 Red. masses --      3.0947                 3.2496                 2.9630
 Frc consts  --      0.4768                 0.6032                 1.0041
 IR Inten    --      3.5722                 2.9270                 8.2314

                     13                     14                     15
                      A                      A                      A
 Frequencies --    777.9917               825.8540               854.3216
 Red. masses --      1.0851                 2.1720                 3.0035
 Frc consts  --      0.3870                 0.8728                 1.2916
 IR Inten    --      0.7567                15.5871                 5.5099

                     16                     17                     18
                      A                      A                      A
 Frequencies --    900.6117               923.3577               928.3979
 Red. masses --      2.0870                 2.9362                 1.8109
 Frc consts  --      0.9974                 1.4750                 0.9196
 IR Inten    --     13.4349                 9.8998                 5.5440

                     19                     20                     21
                      A                      A                      A
 Frequencies --    936.2878               983.1980               990.2314
 Red. masses --      1.4868                 2.5504                 2.7537
 Frc consts  --      0.7679                 1.4526                 1.5909
 IR Inten    --     16.2423                17.3076                18.1232

                     22                     23                     24
                      A                      A                      A
 Frequencies --   1000.7110              1012.5680              1051.2549
 Red. masses --      1.5460                 2.0407                 1.3990
 Frc consts  --      0.9122                 1.2328                 0.9110
 IR Inten    --      2.6922                23.3769                17.6528

                     25                     26                     27
                      A                      A                      A
 Frequencies --   1058.6933              1082.6492              1084.7756
 Red. masses --      1.8557                 1.6265                 1.4713
 Frc consts  --      1.2254                 1.1233                 1.0200
 IR Inten    --     14.7101                15.2113                 1.3468

                     28                     29                     30
                      A                      A                      A
 Frequencies --   1104.4679              1159.5682              1183.9644
 Red. masses --      2.8690                 1.2273                 1.9439
 Frc consts  --      2.0620                 0.9723                 1.6054
 IR Inten    --      6.4270                 2.7273                19.8270

                     31                     32                     33
                      A                      A                      A
 Frequencies --   1192.6811              1226.7666              1248.6319
 Red. masses --      1.3965                 1.9201                 2.2179
 Frc consts  --      1.1704                 1.7025                 2.0373
 IR Inten    --      6.8113                 6.0168               113.0690

                     34                     35                     36
                      A                      A                      A
 Frequencies --   1289.7145              1335.2147              1360.0546
 Red. masses --      1.7076                 1.6350                 1.6488
 Frc consts  --      1.6735                 1.7174                 1.7970
 IR Inten    --      5.5157                 4.9598                14.2487

                     37                     38                     39
                      A                      A                      A
 Frequencies --   1428.5867              1450.3714              1480.6787
 Red. masses --      1.7000                 1.1069                 1.5472
 Frc consts  --      2.0442                 1.3718                 1.9986
 IR Inten    --     11.7914                 3.0856                 0.3289

                     40                     41                     42
                      A                      A                      A
 Frequencies --   1498.5924              1510.9781              3013.7240
 Red. masses --      1.6200                 1.1699                 1.0543
 Frc consts  --      2.1436                 1.5737                 5.6419
 IR Inten    --      9.2279                 0.7468                65.3813

                     43                     44                     45
                      A                      A                      A
 Frequencies --   3062.4318              3112.8774              3133.5944
 Red. masses --      1.1108                 1.0554                 1.0527
 Frc consts  --      6.1376                 6.0254                 6.0905
 IR Inten    --     40.7337                12.1299                10.8278

                     46                     47                     48
                      A                      A                      A
 Frequencies --   3147.3346              3189.1887              3210.8636
 Red. masses --      1.0552                 1.0951                 1.1130
 Frc consts  --      6.1587                 6.5624                 6.7608
 IR Inten    --      7.5906                11.9034                10.3996

                     49                     50                     51
                      A                      A                      A
 Frequencies --   3221.6958              3240.1532              3805.1942
 Red. masses --      1.1186                 1.1164                 1.0662
 Frc consts  --      6.8406                 6.9054                 9.0956
 IR Inten    --      2.9196                 8.9182                15.6905

 - Thermochemistry -
 -------------------
 Temperature   298.150 Kelvin.  Pressure   1.00000 Atm.
 Atom     1 has atomic number  8 and mass  15.99491

 Molecular mass:   126.06808 amu.
 Principal axes and moments of inertia in atomic units:
                           1         2         3
     Eigenvalues --   562.189701390.953881572.91566
           X            0.99999   0.00367   0.00067
           Y           -0.00362   0.99839  -0.05669
           Z           -0.00088   0.05669   0.99839
 This molecule is an asymmetric top.
 Rotational symmetry number  1.
 Warning -- assumption of classical behavior for rotation
           may cause significant error
 Rotational temperatures (Kelvin)      0.15407     0.06227     0.05507
 Rotational constants (GHZ):           3.21020     1.29748     1.14739
 Zero-point vibrational energy     415076.6 (Joules/Mol)
                                   99.20568 (Kcal/Mol)
 Warning -- explicit consideration of  11 degrees of freedom as
           vibrations may cause significant error
 Vibrational temperatures:     53.30   211.89   302.29   366.07   431.60
          (Kelvin)            461.32   521.02   650.42   665.31   735.75
                              807.59  1091.17  1119.36  1188.22  1229.18
                             1295.78  1328.50  1335.76  1347.11  1414.60
                             1424.72  1439.80  1456.86  1512.52  1523.22
                             1557.69  1560.75  1589.08  1668.36  1703.46
                             1716.00  1765.04  1796.50  1855.61  1921.07
                             1956.81  2055.42  2086.76  2130.36  2156.14
                             2173.96  4336.07  4406.15  4478.73  4508.54
                             4528.31  4588.53  4619.71  4635.30  4661.85
                             5474.82

 Zero-point correction=                           0.158094 (Hartree/Particle)
 Thermal correction to Energy=                    0.166478
 Thermal correction to Enthalpy=                  0.167422
 Thermal correction to Gibbs Free Energy=         0.124750
 Sum of electronic and zero-point Energies=           -422.956195
 Sum of electronic and thermal Energies=              -422.947812
 Sum of electronic and thermal Enthalpies=            -422.946867
 Sum of electronic and thermal Free Energies=         -422.989540

                     E (Thermal)             CV                S
                      KCal/Mol        Cal/Mol-Kelvin    Cal/Mol-Kelvin
 Total                  104.467             32.655             89.812
 Electronic               0.000              0.000              0.000
 Translational            0.889              2.981             40.409
 Rotational               0.889              2.981             28.599
 Vibrational            102.689             26.694             20.804
 Vibration     1          0.594              1.982              5.411
 Vibration     2          0.617              1.906              2.707
 Vibration     3          0.642              1.825              2.043
 Vibration     4          0.665              1.755              1.700
 Vibration     5          0.693              1.674              1.417
 Vibration     6          0.706              1.634              1.307
 Vibration     7          0.736              1.550              1.113
 Vibration     8          0.811              1.356              0.790
 Vibration     9          0.820              1.333              0.759
 Vibration    10          0.866              1.225              0.630
 Vibration    11          0.917              1.115              0.521

 Optimization completed.
    -- Stationary point found.
 Normal termination of Gaussian 09 at Mon Jan 27 17:18:34 2020.
