 Gaussian 09, Revision D.01,
 Gaussian 09:  ES64L-G09RevD.01 24-Apr-2013

 -----------------------------
 # b3lyp 6-31G(2df,p) opt Freq
 -----------------------------

 -----
 titel
 -----
 Symbolic Z-matrix:
 Charge =  0 Multiplicity = 1

 SCF Done:  E(RB3LYP) =  -423.116452260     A.U. after   13 cycles
 Optimization completed.
    -- Stationary point found.
 Normal termination of Gaussian 09 at Tue Jan 28 00:08:29 2020.

 ----------------------------------------------------------------------
 #N Geom=AllCheck Guess=TCheck SCRF=Check GenChk RB3LYP/6-31G(2df,p) Fr
 eq
 ----------------------------------------------------------------------

 Structure from the checkpoint file:  "/scratch/puck/g09_ce10e6a2-c605-4be4-9d05-942587e4d5f6/Gau-56834.chk"
 -----
 titel
 -----
 Charge =  0 Multiplicity = 1

                         Standard orientation:
 ---------------------------------------------------------------------
 Center     Atomic      Atomic             Coordinates (Angstroms)
 Number     Number       Type             X           Y           Z
 ---------------------------------------------------------------------
      1          8           0        1.692699    1.480707    0.045101
      2          6           0        0.474581    0.930624   -0.387574
      3          6           0        0.581230   -0.373062   -1.182893
      4          6           0        1.385241   -1.242412   -0.142129
      5          6           0        0.667813   -0.874891    1.228784
      6          6           0       -0.379199   -0.000466    0.569848
      7          8           0       -1.676170    0.485070    0.924762
      8          6           0       -2.108672    0.162842   -0.444590
      9          6           0       -0.849429   -0.730315   -0.688357
     10          1           0        1.500605    2.263724    0.570154
     11          1           0       -0.154829    1.685226   -0.868061
     12          1           0        0.927419   -0.414678   -2.216191
     13          1           0        1.305261   -2.309050   -0.366623
     14          1           0        2.438597   -0.961789   -0.132799
     15          1           0        0.243262   -1.746493    1.731175
     16          1           0        1.340123   -0.349023    1.909779
     17          1           0       -3.046862   -0.397407   -0.425998
     18          1           0       -2.234195    1.063866   -1.052715
     19          1           0       -1.081003   -1.794500   -0.626156
 ---------------------------------------------------------------------

 SCF Done:  E(RB3LYP) =  -423.116452260     A.U. after    1 cycles

 The electronic state is 1-A.
 Alpha  occ. eigenvalues --  -19.14243 -19.13530 -10.23824 -10.23178 -10.22763
 Alpha  occ. eigenvalues --  -10.19792 -10.18615 -10.18409 -10.18391  -1.04246
 Alpha  occ. eigenvalues --   -1.02306  -0.87349  -0.73660  -0.69116  -0.67585
 Alpha  occ. eigenvalues --   -0.62927  -0.55571  -0.53442  -0.52084  -0.48501
 Alpha  occ. eigenvalues --   -0.47317  -0.44823  -0.44351  -0.40979  -0.39066
 Alpha  occ. eigenvalues --   -0.35909  -0.35460  -0.34756  -0.34308  -0.32087
 Alpha  occ. eigenvalues --   -0.30129  -0.29507  -0.26283  -0.22763
 Alpha virt. eigenvalues --    0.06971   0.07969   0.10120   0.10963   0.11625
 Alpha virt. eigenvalues --    0.13829   0.15447   0.15470   0.16126   0.17912
 Alpha virt. eigenvalues --    0.18345   0.19093   0.20420   0.20460   0.23100

 Mulliken charges:
               1
     1  O   -0.446141
     2  C    0.100157
     3  C   -0.104591
     4  C   -0.204117
     5  C   -0.305433
     6  C    0.412425
     7  O   -0.364011
     8  C   -0.161679
     9  C   -0.084544
    10  H    0.287734
    11  H    0.069908
    12  H    0.065278
    13  H    0.098084
    14  H    0.121243
    15  H    0.102739
    16  H    0.104453
    17  H    0.114465
    18  H    0.112176
    19  H    0.081853
 Sum of Mulliken charges =   0.00000

 Dipole moment (field-independent basis, Debye):
    X=             -0.1096    Y=             -0.0464    Z=             -0.7963  Tot=              0.8051
 Quadrupole moment (field-independent basis, Debye-Ang):
   XX=            -55.8494   YY=            -48.5827   ZZ=            -54.1281
   XY=              0.8941   XZ=              4.3210   YZ=              0.4826

  Exact polarizability:  82.734  -1.497  72.440   3.285  -0.562  66.643
 Approx polarizability: 117.682  -0.919 107.010   2.121   2.224 103.632

                      1                      2                      3
                      A                      A                      A
 Frequencies --    245.8431               258.7668               281.7247
 Red. masses --      4.4740                 1.8094                 1.7056
 Frc consts  --      0.1593                 0.0714                 0.0798
 IR Inten    --      8.8882                33.2449                55.7386

                      4                      5                      6
                      A                      A                      A
 Frequencies --    295.2592               310.9794               375.5908
 Red. masses --      2.0916                 2.2701                 3.5185
 Frc consts  --      0.1074                 0.1293                 0.2924
 IR Inten    --     13.6899                 4.0060                 5.5844

                      7                      8                      9
                      A                      A                      A
 Frequencies --    460.2550               527.7237               589.3202
 Red. masses --      2.6592                 3.9592                 4.7617
 Frc consts  --      0.3319                 0.6496                 0.9744
 IR Inten    --      3.7981                 2.4806                12.0477

                     10                     11                     12
                      A                      A                      A
 Frequencies --    718.3343               757.0610               776.0000
 Red. masses --      2.7744                 4.0666                 2.9127
 Frc consts  --      0.8435                 1.3732                 1.0334
 IR Inten    --      1.9180                 7.6211                 5.1250

                     13                     14                     15
                      A                      A                      A
 Frequencies --    809.0146               847.5615               854.1797
 Red. masses --      4.0419                 2.9293                 1.4327
 Frc consts  --      1.5587                 1.2398                 0.6159
 IR Inten    --      0.4440                 3.0960                 7.2957

                     16                     17                     18
                      A                      A                      A
 Frequencies --    886.1333               911.5138               921.0501
 Red. masses --      2.4359                 2.7795                 4.4829
 Frc consts  --      1.1270                 1.3606                 2.2407
 IR Inten    --     14.3599                 3.0056                41.0395

                     19                     20                     21
                      A                      A                      A
 Frequencies --    963.6266              1011.6100              1043.8863
 Red. masses --      2.5568                 2.1051                 1.6132
 Frc consts  --      1.3988                 1.2693                 1.0357
 IR Inten    --      4.4779                25.2263                 2.8706

                     22                     23                     24
                      A                      A                      A
 Frequencies --   1063.3383              1070.8836              1104.1263
 Red. masses --      1.9764                 1.4252                 2.0290
 Frc consts  --      1.3166                 0.9630                 1.4574
 IR Inten    --      7.9422                 2.8131                 5.9281

                     25                     26                     27
                      A                      A                      A
 Frequencies --   1143.7231              1159.6144              1169.3629
 Red. masses --      1.3207                 2.0300                 1.7089
 Frc consts  --      1.0178                 1.6083                 1.3767
 IR Inten    --      8.1829               104.9018                17.2110

                     28                     29                     30
                      A                      A                      A
 Frequencies --   1171.9796              1211.9346              1232.7533
 Red. masses --      1.6474                 1.7775                 1.2187
 Frc consts  --      1.3332                 1.5382                 1.0912
 IR Inten    --     35.0087                 6.5033                 0.6983

                     31                     32                     33
                      A                      A                      A
 Frequencies --   1256.0096              1264.9878              1279.5457
 Red. masses --      1.8970                 1.6084                 1.4360
 Frc consts  --      1.7632                 1.5164                 1.3852
 IR Inten    --     10.7448                 1.7958                14.7762

                     34                     35                     36
                      A                      A                      A
 Frequencies --   1289.7076              1326.8437              1335.2847
 Red. masses --      1.3860                 1.7815                 1.6028
 Frc consts  --      1.3583                 1.8479                 1.6838
 IR Inten    --     34.2291                14.7017                 9.3615

                     37                     38                     39
                      A                      A                      A
 Frequencies --   1356.5719              1445.5773              1479.2903
 Red. masses --      1.4532                 1.3524                 1.0940
 Frc consts  --      1.5757                 1.6651                 1.4104
 IR Inten    --      0.5463                 7.9077                 1.0075

                     40                     41                     42
                      A                      A                      A
 Frequencies --   1505.1124              1515.3591              3044.4486
 Red. masses --      1.1506                 1.1021                 1.0597
 Frc consts  --      1.5358                 1.4911                 5.7870
 IR Inten    --      8.6458                 0.1406                29.8191

                     43                     44                     45
                      A                      A                      A
 Frequencies --   3064.6742              3067.6760              3074.6005
 Red. masses --      1.0818                 1.0597                 1.0615
 Frc consts  --      5.9865                 5.8756                 5.9123
 IR Inten    --     71.4027                25.1362                34.2845

                     46                     47                     48
                      A                      A                      A
 Frequencies --   3089.1175              3105.5692              3109.1075
 Red. masses --      1.0918                 1.0992                 1.0967
 Frc consts  --      6.1385                 6.2463                 6.2460
 IR Inten    --      3.5600                60.7038                40.0776

                     49                     50                     51
                      A                      A                      A
 Frequencies --   3119.6268              3139.3209              3823.8767
 Red. masses --      1.1068                 1.1043                 1.0663
 Frc consts  --      6.3461                 6.4122                 9.1858
 IR Inten    --      9.2559                26.8075                32.6450

 - Thermochemistry -
 -------------------
 Temperature   298.150 Kelvin.  Pressure   1.00000 Atm.
 Atom     1 has atomic number  8 and mass  15.99491

 Molecular mass:   126.06808 amu.
 Principal axes and moments of inertia in atomic units:
                           1         2         3
     Eigenvalues --   658.568671053.729391163.29473
           X            0.99900  -0.02166   0.03917
           Y            0.02400   0.99789  -0.06031
           Z           -0.03778   0.06119   0.99741
 This molecule is an asymmetric top.
 Rotational symmetry number  1.
 Warning -- assumption of classical behavior for rotation
           may cause significant error
 Rotational temperatures (Kelvin)      0.13152     0.08220     0.07446
 Rotational constants (GHZ):           2.74040     1.71272     1.55140
 Zero-point vibrational energy     423869.6 (Joules/Mol)
                                  101.30726 (Kcal/Mol)
 Warning -- explicit consideration of   9 degrees of freedom as
           vibrations may cause significant error
 Vibrational temperatures:    353.71   372.31   405.34   424.81   447.43
          (Kelvin)            540.39   662.20   759.28   847.90  1033.52
                             1089.24  1116.49  1163.99  1219.45  1228.97
                             1274.95  1311.46  1325.18  1386.44  1455.48
                             1501.92  1529.90  1540.76  1588.59  1645.56
                             1668.42  1682.45  1686.22  1743.70  1773.65
                             1807.12  1820.03  1840.98  1855.60  1909.03
                             1921.17  1951.80  2079.86  2128.37  2165.52
                             2180.26  4380.28  4409.38  4413.70  4423.66
                             4444.55  4468.22  4473.31  4488.44  4516.78
                             5501.70

 Zero-point correction=                           0.161443 (Hartree/Particle)
 Thermal correction to Energy=                    0.168524
 Thermal correction to Enthalpy=                  0.169468
 Thermal correction to Gibbs Free Energy=         0.130543
 Sum of electronic and zero-point Energies=           -422.955009
 Sum of electronic and thermal Energies=              -422.947928
 Sum of electronic and thermal Enthalpies=            -422.946984
 Sum of electronic and thermal Free Energies=         -422.985910

                     E (Thermal)             CV                S
                      KCal/Mol        Cal/Mol-Kelvin    Cal/Mol-Kelvin
 Total                  105.750             29.762             81.925
 Electronic               0.000              0.000              0.000
 Translational            0.889              2.981             40.409
 Rotational               0.889              2.981             28.181
 Vibrational            103.973             23.801             13.336
 Vibration     1          0.660              1.770              1.760
 Vibration     2          0.668              1.748              1.670
 Vibration     3          0.681              1.707              1.523
 Vibration     4          0.689              1.683              1.444
 Vibration     5          0.700              1.653              1.357
 Vibration     6          0.746              1.522              1.057
 Vibration     7          0.818              1.338              0.765
 Vibration     8          0.883              1.189              0.592
 Vibration     9          0.947              1.055              0.468

 Optimization completed.
    -- Stationary point found.
 Normal termination of Gaussian 09 at Tue Jan 28 01:36:06 2020.
