 Gaussian 09, Revision D.01,
 Gaussian 09:  ES64L-G09RevD.01 24-Apr-2013

 -----------------------------
 # b3lyp 6-31G(2df,p) opt Freq
 -----------------------------

 -----
 titel
 -----
 Symbolic Z-matrix:
 Charge =  0 Multiplicity = 1

 SCF Done:  E(RB3LYP) =  -423.165041127     A.U. after   13 cycles
 Optimization completed.
    -- Stationary point found.
 Normal termination of Gaussian 09 at Tue Jan 28 02:56:33 2020.

 ----------------------------------------------------------------------
 #N Geom=AllCheck Guess=TCheck SCRF=Check GenChk RB3LYP/6-31G(2df,p) Fr
 eq
 ----------------------------------------------------------------------

 Structure from the checkpoint file:  "/scratch/puck/g09_d2e5cfb4-1675-4890-8ce5-e6b5dd25dde6/Gau-89740.chk"
 -----
 titel
 -----
 Charge =  0 Multiplicity = 1

                         Standard orientation:
 ---------------------------------------------------------------------
 Center     Atomic      Atomic             Coordinates (Angstroms)
 Number     Number       Type             X           Y           Z
 ---------------------------------------------------------------------
      1          6           0       -2.799158    0.323703   -0.281358
      2          6           0       -1.313737    0.066682   -0.423707
      3          8           0       -0.947156   -1.272294    0.015444
      4          6           0        0.088611   -0.754801    0.869612
      5          6           0        1.493798   -0.849912    0.293892
      6          8           0        1.550061   -0.475789   -1.087836
      7          6           0        1.944438    0.494922   -0.115909
      8          6           0        0.865555    1.527564    0.167278
      9          6           0       -0.358622    0.708456    0.617881
     10          1           0       -3.368032   -0.363733   -0.915206
     11          1           0       -3.123216    0.181939    0.754568
     12          1           0       -3.040411    1.348037   -0.587340
     13          1           0       -0.984423    0.226169   -1.457173
     14          1           0        0.034945   -1.170297    1.882157
     15          1           0        2.175956   -1.643168    0.589192
     16          1           0        2.993961    0.780665   -0.141964
     17          1           0        1.201689    2.201354    0.963703
     18          1           0        0.661082    2.144446   -0.714925
     19          1           0       -0.900097    1.179570    1.439987
 ---------------------------------------------------------------------

 SCF Done:  E(RB3LYP) =  -423.165041127     A.U. after    1 cycles

 The electronic state is 1-A.
 Alpha  occ. eigenvalues --  -19.15214 -19.12504 -10.23952 -10.23336 -10.23278
 Alpha  occ. eigenvalues --  -10.22807 -10.19321 -10.19173 -10.17393  -1.07760
 Alpha  occ. eigenvalues --   -1.02779  -0.79926  -0.75282  -0.70624  -0.67296
 Alpha  occ. eigenvalues --   -0.60953  -0.58233  -0.54645  -0.52598  -0.47466
 Alpha  occ. eigenvalues --   -0.46052  -0.45150  -0.43255  -0.42102  -0.39370
 Alpha  occ. eigenvalues --   -0.38323  -0.37500  -0.36636  -0.35989  -0.30810
 Alpha  occ. eigenvalues --   -0.30645  -0.28881  -0.27165  -0.23847
 Alpha virt. eigenvalues --    0.06785   0.08847   0.10449   0.11321   0.12897
 Alpha virt. eigenvalues --    0.13795   0.14005   0.14517   0.15355   0.17070
 Alpha virt. eigenvalues --    0.17607   0.17888   0.18684   0.19506   0.20390

 Mulliken charges:
               1
     1  C   -0.410017
     2  C    0.164862
     3  O   -0.312916
     4  C    0.106172
     5  C    0.012951
     6  O   -0.240467
     7  C    0.047605
     8  C   -0.276426
     9  C   -0.101309
    10  H    0.128395
    11  H    0.116579
    12  H    0.113445
    13  H    0.086965
    14  H    0.073152
    15  H    0.096625
    16  H    0.095062
    17  H    0.104994
    18  H    0.115799
    19  H    0.078533
 Sum of Mulliken charges =   0.00000

 Dipole moment (field-independent basis, Debye):
    X=              0.5745    Y=              2.1294    Z=              1.8255  Tot=              2.8630
 Quadrupole moment (field-independent basis, Debye-Ang):
   XX=            -50.5874   YY=            -53.7520   ZZ=            -53.4448
   XY=             -1.3048   XZ=              2.9784   YZ=             -2.0039

  Exact polarizability:  84.508  -0.163  72.423   1.958  -3.008  64.562
 Approx polarizability: 106.012   2.129 111.043   2.197  -3.535 104.623

                      1                      2                      3
                      A                      A                      A
 Frequencies --    115.6362               216.4239               220.9572
 Red. masses --      3.6698                 3.8124                 1.3392
 Frc consts  --      0.0289                 0.1052                 0.0385
 IR Inten    --      2.7290                 0.5222                 1.0219

                      4                      5                      6
                      A                      A                      A
 Frequencies --    269.5498               289.0839               369.3837
 Red. masses --      1.9840                 2.7381                 2.2149
 Frc consts  --      0.0849                 0.1348                 0.1781
 IR Inten    --      1.1506                 0.5896                 3.7055

                      7                      8                      9
                      A                      A                      A
 Frequencies --    462.1119               551.3904               647.4435
 Red. masses --      3.5424                 5.0259                 5.3192
 Frc consts  --      0.4457                 0.9003                 1.3137
 IR Inten    --      0.2441                13.8112                 1.8371

                     10                     11                     12
                      A                      A                      A
 Frequencies --    694.8572               786.8158               817.4006
 Red. masses --      4.9118                 2.2734                 3.9037
 Frc consts  --      1.3973                 0.8292                 1.5367
 IR Inten    --      2.7209                 0.9091                 6.4247

                     13                     14                     15
                      A                      A                      A
 Frequencies --    841.7804               861.4362               882.3216
 Red. masses --      2.8018                 2.1236                 2.7381
 Frc consts  --      1.1697                 0.9285                 1.2559
 IR Inten    --     12.6197                16.1189                 0.5955

                     16                     17                     18
                      A                      A                      A
 Frequencies --    891.3151               922.6118               969.6162
 Red. masses --      3.1535                 2.1389                 2.2078
 Frc consts  --      1.4760                 1.0727                 1.2229
 IR Inten    --     14.4559                 8.3431                11.3214

                     19                     20                     21
                      A                      A                      A
 Frequencies --    988.0541              1023.0556              1055.5949
 Red. masses --      1.9360                 2.5264                 2.5502
 Frc consts  --      1.1136                 1.5579                 1.6742
 IR Inten    --     30.7052                32.0524                50.5115

                     22                     23                     24
                      A                      A                      A
 Frequencies --   1056.8748              1090.9313              1092.8723
 Red. masses --      1.5986                 1.6595                 1.6557
 Frc consts  --      1.0521                 1.1637                 1.1651
 IR Inten    --      1.1138                 6.8905                13.4878

                     25                     26                     27
                      A                      A                      A
 Frequencies --   1135.5197              1136.4211              1201.7507
 Red. masses --      2.0703                 1.7662                 1.5910
 Frc consts  --      1.5728                 1.3439                 1.3538
 IR Inten    --      8.1490                 1.1735                 1.9778

                     28                     29                     30
                      A                      A                      A
 Frequencies --   1223.0203              1254.1428              1262.3511
 Red. masses --      1.6292                 1.3825                 1.3664
 Frc consts  --      1.4358                 1.2811                 1.2828
 IR Inten    --      4.2363                 7.0429                 1.8971

                     31                     32                     33
                      A                      A                      A
 Frequencies --   1287.2437              1307.2531              1325.7430
 Red. masses --      1.5872                 1.3787                 1.3135
 Frc consts  --      1.5495                 1.3881                 1.3602
 IR Inten    --      3.1329                 2.4043                 0.8988

                     34                     35                     36
                      A                      A                      A
 Frequencies --   1336.5034              1360.2375              1394.8094
 Red. masses --      1.5300                 1.5142                 1.4271
 Frc consts  --      1.6102                 1.6507                 1.6358
 IR Inten    --      8.0071                 3.0017                 2.3457

                     37                     38                     39
                      A                      A                      A
 Frequencies --   1407.8630              1430.6972              1478.3188
 Red. masses --      1.4580                 2.6745                 1.0922
 Frc consts  --      1.7026                 3.2255                 1.4064
 IR Inten    --     15.3483                 8.9785                 2.9548

                     40                     41                     42
                      A                      A                      A
 Frequencies --   1482.8590              1495.2209              3030.8946
 Red. masses --      1.0578                 1.0497                 1.0360
 Frc consts  --      1.3704                 1.3828                 5.6074
 IR Inten    --      2.7931                 3.3961                17.1191

                     43                     44                     45
                      A                      A                      A
 Frequencies --   3036.8498              3039.9276              3044.6548
 Red. masses --      1.0747                 1.0698                 1.0858
 Frc consts  --      5.8396                 5.8250                 5.9305
 IR Inten    --     19.7165                50.1724                21.0063

                     46                     47                     48
                      A                      A                      A
 Frequencies --   3077.3440              3094.5522              3102.9082
 Red. masses --      1.1020                 1.0891                 1.1003
 Frc consts  --      6.1485                 6.1450                 6.2418
 IR Inten    --     11.0263                27.0356                22.0758

                     49                     50                     51
                      A                      A                      A
 Frequencies --   3111.9143              3134.3799              3150.7152
 Red. masses --      1.1018                 1.0878                 1.0949
 Frc consts  --      6.2865                 6.2963                 6.4037
 IR Inten    --     31.1893                25.6390                42.0404

 - Thermochemistry -
 -------------------
 Temperature   298.150 Kelvin.  Pressure   1.00000 Atm.
 Atom     1 has atomic number  6 and mass  12.00000

 Molecular mass:   126.06808 amu.
 Principal axes and moments of inertia in atomic units:
                           1         2         3
     Eigenvalues --   533.119431238.365071425.31020
           X            0.99981  -0.00994   0.01688
           Y            0.01045   0.99948  -0.03050
           Z           -0.01657   0.03067   0.99939
 This molecule is an asymmetric top.
 Rotational symmetry number  1.
 Warning -- assumption of classical behavior for rotation
           may cause significant error
 Rotational temperatures (Kelvin)      0.16247     0.06994     0.06077
 Rotational constants (GHZ):           3.38525     1.45736     1.26621
 Zero-point vibrational energy     421454.0 (Joules/Mol)
                                  100.72993 (Kcal/Mol)
 Warning -- explicit consideration of   8 degrees of freedom as
           vibrations may cause significant error
 Vibrational temperatures:    166.37   311.39   317.91   387.82   415.93
          (Kelvin)            531.46   664.88   793.33   931.53   999.74
                             1132.05  1176.06  1211.13  1239.41  1269.46
                             1282.40  1327.43  1395.06  1421.59  1471.95
                             1518.76  1520.61  1569.60  1572.40  1633.76
                             1635.05  1729.05  1759.65  1804.43  1816.24
                             1852.05  1880.84  1907.45  1922.93  1957.08
                             2006.82  2025.60  2058.45  2126.97  2133.50
                             2151.29  4360.78  4369.34  4373.77  4380.57
                             4427.61  4452.36  4464.39  4477.34  4509.67
                             4533.17

 Zero-point correction=                           0.160523 (Hartree/Particle)
 Thermal correction to Energy=                    0.167915
 Thermal correction to Enthalpy=                  0.168859
 Thermal correction to Gibbs Free Energy=         0.128849
 Sum of electronic and zero-point Energies=           -423.004518
 Sum of electronic and thermal Energies=              -422.997126
 Sum of electronic and thermal Enthalpies=            -422.996182
 Sum of electronic and thermal Free Energies=         -423.036192

                     E (Thermal)             CV                S
                      KCal/Mol        Cal/Mol-Kelvin    Cal/Mol-Kelvin
 Total                  105.368             29.499             84.207
 Electronic               0.000              0.000              0.000
 Translational            0.889              2.981             40.409
 Rotational               0.889              2.981             28.333
 Vibrational            103.591             23.538             15.466
 Vibration     1          0.608              1.936              3.172
 Vibration     2          0.645              1.816              1.989
 Vibration     3          0.648              1.809              1.951
 Vibration     4          0.674              1.729              1.599
 Vibration     5          0.686              1.694              1.479
 Vibration     6          0.742              1.535              1.082
 Vibration     7          0.820              1.334              0.760
 Vibration     8          0.907              1.137              0.541

 Normal termination of Gaussian 09 at Tue Jan 28 03:52:55 2020.
