 Gaussian 09, Revision D.01,
 Gaussian 09:  ES64L-G09RevD.01 24-Apr-2013

 -----------------------------
 # b3lyp 6-31G(2df,p) opt Freq
 -----------------------------

 -----
 titel
 -----
 Symbolic Z-matrix:
 Charge =  0 Multiplicity = 1

 SCF Done:  E(RB3LYP) =  -423.148377808     A.U. after   12 cycles
 Optimization completed.
    -- Stationary point found.
 Normal termination of Gaussian 09 at Mon Jan 27 23:50:02 2020.

 ----------------------------------------------------------------------
 #N Geom=AllCheck Guess=TCheck SCRF=Check GenChk RB3LYP/6-31G(2df,p) Fr
 eq
 ----------------------------------------------------------------------

 Structure from the checkpoint file:  "/scratch/puck/g09_30691499-b7eb-44e1-96be-d25654c20e0f/Gau-68154.chk"
 -----
 titel
 -----
 Charge =  0 Multiplicity = 1

                         Standard orientation:
 ---------------------------------------------------------------------
 Center     Atomic      Atomic             Coordinates (Angstroms)
 Number     Number       Type             X           Y           Z
 ---------------------------------------------------------------------
      1          8           0        2.813325   -0.662491    0.363927
      2          6           0        1.521793   -0.129127    0.441027
      3          6           0        0.982525    0.731073   -0.666951
      4          6           0       -0.127107    1.758533   -0.386215
      5          6           0       -1.376186    0.966243    0.003439
      6          6           0       -1.388732    0.143714    1.282831
      7          6           0       -1.046455   -0.517892   -0.014214
      8          8           0       -1.939064   -1.492866   -0.460244
      9          6           0        0.411725   -0.666625   -0.426620
     10          1           0        2.997166   -0.894707   -0.551907
     11          1           0        1.316563    0.132128    1.473172
     12          1           0        1.654399    0.925642   -1.498953
     13          1           0        0.169924    2.485036    0.379518
     14          1           0       -0.330253    2.329137   -1.298814
     15          1           0       -2.339392    1.313134   -0.354899
     16          1           0       -0.634898    0.296928    2.046659
     17          1           0       -2.371952   -0.094435    1.674022
     18          1           0       -1.959885   -1.457566   -1.423370
     19          1           0        0.638869   -1.507945   -1.074673
 ---------------------------------------------------------------------

 SCF Done:  E(RB3LYP) =  -423.148377808     A.U. after    1 cycles

 The electronic state is 1-A.
 Alpha  occ. eigenvalues --  -19.14383 -19.14267 -10.23878 -10.23507 -10.18904
 Alpha  occ. eigenvalues --  -10.18799 -10.18773 -10.18484 -10.18138  -1.03072
 Alpha  occ. eigenvalues --   -1.02693  -0.88539  -0.81468  -0.72007  -0.63668
 Alpha  occ. eigenvalues --   -0.59929  -0.57675  -0.56104  -0.53105  -0.50690
 Alpha  occ. eigenvalues --   -0.45836  -0.43078  -0.42866  -0.41439  -0.41017
 Alpha  occ. eigenvalues --   -0.38182  -0.36819  -0.36030  -0.33910  -0.32149
 Alpha  occ. eigenvalues --   -0.29823  -0.26625  -0.25036  -0.22729
 Alpha virt. eigenvalues --    0.07047   0.08107   0.08721   0.09739   0.11532
 Alpha virt. eigenvalues --    0.12765   0.14117   0.15856   0.17190   0.17841
 Alpha virt. eigenvalues --    0.19323   0.20244   0.20747   0.22381   0.24357

 Mulliken charges:
               1
     1  O   -0.440327
     2  C    0.144416
     3  C   -0.106429
     4  C   -0.256806
     5  C   -0.113528
     6  C   -0.332737
     7  C    0.429363
     8  O   -0.471431
     9  C   -0.207821
    10  H    0.282102
    11  H    0.104291
    12  H    0.078890
    13  H    0.106421
    14  H    0.103378
    15  H    0.087306
    16  H    0.115614
    17  H    0.119997
    18  H    0.279133
    19  H    0.078167
 Sum of Mulliken charges =   0.00000

 Dipole moment (field-independent basis, Debye):
    X=             -0.2581    Y=              0.9195    Z=             -2.3451  Tot=              2.5321
 Quadrupole moment (field-independent basis, Debye-Ang):
   XX=            -56.7334   YY=            -55.1790   ZZ=            -48.3298
   XY=             -2.0419   XZ=             -2.5575   YZ=              3.0699

  Exact polarizability:  80.946  -1.139  71.539  -2.274   0.245  69.476
 Approx polarizability: 109.587  -0.171 107.830  -0.026   0.271 108.257

                      1                      2                      3
                      A                      A                      A
 Frequencies --    140.7857               164.4775               212.4841
 Red. masses --      1.0464                 3.5838                 3.5428
 Frc consts  --      0.0122                 0.0571                 0.0942
 IR Inten    --     80.9970                 1.1877                 1.2665

                      4                      5                      6
                      A                      A                      A
 Frequencies --    259.8731               264.6687               328.5291
 Red. masses --      2.2307                 3.9426                 1.2277
 Frc consts  --      0.0888                 0.1627                 0.0781
 IR Inten    --      8.4151                 7.2821                84.2102

                      7                      8                      9
                      A                      A                      A
 Frequencies --    395.0194               408.3306               432.6182
 Red. masses --      4.3799                 3.1361                 2.0913
 Frc consts  --      0.4027                 0.3081                 0.2306
 IR Inten    --     15.5622                 3.4153                 4.1262

                     10                     11                     12
                      A                      A                      A
 Frequencies --    474.9593               596.4721               677.4539
 Red. masses --      3.3474                 4.4219                 3.8413
 Frc consts  --      0.4449                 0.9269                 1.0387
 IR Inten    --      4.3285                 9.3277                 1.4242

                     13                     14                     15
                      A                      A                      A
 Frequencies --    744.5912               798.0169               831.1010
 Red. masses --      3.4516                 1.8606                 1.6081
 Frc consts  --      1.1275                 0.6981                 0.6544
 IR Inten    --      1.6969                 5.8696                10.2383

                     16                     17                     18
                      A                      A                      A
 Frequencies --    851.5280               905.5554               925.4218
 Red. masses --      2.5271                 2.1261                 2.4511
 Frc consts  --      1.0796                 1.0272                 1.2368
 IR Inten    --      4.2520                21.0735                11.0927

                     19                     20                     21
                      A                      A                      A
 Frequencies --    933.5963               963.0860               997.7531
 Red. masses --      2.7534                 2.0051                 2.0479
 Frc consts  --      1.4139                 1.0958                 1.2011
 IR Inten    --      6.5894                13.6653                 0.3314

                     22                     23                     24
                      A                      A                      A
 Frequencies --   1020.8785              1046.9576              1058.2906
 Red. masses --      1.5794                 1.3129                 1.4084
 Frc consts  --      0.9698                 0.8479                 0.9294
 IR Inten    --      5.3877                 9.3568                 1.7169

                     25                     26                     27
                      A                      A                      A
 Frequencies --   1079.9089              1087.9198              1101.1024
 Red. masses --      1.4665                 2.3359                 1.7893
 Frc consts  --      1.0076                 1.6289                 1.2782
 IR Inten    --      1.4784                14.3048                23.9025

                     28                     29                     30
                      A                      A                      A
 Frequencies --   1123.2689              1158.5958              1211.6067
 Red. masses --      1.9072                 1.4025                 1.3286
 Frc consts  --      1.4178                 1.1092                 1.1491
 IR Inten    --     93.1454                25.5116                 6.4193

                     31                     32                     33
                      A                      A                      A
 Frequencies --   1225.0456              1248.0446              1269.4803
 Red. masses --      1.6595                 1.9104                 1.6403
 Frc consts  --      1.4673                 1.7532                 1.5575
 IR Inten    --      3.1837                78.9825                26.0559

                     34                     35                     36
                      A                      A                      A
 Frequencies --   1292.5006              1326.1885              1339.2107
 Red. masses --      1.7978                 1.3941                 1.9409
 Frc consts  --      1.7695                 1.4446                 2.0510
 IR Inten    --     11.7186                 6.6905                73.2222

                     37                     38                     39
                      A                      A                      A
 Frequencies --   1374.4378              1410.4868              1461.7529
 Red. masses --      1.6196                 1.7295                 1.8545
 Frc consts  --      1.8026                 2.0273                 2.3347
 IR Inten    --      7.1903                18.3614                62.6440

                     40                     41                     42
                      A                      A                      A
 Frequencies --   1487.5666              1499.6192              3032.2122
 Red. masses --      1.2187                 1.2314                 1.0610
 Frc consts  --      1.5889                 1.6316                 5.7478
 IR Inten    --      4.9764                15.6228                44.4032

                     43                     44                     45
                      A                      A                      A
 Frequencies --   3068.2878              3135.4979              3139.1831
 Red. masses --      1.1024                 1.0554                 1.0888
 Frc consts  --      6.1150                 6.1134                 6.3216
 IR Inten    --     19.2256                 8.8600                16.5100

                     46                     47                     48
                      A                      A                      A
 Frequencies --   3155.4905              3167.3972              3176.3795
 Red. masses --      1.0915                 1.0911                 1.0870
 Frc consts  --      6.4032                 6.4493                 6.4618
 IR Inten    --     13.9507                11.0254                17.6701

                     49                     50                     51
                      A                      A                      A
 Frequencies --   3220.9466              3787.7861              3819.4603
 Red. masses --      1.1151                 1.0659                 1.0659
 Frc consts  --      6.8158                 9.0104                 9.1613
 IR Inten    --      8.4788                13.9425                20.0353

 - Thermochemistry -
 -------------------
 Temperature   298.150 Kelvin.  Pressure   1.00000 Atm.
 Atom     1 has atomic number  8 and mass  15.99491

 Molecular mass:   126.06808 amu.
 Principal axes and moments of inertia in atomic units:
                           1         2         3
     Eigenvalues --   641.841041324.217701581.73943
           X            0.99980  -0.01264  -0.01529
           Y            0.01283   0.99984   0.01266
           Z            0.01513  -0.01285   0.99980
 This molecule is an asymmetric top.
 Rotational symmetry number  1.
 Warning -- assumption of classical behavior for rotation
           may cause significant error
 Rotational temperatures (Kelvin)      0.13495     0.06541     0.05476
 Rotational constants (GHZ):           2.81182     1.36287     1.14099
 Zero-point vibrational energy     417687.1 (Joules/Mol)
                                   99.82961 (Kcal/Mol)
 Warning -- explicit consideration of  11 degrees of freedom as
           vibrations may cause significant error
 Vibrational temperatures:    202.56   236.65   305.72   373.90   380.80
          (Kelvin)            472.68   568.34   587.50   622.44   683.36
                              858.19   974.70  1071.30  1148.17  1195.77
                             1225.16  1302.89  1331.47  1343.24  1385.66
                             1435.54  1468.81  1506.34  1522.64  1553.75
                             1565.27  1584.24  1616.13  1666.96  1743.23
                             1762.57  1795.66  1826.50  1859.62  1908.09
                             1926.82  1977.51  2029.37  2103.13  2140.27
                             2157.61  4362.67  4414.58  4511.28  4516.58
                             4540.04  4557.17  4570.10  4634.22  5449.77
                             5495.34

 Zero-point correction=                           0.159089 (Hartree/Particle)
 Thermal correction to Energy=                    0.167360
 Thermal correction to Enthalpy=                  0.168305
 Thermal correction to Gibbs Free Energy=         0.126738
 Sum of electronic and zero-point Energies=           -422.989289
 Sum of electronic and thermal Energies=              -422.981017
 Sum of electronic and thermal Enthalpies=            -422.980073
 Sum of electronic and thermal Free Energies=         -423.021640

                     E (Thermal)             CV                S
                      KCal/Mol        Cal/Mol-Kelvin    Cal/Mol-Kelvin
 Total                  105.020             32.982             87.485
 Electronic               0.000              0.000              0.000
 Translational            0.889              2.981             40.409
 Rotational               0.889              2.981             28.688
 Vibrational            103.243             27.020             18.389
 Vibration     1          0.615              1.913              2.793
 Vibration     2          0.623              1.886              2.498
 Vibration     3          0.644              1.822              2.022
 Vibration     4          0.668              1.746              1.663
 Vibration     5          0.671              1.738              1.631
 Vibration     6          0.712              1.618              1.267
 Vibration     7          0.762              1.481              0.981
 Vibration     8          0.773              1.452              0.933
 Vibration     9          0.794              1.399              0.850
 Vibration    10          0.832              1.306              0.724
 Vibration    11          0.954              1.039              0.456

 Normal termination of Gaussian 09 at Tue Jan 28 00:34:11 2020.
