 Gaussian 09, Revision D.01,
 Gaussian 09:  ES64L-G09RevD.01 24-Apr-2013

 -----------------------------
 # b3lyp 6-31G(2df,p) opt Freq
 -----------------------------

 -----
 titel
 -----
 Symbolic Z-matrix:
 Charge =  0 Multiplicity = 1

 SCF Done:  E(RB3LYP) =  -423.158051799     A.U. after   13 cycles
 Optimization completed.
    -- Stationary point found.
 Normal termination of Gaussian 09 at Tue Jan 28 03:52:53 2020.

 ----------------------------------------------------------------------
 #N Geom=AllCheck Guess=TCheck SCRF=Check GenChk RB3LYP/6-31G(2df,p) Fr
 eq
 ----------------------------------------------------------------------

 Structure from the checkpoint file:  "/scratch/puck/g09_8258654a-9063-4804-b56e-dfde01589602/Gau-8725.chk"
 -----
 titel
 -----
 Charge =  0 Multiplicity = 1

                         Standard orientation:
 ---------------------------------------------------------------------
 Center     Atomic      Atomic             Coordinates (Angstroms)
 Number     Number       Type             X           Y           Z
 ---------------------------------------------------------------------
      1          6           0        1.248971    2.152569    0.018155
      2          6           0        0.982041    0.698745   -0.204915
      3          6           0       -0.126032    0.082464   -0.612453
      4          6           0       -1.623976    0.120017   -0.371235
      5          8           0       -2.192699    1.212571    0.295072
      6          6           0       -1.400643   -1.252406    0.386880
      7          6           0       -0.031698   -1.389397   -0.367927
      8          8           0        1.199883   -1.605580    0.300100
      9          6           0        1.972476   -0.399484    0.178149
     10          1           0        1.619875    2.342555    1.033592
     11          1           0        2.019891    2.525798   -0.668162
     12          1           0        0.345083    2.745414   -0.142664
     13          1           0       -2.223031   -0.026688   -1.274676
     14          1           0       -1.673863    1.367993    1.092245
     15          1           0       -1.236362   -1.078004    1.453407
     16          1           0       -2.151199   -2.032407    0.238899
     17          1           0       -0.114158   -2.053180   -1.238865
     18          1           0        2.779957   -0.539732   -0.559493
     19          1           0        2.449494   -0.182718    1.144415
 ---------------------------------------------------------------------

 SCF Done:  E(RB3LYP) =  -423.158051799     A.U. after    1 cycles

 The electronic state is 1-A.
 Alpha  occ. eigenvalues --  -19.14632 -19.13486 -10.24780 -10.23135 -10.22797
 Alpha  occ. eigenvalues --  -10.19462 -10.19097 -10.18867 -10.17824  -1.03454
 Alpha  occ. eigenvalues --   -1.02753  -0.84244  -0.78889  -0.69638  -0.67456
 Alpha  occ. eigenvalues --   -0.63923  -0.57699  -0.55650  -0.48805  -0.47946
 Alpha  occ. eigenvalues --   -0.46213  -0.45249  -0.42266  -0.41879  -0.40430
 Alpha  occ. eigenvalues --   -0.39946  -0.38208  -0.37419  -0.34745  -0.32781
 Alpha  occ. eigenvalues --   -0.30566  -0.27505  -0.25044  -0.22800
 Alpha virt. eigenvalues --    0.00499   0.06816   0.10326   0.11004   0.11563
 Alpha virt. eigenvalues --    0.12163   0.14922   0.15409   0.16101   0.16949
 Alpha virt. eigenvalues --    0.17431   0.18536   0.19043   0.21291   0.22304

 Mulliken charges:
               1
     1  C   -0.502207
     2  C    0.138977
     3  C    0.063227
     4  C    0.069923
     5  O   -0.423021
     6  C   -0.301069
     7  C    0.096542
     8  O   -0.279265
     9  C   -0.147085
    10  H    0.123278
    11  H    0.135445
    12  H    0.139384
    13  H    0.105553
    14  H    0.280555
    15  H    0.107343
    16  H    0.104722
    17  H    0.078647
    18  H    0.102569
    19  H    0.106483
 Sum of Mulliken charges =   0.00000

 Dipole moment (field-independent basis, Debye):
    X=              0.6308    Y=              0.9066    Z=              0.3124  Tot=              1.1478
 Quadrupole moment (field-independent basis, Debye-Ang):
   XX=            -55.2693   YY=            -55.5284   ZZ=            -51.1000
   XY=              6.3754   XZ=             -0.2034   YZ=              3.2121

  Exact polarizability:  94.365  11.200  81.753   3.976   4.370  61.639
 Approx polarizability: 137.501  17.056 115.908  10.936   8.058  98.714

                      1                      2                      3
                      A                      A                      A
 Frequencies --    118.0510               123.1666               171.7915
 Red. masses --      3.5239                 3.5734                 2.4754
 Frc consts  --      0.0289                 0.0319                 0.0430
 IR Inten    --      3.6229                 0.5465                 1.9572

                      4                      5                      6
                      A                      A                      A
 Frequencies --    178.6007               288.1500               313.1739
 Red. masses --      1.0616                 2.7083                 1.9979
 Frc consts  --      0.0200                 0.1325                 0.1154
 IR Inten    --      0.7419                 0.9741                19.0786

                      7                      8                      9
                      A                      A                      A
 Frequencies --    375.0885               402.8761               438.4282
 Red. masses --      1.7943                 1.9953                 2.8738
 Frc consts  --      0.1487                 0.1908                 0.3255
 IR Inten    --     48.7499                17.4237                17.4141

                     10                     11                     12
                      A                      A                      A
 Frequencies --    501.4894               630.6530               671.8480
 Red. masses --      4.3362                 4.1975                 2.9241
 Frc consts  --      0.6425                 0.9836                 0.7777
 IR Inten    --      0.0464                 5.2695                 7.0575

                     13                     14                     15
                      A                      A                      A
 Frequencies --    679.3397               753.5976               819.7936
 Red. masses --      2.9667                 3.4850                 3.5694
 Frc consts  --      0.8067                 1.1661                 1.4134
 IR Inten    --      9.9571                 5.9316                 6.2598

                     16                     17                     18
                      A                      A                      A
 Frequencies --    913.0924               934.5310               966.8234
 Red. masses --      2.8318                 2.1558                 1.6673
 Frc consts  --      1.3910                 1.1093                 0.9182
 IR Inten    --     17.2187                11.2752                 9.8268

                     19                     20                     21
                      A                      A                      A
 Frequencies --    983.4837              1009.1933              1027.1479
 Red. masses --      3.1133                 2.3746                 3.4119
 Frc consts  --      1.7742                 1.4249                 2.1209
 IR Inten    --      8.0618                24.1825                61.4380

                     22                     23                     24
                      A                      A                      A
 Frequencies --   1081.1655              1096.2301              1112.0582
 Red. masses --      1.7001                 1.6813                 2.3017
 Frc consts  --      1.1709                 1.1904                 1.6770
 IR Inten    --      1.3336                 5.8294                46.3311

                     25                     26                     27
                      A                      A                      A
 Frequencies --   1120.8721              1156.0476              1172.0259
 Red. masses --      2.4618                 2.0758                 1.6166
 Frc consts  --      1.8223                 1.6345                 1.3084
 IR Inten    --     35.5336                32.8762                62.6527

                     28                     29                     30
                      A                      A                      A
 Frequencies --   1195.7395              1229.7509              1250.9326
 Red. masses --      1.1732                 1.7666                 1.6339
 Frc consts  --      0.9883                 1.5740                 1.5064
 IR Inten    --      2.1020                 1.0226                15.6111

                     31                     32                     33
                      A                      A                      A
 Frequencies --   1269.6039              1311.1724              1348.2916
 Red. masses --      1.7640                 1.6951                 1.4076
 Frc consts  --      1.6753                 1.7170                 1.5077
 IR Inten    --      6.0325                 1.3021                 5.2557

                     34                     35                     36
                      A                      A                      A
 Frequencies --   1377.4996              1410.3070              1436.5997
 Red. masses --      1.3991                 1.2686                 1.2551
 Frc consts  --      1.5642                 1.4867                 1.5261
 IR Inten    --     22.4650                 8.1295                57.2563

                     37                     38                     39
                      A                      A                      A
 Frequencies --   1461.0922              1482.9731              1489.2802
 Red. masses --      1.1130                 1.0489                 1.0516
 Frc consts  --      1.3999                 1.3591                 1.3742
 IR Inten    --      2.8201                 6.6600                 5.8817

                     40                     41                     42
                      A                      A                      A
 Frequencies --   1517.8880              1754.8060              2965.8490
 Red. masses --      1.0874                 9.1314                 1.0681
 Frc consts  --      1.4761                16.5671                 5.5354
 IR Inten    --      1.5731                 4.7289                84.6643

                     43                     44                     45
                      A                      A                      A
 Frequencies --   3010.4441              3014.8329              3018.0733
 Red. masses --      1.0842                 1.0639                 1.0664
 Frc consts  --      5.7890                 5.6974                 5.7230
 IR Inten    --     67.7111                13.4183                56.3945

                     46                     47                     48
                      A                      A                      A
 Frequencies --   3060.0609              3060.6401              3071.2335
 Red. masses --      1.0611                 1.0937                 1.0853
 Frc consts  --      5.8540                 6.0363                 6.0314
 IR Inten    --     21.8538                27.1930                29.0839

                     49                     50                     51
                      A                      A                      A
 Frequencies --   3117.9956              3130.1846              3800.2088
 Red. masses --      1.0985                 1.1099                 1.0656
 Frc consts  --      6.2922                 6.4070                 9.0671
 IR Inten    --     10.9108                35.3366                10.2280

 - Thermochemistry -
 -------------------
 Temperature   298.150 Kelvin.  Pressure   1.00000 Atm.
 Atom     1 has atomic number  6 and mass  12.00000

 Molecular mass:   126.06808 amu.
 Principal axes and moments of inertia in atomic units:
                           1         2         3
     Eigenvalues --   795.337261042.733291673.73872
           X            0.98564   0.16882   0.00218
           Y           -0.16883   0.98555   0.01391
           Z            0.00021  -0.01408   0.99990
 This molecule is an asymmetric top.
 Rotational symmetry number  1.
 Warning -- assumption of classical behavior for rotation
           may cause significant error
 Rotational temperatures (Kelvin)      0.10890     0.08306     0.05175
 Rotational constants (GHZ):           2.26915     1.73078     1.07827
 Zero-point vibrational energy     417641.3 (Joules/Mol)
                                   99.81867 (Kcal/Mol)
 Warning -- explicit consideration of  10 degrees of freedom as
           vibrations may cause significant error
 Vibrational temperatures:    169.85   177.21   247.17   256.97   414.58
          (Kelvin)            450.59   539.67   579.65   630.80   721.53
                              907.37   966.64   977.42  1084.26  1179.50
                             1313.73  1344.58  1391.04  1415.01  1452.00
                             1477.83  1555.55  1577.23  1600.00  1612.68
                             1663.29  1686.28  1720.40  1769.34  1799.81
                             1826.67  1886.48  1939.89  1981.91  2029.11
                             2066.94  2102.18  2133.66  2142.74  2183.90
                             2524.77  4267.19  4331.35  4337.67  4342.33
                             4402.74  4403.57  4418.81  4486.09  4503.63
                             5467.65

 Zero-point correction=                           0.159071 (Hartree/Particle)
 Thermal correction to Energy=                    0.167538
 Thermal correction to Enthalpy=                  0.168482
 Thermal correction to Gibbs Free Energy=         0.126107
 Sum of electronic and zero-point Energies=           -422.998981
 Sum of electronic and thermal Energies=              -422.990514
 Sum of electronic and thermal Enthalpies=            -422.989570
 Sum of electronic and thermal Free Energies=         -423.031945

                     E (Thermal)             CV                S
                      KCal/Mol        Cal/Mol-Kelvin    Cal/Mol-Kelvin
 Total                  105.131             32.295             89.185
 Electronic               0.000              0.000              0.000
 Translational            0.889              2.981             40.409
 Rotational               0.889              2.981             28.719
 Vibrational            103.354             26.334             20.057
 Vibration     1          0.608              1.934              3.132
 Vibration     2          0.610              1.930              3.050
 Vibration     3          0.626              1.877              2.416
 Vibration     4          0.629              1.869              2.343
 Vibration     5          0.685              1.696              1.485
 Vibration     6          0.701              1.649              1.346
 Vibration     7          0.746              1.523              1.059
 Vibration     8          0.768              1.464              0.952
 Vibration     9          0.799              1.386              0.832
 Vibration    10          0.857              1.247              0.654

 Optimization completed.
    -- Stationary point found.
 Normal termination of Gaussian 09 at Tue Jan 28 04:34:36 2020.
