 Gaussian 09, Revision D.01,
 Gaussian 09:  ES64L-G09RevD.01 24-Apr-2013

 -----------------------------
 # b3lyp 6-31G(2df,p) opt Freq
 -----------------------------

 -----
 titel
 -----
 Symbolic Z-matrix:
 Charge =  0 Multiplicity = 1

 SCF Done:  E(RB3LYP) =  -423.153368641     A.U. after   14 cycles
 Optimization completed.
    -- Stationary point found.
 Normal termination of Gaussian 09 at Mon Jan 27 23:39:47 2020.

 ----------------------------------------------------------------------
 #N Geom=AllCheck Guess=TCheck SCRF=Check GenChk RB3LYP/6-31G(2df,p) Fr
 eq
 ----------------------------------------------------------------------

 Structure from the checkpoint file:  "/scratch/puck/g09_0746dec4-720d-4b02-856d-fefe8b1d645c/Gau-103809.chk"
 -----
 titel
 -----
 Charge =  0 Multiplicity = 1

                         Standard orientation:
 ---------------------------------------------------------------------
 Center     Atomic      Atomic             Coordinates (Angstroms)
 Number     Number       Type             X           Y           Z
 ---------------------------------------------------------------------
      1          6           0        1.602564    1.676764   -0.166147
      2          6           0        0.907632    0.352936   -0.030302
      3          6           0        1.619398   -1.021980   -0.007498
      4          6           0        0.198975   -1.547416   -0.254563
      5          6           0       -0.725470   -0.824143    0.800924
      6          8           0        0.118550    0.277966    1.189026
      7          6           0       -1.515260   -0.181202   -0.364757
      8          8           0       -2.165528    1.031449   -0.131811
      9          6           0       -0.144208   -0.240999   -1.065498
     10          1           0        2.246499    1.862098    0.699788
     11          1           0        2.223187    1.691983   -1.066498
     12          1           0        0.877188    2.493220   -0.236569
     13          1           0        2.254044   -1.176383   -0.884381
     14          1           0        2.149704   -1.290080    0.910237
     15          1           0       -0.050337   -2.556527   -0.574036
     16          1           0       -1.179077   -1.297290    1.670299
     17          1           0       -2.222081   -0.874503   -0.829154
     18          1           0       -1.612304    1.495240    0.511357
     19          1           0        0.027210   -0.106845   -2.131712
 ---------------------------------------------------------------------

 SCF Done:  E(RB3LYP) =  -423.153368641     A.U. after    1 cycles

 The electronic state is 1-A.
 Alpha  occ. eigenvalues --  -19.14524 -19.12974 -10.24459 -10.23308 -10.22917
 Alpha  occ. eigenvalues --  -10.19836 -10.18966 -10.18518 -10.18287  -1.06184
 Alpha  occ. eigenvalues --   -1.01003  -0.84979  -0.77667  -0.71967  -0.65617
 Alpha  occ. eigenvalues --   -0.60955  -0.56625  -0.55002  -0.51245  -0.49912
 Alpha  occ. eigenvalues --   -0.46903  -0.44720  -0.42215  -0.41419  -0.39177
 Alpha  occ. eigenvalues --   -0.37656  -0.37377  -0.35927  -0.34484  -0.33090
 Alpha  occ. eigenvalues --   -0.29889  -0.28665  -0.27299  -0.23856
 Alpha virt. eigenvalues --    0.07314   0.10269   0.10491   0.12412   0.13315
 Alpha virt. eigenvalues --    0.14026   0.14951   0.15550   0.16530   0.16860
 Alpha virt. eigenvalues --    0.17438   0.18103   0.18602   0.20164   0.20797

 Mulliken charges:
               1
     1  C   -0.500718
     2  C    0.411130
     3  C   -0.271798
     4  C   -0.076083
     5  C    0.014814
     6  O   -0.322498
     7  C    0.179734
     8  O   -0.452338
     9  C   -0.169139
    10  H    0.131440
    11  H    0.122973
    12  H    0.126971
    13  H    0.101378
    14  H    0.100278
    15  H    0.077826
    16  H    0.079849
    17  H    0.087615
    18  H    0.285629
    19  H    0.072937
 Sum of Mulliken charges =   0.00000

 Dipole moment (field-independent basis, Debye):
    X=              1.5703    Y=             -1.0123    Z=             -0.6408  Tot=              1.9751
 Quadrupole moment (field-independent basis, Debye-Ang):
   XX=            -56.2041   YY=            -50.9661   ZZ=            -53.4836
   XY=              3.5055   XZ=             -2.1122   YZ=              0.4570

  Exact polarizability:  80.060   1.653  75.655  -0.614  -0.010  66.519
 Approx polarizability: 112.113   0.153 110.285  -0.324   1.354 106.874

                      1                      2                      3
                      A                      A                      A
 Frequencies --    158.3284               200.3118               259.6782
 Red. masses --      3.7344                 1.0609                 3.2515
 Frc consts  --      0.0552                 0.0251                 0.1292
 IR Inten    --      1.4464                 0.0304                 3.7532

                      4                      5                      6
                      A                      A                      A
 Frequencies --    291.0124               348.1669               464.3162
 Red. masses --      2.9104                 2.9358                 1.7861
 Frc consts  --      0.1452                 0.2097                 0.2269
 IR Inten    --      4.0429                 0.4408                 2.2760

                      7                      8                      9
                      A                      A                      A
 Frequencies --    511.0927               520.5464               591.0198
 Red. masses --      1.3208                 3.0106                 4.0742
 Frc consts  --      0.2033                 0.4806                 0.8385
 IR Inten    --     47.7219                17.8636                12.3253

                     10                     11                     12
                      A                      A                      A
 Frequencies --    632.8365               701.8748               764.8144
 Red. masses --      4.1193                 4.1477                 3.9618
 Frc consts  --      0.9720                 1.2039                 1.3654
 IR Inten    --      4.4418                 0.2267                 1.9071

                     13                     14                     15
                      A                      A                      A
 Frequencies --    791.9912               821.5496               835.9526
 Red. masses --      2.5869                 1.7968                 2.8236
 Frc consts  --      0.9560                 0.7145                 1.1626
 IR Inten    --      6.9050                 4.4600                 9.5342

                     16                     17                     18
                      A                      A                      A
 Frequencies --    857.6990               888.3229               944.9028
 Red. masses --      3.0295                 2.4515                 1.8902
 Frc consts  --      1.3131                 1.1398                 0.9943
 IR Inten    --     11.3340                18.5667                 2.0972

                     19                     20                     21
                      A                      A                      A
 Frequencies --    956.2972               973.4904              1007.7641
 Red. masses --      1.6579                 2.5815                 1.5794
 Frc consts  --      0.8933                 1.4414                 0.9451
 IR Inten    --     10.7103                20.8672                 8.3200

                     22                     23                     24
                      A                      A                      A
 Frequencies --   1028.0201              1061.9117              1084.3985
 Red. masses --      3.0005                 1.6773                 1.6252
 Frc consts  --      1.8683                 1.1144                 1.1260
 IR Inten    --     14.5758                33.4011                 7.4394

                     25                     26                     27
                      A                      A                      A
 Frequencies --   1107.6044              1124.5596              1148.2300
 Red. masses --      1.8542                 2.4554                 2.0725
 Frc consts  --      1.3402                 1.8295                 1.6100
 IR Inten    --     24.7371               106.5086                19.2192

                     28                     29                     30
                      A                      A                      A
 Frequencies --   1180.2590              1187.6441              1197.7002
 Red. masses --      1.5178                 1.6403                 1.5477
 Frc consts  --      1.2457                 1.3631                 1.3081
 IR Inten    --      8.8523                 7.3461                 6.0639

                     31                     32                     33
                      A                      A                      A
 Frequencies --   1222.7391              1257.6399              1276.1145
 Red. masses --      1.6366                 1.6880                 1.8028
 Frc consts  --      1.4417                 1.5731                 1.7297
 IR Inten    --      7.2172                11.3522                 2.0415

                     34                     35                     36
                      A                      A                      A
 Frequencies --   1303.6494              1327.8073              1339.5914
 Red. masses --      1.5280                 1.7499                 2.5747
 Frc consts  --      1.5300                 1.8177                 2.7222
 IR Inten    --      9.4054                 4.3336                21.9324

                     37                     38                     39
                      A                      A                      A
 Frequencies --   1417.8526              1440.2365              1483.0464
 Red. masses --      1.5247                 1.2909                 1.0681
 Frc consts  --      1.8060                 1.5777                 1.3841
 IR Inten    --     13.3926                99.0344                 2.0676

                     40                     41                     42
                      A                      A                      A
 Frequencies --   1484.1597              1488.7791              3038.7477
 Red. masses --      1.1308                 1.0495                 1.0355
 Frc consts  --      1.4675                 1.3705                 5.6338
 IR Inten    --      2.7375                 3.3778                16.5644

                     43                     44                     45
                      A                      A                      A
 Frequencies --   3055.0179              3083.4683              3108.6545
 Red. masses --      1.0559                 1.0861                 1.1015
 Frc consts  --      5.8062                 6.0842                 6.2715
 IR Inten    --     35.4748                25.1577                13.4060

                     46                     47                     48
                      A                      A                      A
 Frequencies --   3115.2142              3118.5578              3134.8931
 Red. masses --      1.1051                 1.1051                 1.0909
 Frc consts  --      6.3187                 6.3323                 6.3165
 IR Inten    --      7.5134                26.8959                25.6996

                     49                     50                     51
                      A                      A                      A
 Frequencies --   3138.6404              3149.6711              3757.4689
 Red. masses --      1.0893                 1.0933                 1.0644
 Frc consts  --      6.3225                 6.3903                 8.8544
 IR Inten    --     37.0394                32.3215                25.3919

 - Thermochemistry -
 -------------------
 Temperature   298.150 Kelvin.  Pressure   1.00000 Atm.
 Atom     1 has atomic number  6 and mass  12.00000

 Molecular mass:   126.06808 amu.
 Principal axes and moments of inertia in atomic units:
                           1         2         3
     Eigenvalues --   676.64176 966.933431223.11284
           X            0.99731   0.07201  -0.01376
           Y           -0.07207   0.99739  -0.00400
           Z            0.01344   0.00498   0.99990
 This molecule is an asymmetric top.
 Rotational symmetry number  1.
 Warning -- assumption of classical behavior for rotation
           may cause significant error
 Rotational temperatures (Kelvin)      0.12801     0.08958     0.07081
 Rotational constants (GHZ):           2.66720     1.86646     1.47553
 Zero-point vibrational energy     420991.3 (Joules/Mol)
                                  100.61933 (Kcal/Mol)
 Warning -- explicit consideration of   9 degrees of freedom as
           vibrations may cause significant error
 Vibrational temperatures:    227.80   288.20   373.62   418.70   500.93
          (Kelvin)            668.05   735.35   748.95   850.34   910.51
                             1009.84  1100.40  1139.50  1182.03  1202.75
                             1234.04  1278.10  1359.50  1375.90  1400.63
                             1449.95  1479.09  1527.85  1560.21  1593.59
                             1617.99  1652.04  1698.13  1708.75  1723.22
                             1759.25  1809.46  1836.04  1875.66  1910.42
                             1927.37  2039.97  2072.18  2133.77  2135.37
                             2142.02  4372.07  4395.48  4436.42  4472.65
                             4482.09  4486.90  4510.41  4515.80  4531.67
                             5406.15

 Zero-point correction=                           0.160347 (Hartree/Particle)
 Thermal correction to Energy=                    0.167639
 Thermal correction to Enthalpy=                  0.168583
 Thermal correction to Gibbs Free Energy=         0.129115
 Sum of electronic and zero-point Energies=           -422.993022
 Sum of electronic and thermal Energies=              -422.985730
 Sum of electronic and thermal Enthalpies=            -422.984785
 Sum of electronic and thermal Free Energies=         -423.024254

                     E (Thermal)             CV                S
                      KCal/Mol        Cal/Mol-Kelvin    Cal/Mol-Kelvin
 Total                  105.195             30.343             83.068
 Electronic               0.000              0.000              0.000
 Translational            0.889              2.981             40.409
 Rotational               0.889              2.981             28.172
 Vibrational            103.418             24.381             14.487
 Vibration     1          0.621              1.893              2.570
 Vibration     2          0.638              1.839              2.130
 Vibration     3          0.668              1.746              1.664
 Vibration     4          0.687              1.690              1.468
 Vibration     5          0.726              1.579              1.174
 Vibration     6          0.822              1.329              0.754
 Vibration     7          0.866              1.225              0.631
 Vibration     8          0.876              1.204              0.609
 Vibration     9          0.948              1.051              0.465

 Optimization completed.
    -- Stationary point found.
 Normal termination of Gaussian 09 at Tue Jan 28 00:27:36 2020.
