 Gaussian 09, Revision D.01,
 Gaussian 09:  ES64L-G09RevD.01 24-Apr-2013

 -----------------------------
 # b3lyp 6-31G(2df,p) opt Freq
 -----------------------------

 -----
 titel
 -----
 Symbolic Z-matrix:
 Charge =  0 Multiplicity = 1

 SCF Done:  E(RB3LYP) =  -423.174148600     A.U. after   14 cycles
 Optimization completed.
    -- Stationary point found.
 Normal termination of Gaussian 09 at Tue Jan 28 02:51:04 2020.

 ----------------------------------------------------------------------
 #N Geom=AllCheck Guess=TCheck SCRF=Check GenChk RB3LYP/6-31G(2df,p) Fr
 eq
 ----------------------------------------------------------------------

 Structure from the checkpoint file:  "/scratch/puck/g09_e8e4db2b-7019-4f1b-bf34-6da785400997/Gau-193456.chk"
 -----
 titel
 -----
 Charge =  0 Multiplicity = 1

                         Standard orientation:
 ---------------------------------------------------------------------
 Center     Atomic      Atomic             Coordinates (Angstroms)
 Number     Number       Type             X           Y           Z
 ---------------------------------------------------------------------
      1          6           0        2.953097   -0.250716    0.246535
      2          6           0        1.586543   -0.359391   -0.416156
      3          6           0        0.506097   -1.349308    0.135344
      4          6           0       -0.578474   -0.242267    0.077499
      5          6           0       -1.691949    0.029628    1.102036
      6          6           0       -2.626112    0.015571   -0.122905
      7          8           0       -1.532858   -0.347792   -0.999821
      8          6           0        0.573094    0.771567   -0.168410
      9          8           0        0.656679    1.960932   -0.060224
     10          1           0        2.855445   -0.132317    1.330898
     11          1           0        3.557439   -1.143132    0.056811
     12          1           0        3.497145    0.618020   -0.135897
     13          1           0        1.694860   -0.494120   -1.500241
     14          1           0        0.286017   -2.222308   -0.480663
     15          1           0        0.713667   -1.668124    1.161527
     16          1           0       -1.853908   -0.778441    1.817682
     17          1           0       -1.603931    0.980819    1.629395
     18          1           0       -3.416119   -0.743218   -0.130638
     19          1           0       -3.054959    0.987190   -0.392177
 ---------------------------------------------------------------------

 SCF Done:  E(RB3LYP) =  -423.174148600     A.U. after    1 cycles

 The electronic state is 1-A.
 Alpha  occ. eigenvalues --  -19.14239 -19.14178 -10.26323 -10.24311 -10.23622
 Alpha  occ. eigenvalues --  -10.19894 -10.19507 -10.19074 -10.18483  -1.05363
 Alpha  occ. eigenvalues --   -1.03988  -0.84311  -0.75034  -0.73005  -0.65392
 Alpha  occ. eigenvalues --   -0.63098  -0.57287  -0.50990  -0.49348  -0.48863
 Alpha  occ. eigenvalues --   -0.46711  -0.44781  -0.43120  -0.41859  -0.39949
 Alpha  occ. eigenvalues --   -0.39164  -0.38095  -0.37366  -0.34856  -0.34725
 Alpha  occ. eigenvalues --   -0.31999  -0.30969  -0.27507  -0.22428
 Alpha virt. eigenvalues --   -0.03401   0.09110   0.09790   0.10539   0.11774
 Alpha virt. eigenvalues --    0.12209   0.12964   0.14929   0.15438   0.16534
 Alpha virt. eigenvalues --    0.17439   0.17913   0.18692   0.19013   0.22550

 Mulliken charges:
               1
     1  C   -0.410165
     2  C   -0.094579
     3  C   -0.331267
     4  C    0.351597
     5  C   -0.360579
     6  C   -0.068963
     7  O   -0.317736
     8  C    0.344015
     9  O   -0.301770
    10  H    0.119175
    11  H    0.121488
    12  H    0.136575
    13  H    0.114762
    14  H    0.119405
    15  H    0.109278
    16  H    0.116155
    17  H    0.129975
    18  H    0.107374
    19  H    0.115260
 Sum of Mulliken charges =   0.00000

 Dipole moment (field-independent basis, Debye):
    X=             -0.1944    Y=             -2.1573    Z=              1.3559  Tot=              2.5554
 Quadrupole moment (field-independent basis, Debye-Ang):
   XX=            -48.2631   YY=            -58.0242   ZZ=            -53.1970
   XY=             -2.6026   XZ=             -2.8594   YZ=             -0.5307

  Exact polarizability:  93.127  -1.280  73.498  -1.214   0.092  62.608
 Approx polarizability: 112.305  -0.101 116.397  -0.732   1.927  97.316

                      1                      2                      3
                      A                      A                      A
 Frequencies --     36.9908                79.1349               150.9608
 Red. masses --      3.2810                 2.2897                 4.4093
 Frc consts  --      0.0026                 0.0084                 0.0592
 IR Inten    --      1.4929                 1.1540                 4.2394

                      4                      5                      6
                      A                      A                      A
 Frequencies --    190.8908               208.7788               255.4127
 Red. masses --      1.0612                 3.3015                 3.9561
 Frc consts  --      0.0228                 0.0848                 0.1521
 IR Inten    --      0.4666                 3.3096                 1.0953

                      7                      8                      9
                      A                      A                      A
 Frequencies --    274.3294               339.6135               462.6752
 Red. masses --      3.5407                 2.2675                 3.4341
 Frc consts  --      0.1570                 0.1541                 0.4331
 IR Inten    --      1.7800                 0.7593                 0.3589

                     10                     11                     12
                      A                      A                      A
 Frequencies --    526.5568               691.2004               721.4440
 Red. masses --      2.9466                 3.6856                 3.1449
 Frc consts  --      0.4814                 1.0374                 0.9644
 IR Inten    --      2.5862                 2.1987                 4.8173

                     13                     14                     15
                      A                      A                      A
 Frequencies --    748.1177               810.2599               841.6847
 Red. masses --      1.8507                 1.5304                 2.1464
 Frc consts  --      0.6103                 0.5920                 0.8959
 IR Inten    --      0.3158                 3.2916                 8.7420

                     16                     17                     18
                      A                      A                      A
 Frequencies --    865.5536               896.9595               931.7193
 Red. masses --      4.4694                 2.3657                 1.5459
 Frc consts  --      1.9728                 1.1214                 0.7907
 IR Inten    --     16.3622                 1.2289                 8.0607

                     19                     20                     21
                      A                      A                      A
 Frequencies --    950.2016               985.8500              1020.2649
 Red. masses --      2.1858                 2.8557                 6.7895
 Frc consts  --      1.1627                 1.6352                 4.1640
 IR Inten    --     56.9023                41.7762                80.0596

                     22                     23                     24
                      A                      A                      A
 Frequencies --   1057.8000              1111.2746              1132.5579
 Red. masses --      1.5417                 2.3649                 1.8852
 Frc consts  --      1.0164                 1.7207                 1.4247
 IR Inten    --      6.7236                14.6042                27.6106

                     25                     26                     27
                      A                      A                      A
 Frequencies --   1148.3506              1160.6942              1184.7901
 Red. masses --      2.7037                 1.3082                 1.6674
 Frc consts  --      2.1007                 1.0384                 1.3790
 IR Inten    --     10.7732                 1.9798                 2.3737

                     28                     29                     30
                      A                      A                      A
 Frequencies --   1196.6022              1224.6463              1240.4666
 Red. masses --      1.8606                 1.2757                 1.3762
 Frc consts  --      1.5697                 1.1273                 1.2477
 IR Inten    --      2.0068                 0.5915                 0.3989

                     31                     32                     33
                      A                      A                      A
 Frequencies --   1252.6807              1294.9948              1331.8415
 Red. masses --      1.4732                 2.9100                 1.7358
 Frc consts  --      1.3621                 2.8753                 1.8141
 IR Inten    --      6.0392                 3.3478                 3.5400

                     34                     35                     36
                      A                      A                      A
 Frequencies --   1352.2648              1407.2101              1463.5713
 Red. masses --      1.4733                 1.2217                 1.1027
 Frc consts  --      1.5873                 1.4254                 1.3916
 IR Inten    --      2.3279                 1.6764                 3.7201

                     37                     38                     39
                      A                      A                      A
 Frequencies --   1477.0173              1493.8385              1496.3972
 Red. masses --      1.1086                 1.0475                 1.0453
 Frc consts  --      1.4250                 1.3773                 1.3790
 IR Inten    --      3.7688                 4.2874                 5.3805

                     40                     41                     42
                      A                      A                      A
 Frequencies --   1528.6697              1883.3704              3030.2110
 Red. masses --      1.1072                12.8352                 1.0551
 Frc consts  --      1.5244                26.8240                 5.7081
 IR Inten    --      2.4722               180.7880                87.6418

                     43                     44                     45
                      A                      A                      A
 Frequencies --   3030.7145              3035.6878              3059.7164
 Red. masses --      1.0818                 1.0353                 1.0618
 Frc consts  --      5.8542                 5.6210                 5.8569
 IR Inten    --      4.7807                21.4610                14.4690

                     46                     47                     48
                      A                      A                      A
 Frequencies --   3074.2275              3079.0950              3103.8396
 Red. masses --      1.1058                 1.0644                 1.1017
 Frc consts  --      6.1575                 5.9457                 6.2532
 IR Inten    --     23.2952                25.4428                22.8089

                     49                     50                     51
                      A                      A                      A
 Frequencies --   3112.6455              3131.0905              3137.3753
 Red. masses --      1.1015                 1.1042                 1.1089
 Frc consts  --      6.2875                 6.3779                 6.4312
 IR Inten    --     15.5738                11.8454                12.9703

 - Thermochemistry -
 -------------------
 Temperature   298.150 Kelvin.  Pressure   1.00000 Atm.
 Atom     1 has atomic number  6 and mass  12.00000

 Molecular mass:   126.06808 amu.
 Principal axes and moments of inertia in atomic units:
                           1         2         3
     Eigenvalues --   549.999021491.076461712.72755
           X            0.99974  -0.02134  -0.00770
           Y            0.02126   0.99972  -0.01015
           Z            0.00792   0.00999   0.99992
 This molecule is an asymmetric top.
 Rotational symmetry number  1.
 Warning -- assumption of classical behavior for rotation
           may cause significant error
 Rotational temperatures (Kelvin)      0.15748     0.05809     0.05057
 Rotational constants (GHZ):           3.28135     1.21036     1.05372
 Zero-point vibrational energy     414040.9 (Joules/Mol)
                                   98.95816 (Kcal/Mol)
 Warning -- explicit consideration of  10 degrees of freedom as
           vibrations may cause significant error
 Vibrational temperatures:     53.22   113.86   217.20   274.65   300.39
          (Kelvin)            367.48   394.70   488.63   665.69   757.60
                              994.48  1038.00  1076.37  1165.78  1211.00
                             1245.34  1290.52  1340.53  1367.13  1418.42
                             1467.93  1521.94  1598.87  1629.50  1652.22
                             1669.98  1704.65  1721.64  1761.99  1784.75
                             1802.33  1863.21  1916.22  1945.60  2024.66
                             2105.75  2125.10  2149.30  2152.98  2199.41
                             2709.75  4359.79  4360.52  4367.67  4402.24
                             4423.12  4430.13  4465.73  4478.40  4504.94
                             4513.98

 Zero-point correction=                           0.157700 (Hartree/Particle)
 Thermal correction to Energy=                    0.166694
 Thermal correction to Enthalpy=                  0.167639
 Thermal correction to Gibbs Free Energy=         0.123064
 Sum of electronic and zero-point Energies=           -423.016449
 Sum of electronic and thermal Energies=              -423.007454
 Sum of electronic and thermal Enthalpies=            -423.006510
 Sum of electronic and thermal Free Energies=         -423.051084

                     E (Thermal)             CV                S
                      KCal/Mol        Cal/Mol-Kelvin    Cal/Mol-Kelvin
 Total                  104.602             32.568             93.814
 Electronic               0.000              0.000              0.000
 Translational            0.889              2.981             40.409
 Rotational               0.889              2.981             28.731
 Vibrational            102.825             26.606             24.674
 Vibration     1          0.594              1.982              5.414
 Vibration     2          0.600              1.963              3.912
 Vibration     3          0.618              1.902              2.660
 Vibration     4          0.634              1.852              2.219
 Vibration     5          0.642              1.827              2.054
 Vibration     6          0.666              1.754              1.693
 Vibration     7          0.677              1.721              1.569
 Vibration     8          0.720              1.596              1.214
 Vibration     9          0.820              1.333              0.758
 Vibration    10          0.882              1.191              0.595

 Optimization completed.
    -- Stationary point found.
 Normal termination of Gaussian 09 at Tue Jan 28 03:35:32 2020.
