 Gaussian 09, Revision D.01,
 Gaussian 09:  ES64L-G09RevD.01 24-Apr-2013

 -----------------------------
 # b3lyp 6-31G(2df,p) opt Freq
 -----------------------------

 -----
 titel
 -----
 Symbolic Z-matrix:
 Charge =  0 Multiplicity = 1

 SCF Done:  E(RB3LYP) =  -423.180485184     A.U. after   14 cycles
 Optimization completed.
    -- Stationary point found.
 Normal termination of Gaussian 09 at Tue Jan 28 03:55:48 2020.

 ----------------------------------------------------------------------
 #N Geom=AllCheck Guess=TCheck SCRF=Check GenChk RB3LYP/6-31G(2df,p) Fr
 eq
 ----------------------------------------------------------------------

 Structure from the checkpoint file:  "/scratch/puck/g09_0a9c9bd1-a725-4acd-a768-84c0a1b4a352/Gau-62843.chk"
 -----
 titel
 -----
 Charge =  0 Multiplicity = 1

                         Standard orientation:
 ---------------------------------------------------------------------
 Center     Atomic      Atomic             Coordinates (Angstroms)
 Number     Number       Type             X           Y           Z
 ---------------------------------------------------------------------
      1          8           0        1.058982   -0.808485    1.321170
      2          6           0        1.459556   -0.527464   -0.037611
      3          6           0        1.557519    0.992072   -0.173436
      4          6           0        0.291844    1.802579   -0.081480
      5          6           0       -0.984565    1.419677   -0.120457
      6          6           0       -1.559532    0.022628   -0.238487
      7          8           0       -1.788232   -0.541899    1.056816
      8          6           0       -0.771740   -0.923540   -1.130616
      9          6           0        0.535174   -1.170965   -1.046894
     10          1           0        0.993024   -1.766685    1.403336
     11          1           0        2.472139   -0.929160   -0.183666
     12          1           0        2.247197    1.346086    0.604248
     13          1           0        2.054971    1.212889   -1.129350
     14          1           0        0.480962    2.868663    0.038762
     15          1           0       -1.738733    2.193861    0.003009
     16          1           0       -2.561331    0.117512   -0.669680
     17          1           0       -0.911707   -0.561840    1.471925
     18          1           0       -1.355119   -1.470961   -1.867451
     19          1           0        0.983052   -1.897212   -1.721136
 ---------------------------------------------------------------------

 SCF Done:  E(RB3LYP) =  -423.180485184     A.U. after    1 cycles

 The electronic state is 1-A.
 Alpha  occ. eigenvalues --  -19.15416 -19.11364 -10.24543 -10.22925 -10.19303
 Alpha  occ. eigenvalues --  -10.18690 -10.18511 -10.18451 -10.17547  -1.03181
 Alpha  occ. eigenvalues --   -0.99581  -0.81872  -0.76686  -0.74814  -0.65705
 Alpha  occ. eigenvalues --   -0.64409  -0.55314  -0.52955  -0.51454  -0.50155
 Alpha  occ. eigenvalues --   -0.45132  -0.44576  -0.43856  -0.41141  -0.40088
 Alpha  occ. eigenvalues --   -0.39557  -0.38382  -0.34582  -0.33325  -0.32107
 Alpha  occ. eigenvalues --   -0.28824  -0.25892  -0.25800  -0.23740
 Alpha virt. eigenvalues --   -0.00905   0.02556   0.06717   0.09379   0.11920
 Alpha virt. eigenvalues --    0.12432   0.15717   0.16423   0.17062   0.18827
 Alpha virt. eigenvalues --    0.19370   0.19888   0.20878   0.21464   0.23144

 Mulliken charges:
               1
     1  O   -0.424666
     2  C    0.041814
     3  C   -0.251163
     4  C   -0.033738
     5  C   -0.090419
     6  C    0.040298
     7  O   -0.441602
     8  C   -0.065936
     9  C   -0.103264
    10  H    0.289135
    11  H    0.073823
    12  H    0.118471
    13  H    0.115748
    14  H    0.088565
    15  H    0.091020
    16  H    0.081362
    17  H    0.281533
    18  H    0.097987
    19  H    0.091032
 Sum of Mulliken charges =   0.00000

 Dipole moment (field-independent basis, Debye):
    X=              2.1318    Y=             -0.5514    Z=             -1.4664  Tot=              2.6455
 Quadrupole moment (field-independent basis, Debye-Ang):
   XX=            -53.2826   YY=            -48.6598   ZZ=            -55.0827
   XY=             -2.6001   XZ=              2.5917   YZ=              0.0582

  Exact polarizability:  94.557   0.349  75.387   1.064   3.938  62.062
 Approx polarizability: 153.478   3.166 104.084   0.698   2.672  95.952

                      1                      2                      3
                      A                      A                      A
 Frequencies --    107.2595               182.2571               214.8994
 Red. masses --      3.2028                 4.9707                 3.7107
 Frc consts  --      0.0217                 0.0973                 0.1010
 IR Inten    --      3.0386                 2.7054                 0.8634

                      4                      5                      6
                      A                      A                      A
 Frequencies --    265.5929               306.7124               331.6148
 Red. masses --      2.8819                 2.2994                 3.6609
 Frc consts  --      0.1198                 0.1274                 0.2372
 IR Inten    --      4.7168                16.7269                 0.9770

                      7                      8                      9
                      A                      A                      A
 Frequencies --    346.4310               438.5559               491.0353
 Red. masses --      1.3855                 2.6917                 4.1088
 Frc consts  --      0.0980                 0.3050                 0.5837
 IR Inten    --    116.8682                 6.3883                 3.2382

                     10                     11                     12
                      A                      A                      A
 Frequencies --    518.7782               601.2437               666.6544
 Red. masses --      2.7230                 3.5935                 1.0962
 Frc consts  --      0.4318                 0.7654                 0.2870
 IR Inten    --      4.2516                 4.1239                70.0972

                     13                     14                     15
                      A                      A                      A
 Frequencies --    721.7889               751.2695               759.8730
 Red. masses --      1.6907                 2.2567                 2.9185
 Frc consts  --      0.5190                 0.7504                 0.9929
 IR Inten    --     15.3141                 6.2661                 8.4592

                     16                     17                     18
                      A                      A                      A
 Frequencies --    813.0880               859.8554               889.9475
 Red. masses --      3.2412                 3.3599                 4.1152
 Frc consts  --      1.2625                 1.4636                 1.9203
 IR Inten    --      0.5677                41.6233                 8.2830

                     19                     20                     21
                      A                      A                      A
 Frequencies --    905.6200               937.5142               994.5971
 Red. masses --      2.4546                 2.8257                 1.3132
 Frc consts  --      1.1861                 1.4633                 0.7654
 IR Inten    --     10.5360                18.1404                 0.6879

                     22                     23                     24
                      A                      A                      A
 Frequencies --   1010.8183              1031.7529              1050.4585
 Red. masses --      1.2347                 4.8127                 2.9797
 Frc consts  --      0.7433                 3.0185                 1.9372
 IR Inten    --      2.8118                68.1575                44.7698

                     25                     26                     27
                      A                      A                      A
 Frequencies --   1070.3944              1096.7080              1218.9569
 Red. masses --      2.0076                 2.2701                 1.0878
 Frc consts  --      1.3552                 1.6087                 0.9523
 IR Inten    --     26.2072                27.5442                17.6307

                     28                     29                     30
                      A                      A                      A
 Frequencies --   1238.6394              1254.4597              1275.8013
 Red. masses --      1.0554                 1.0840                 1.1004
 Frc consts  --      0.9540                 1.0051                 1.0553
 IR Inten    --      0.8342                 7.2563                16.6255

                     31                     32                     33
                      A                      A                      A
 Frequencies --   1307.2795              1380.0442              1382.7034
 Red. masses --      1.1839                 1.3543                 1.2689
 Frc consts  --      1.1920                 1.5196                 1.4293
 IR Inten    --      8.6596                 7.7356                 3.8798

                     34                     35                     36
                      A                      A                      A
 Frequencies --   1399.3416              1402.6963              1425.3505
 Red. masses --      1.5341                 1.6647                 1.4954
 Frc consts  --      1.7699                 1.9298                 1.7900
 IR Inten    --      3.5985                 6.5404                 8.1354

                     37                     38                     39
                      A                      A                      A
 Frequencies --   1435.5583              1452.5778              1484.7363
 Red. masses --      1.3839                 1.1043                 1.1819
 Frc consts  --      1.6804                 1.3728                 1.5351
 IR Inten    --      3.4091                 8.1041                67.3523

                     40                     41                     42
                      A                      A                      A
 Frequencies --   1718.8258              1732.5697              2993.5430
 Red. masses --      6.6663                 6.9666                 1.0784
 Frc consts  --     11.6037                12.3212                 5.6939
 IR Inten    --      1.1800                 3.4825                25.9677

                     43                     44                     45
                      A                      A                      A
 Frequencies --   3010.5888              3040.2015              3051.2651
 Red. masses --      1.0698                 1.0958                 1.0851
 Frc consts  --      5.7127                 5.9675                 5.9524
 IR Inten    --     54.5909                17.6565                33.9871

                     46                     47                     48
                      A                      A                      A
 Frequencies --   3124.5644              3140.1212              3153.8455
 Red. masses --      1.0835                 1.0838                 1.0935
 Frc consts  --      6.2325                 6.2962                 6.4082
 IR Inten    --     10.7814                 7.4147                40.7024

                     49                     50                     51
                      A                      A                      A
 Frequencies --   3164.7220              3689.5079              3803.9641
 Red. masses --      1.0965                 1.0658                 1.0661
 Frc consts  --      6.4707                 8.5479                 9.0894
 IR Inten    --     26.2701                91.8830                27.9811

 - Thermochemistry -
 -------------------
 Temperature   298.150 Kelvin.  Pressure   1.00000 Atm.
 Atom     1 has atomic number  8 and mass  15.99491

 Molecular mass:   126.06808 amu.
 Principal axes and moments of inertia in atomic units:
                           1         2         3
     Eigenvalues --   839.631771051.542581260.78715
           X            0.99990  -0.01088   0.00952
           Y            0.01050   0.99917   0.03944
           Z           -0.00995  -0.03933   0.99918
 This molecule is an asymmetric top.
 Rotational symmetry number  1.
 Warning -- assumption of classical behavior for rotation
           may cause significant error
 Rotational temperatures (Kelvin)      0.10316     0.08237     0.06870
 Rotational constants (GHZ):           2.14944     1.71628     1.43144
 Zero-point vibrational energy     422560.4 (Joules/Mol)
                                  100.99436 (Kcal/Mol)
 Warning -- explicit consideration of  11 degrees of freedom as
           vibrations may cause significant error
 Vibrational temperatures:    154.32   262.23   309.19   382.13   441.29
          (Kelvin)            477.12   498.44   630.98   706.49   746.41
                              865.05   959.17  1038.49  1080.91  1093.29
                             1169.85  1237.14  1280.43  1302.98  1348.87
                             1431.00  1454.34  1484.46  1511.37  1540.06
                             1577.92  1753.80  1782.12  1804.89  1835.59
                             1880.88  1985.57  1989.40  2013.34  2018.16
                             2050.76  2065.45  2089.93  2136.20  2473.00
                             2492.78  4307.04  4331.56  4374.17  4390.08
                             4495.55  4517.93  4537.67  4553.32  5308.37
                             5473.05

 Zero-point correction=                           0.160945 (Hartree/Particle)
 Thermal correction to Energy=                    0.169147
 Thermal correction to Enthalpy=                  0.170091
 Thermal correction to Gibbs Free Energy=         0.128653
 Sum of electronic and zero-point Energies=           -423.019540
 Sum of electronic and thermal Energies=              -423.011338
 Sum of electronic and thermal Enthalpies=            -423.010394
 Sum of electronic and thermal Free Energies=         -423.051832

                     E (Thermal)             CV                S
                      KCal/Mol        Cal/Mol-Kelvin    Cal/Mol-Kelvin
 Total                  106.141             32.572             87.213
 Electronic               0.000              0.000              0.000
 Translational            0.889              2.981             40.409
 Rotational               0.889              2.981             28.500
 Vibrational            104.364             26.610             18.305
 Vibration     1          0.606              1.943              3.318
 Vibration     2          0.630              1.864              2.305
 Vibration     3          0.645              1.818              2.002
 Vibration     4          0.671              1.736              1.625
 Vibration     5          0.697              1.661              1.380
 Vibration     6          0.714              1.612              1.252
 Vibration     7          0.724              1.583              1.182
 Vibration     8          0.799              1.386              0.831
 Vibration     9          0.847              1.270              0.681
 Vibration    10          0.874              1.208              0.613
 Vibration    11          0.959              1.029              0.448

 Optimization completed.
    -- Stationary point found.
 Normal termination of Gaussian 09 at Tue Jan 28 04:44:19 2020.
