 Gaussian 09, Revision D.01,
 Gaussian 09:  ES64L-G09RevD.01 24-Apr-2013

 -----------------------------
 # b3lyp 6-31G(2df,p) opt Freq
 -----------------------------

 -----
 titel
 -----
 Symbolic Z-matrix:
 Charge =  0 Multiplicity = 1

 SCF Done:  E(RB3LYP) =  -423.172089748     A.U. after   14 cycles
 Optimization completed.
    -- Stationary point found.
 Normal termination of Gaussian 09 at Mon Jan 27 18:45:16 2020.

 ----------------------------------------------------------------------
 #N Geom=AllCheck Guess=TCheck SCRF=Check GenChk RB3LYP/6-31G(2df,p) Fr
 eq
 ----------------------------------------------------------------------

 Structure from the checkpoint file:  "/scratch/puck/g09_3cf36b25-cd96-44d0-9a82-93a61b85a762/Gau-76568.chk"
 -----
 titel
 -----
 Charge =  0 Multiplicity = 1

                         Standard orientation:
 ---------------------------------------------------------------------
 Center     Atomic      Atomic             Coordinates (Angstroms)
 Number     Number       Type             X           Y           Z
 ---------------------------------------------------------------------
      1          6           0       -1.916313   -1.032355   -0.718546
      2          6           0       -0.691570   -0.429440   -0.053716
      3          6           0       -1.023141    0.424362    1.200990
      4          8           0       -0.889444    1.638289    0.432811
      5          6           0       -0.240123    0.923290   -0.664129
      6          6           0        1.242673    1.121264   -0.658096
      7          6           0        2.059078    0.210410   -0.133969
      8          6           0        1.573296   -1.091046    0.433580
      9          8           0        0.265981   -1.456805    0.028084
     10          1           0       -2.706021   -0.282262   -0.813815
     11          1           0       -1.660200   -1.406475   -1.714081
     12          1           0       -2.294412   -1.869191   -0.123706
     13          1           0       -2.026524    0.311611    1.625709
     14          1           0       -0.279164    0.359886    2.005739
     15          1           0       -0.692696    1.204215   -1.622217
     16          1           0        1.626240    2.059691   -1.048969
     17          1           0        3.130990    0.383576   -0.077503
     18          1           0        2.222042   -1.913302    0.109390
     19          1           0        1.644052   -1.058529    1.535612
 ---------------------------------------------------------------------

 SCF Done:  E(RB3LYP) =  -423.172089748     A.U. after    1 cycles

 The electronic state is 1-A.
 Alpha  occ. eigenvalues --  -19.14640 -19.13168 -10.24210 -10.23859 -10.23063
 Alpha  occ. eigenvalues --  -10.22309 -10.19337 -10.18601 -10.17711  -1.05161
 Alpha  occ. eigenvalues --   -1.02297  -0.80086  -0.77646  -0.70819  -0.67464
 Alpha  occ. eigenvalues --   -0.64564  -0.58974  -0.51506  -0.50855  -0.49822
 Alpha  occ. eigenvalues --   -0.47097  -0.45287  -0.43963  -0.41307  -0.40348
 Alpha  occ. eigenvalues --   -0.38700  -0.38459  -0.36867  -0.35713  -0.34335
 Alpha  occ. eigenvalues --   -0.28991  -0.26420  -0.25150  -0.24405
 Alpha virt. eigenvalues --    0.00506   0.08100   0.10129   0.10599   0.11957
 Alpha virt. eigenvalues --    0.13908   0.14979   0.15372   0.16268   0.16975
 Alpha virt. eigenvalues --    0.17816   0.18878   0.19450   0.19925   0.21984

 Mulliken charges:
               1
     1  C   -0.440098
     2  C    0.354153
     3  C   -0.139359
     4  O   -0.294594
     5  C    0.018230
     6  C   -0.069326
     7  C   -0.076672
     8  C   -0.131711
     9  O   -0.302094
    10  H    0.128060
    11  H    0.123962
    12  H    0.123621
    13  H    0.103194
    14  H    0.099069
    15  H    0.076220
    16  H    0.099085
    17  H    0.100804
    18  H    0.120225
    19  H    0.107232
 Sum of Mulliken charges =   0.00000

 Dipole moment (field-independent basis, Debye):
    X=              0.9390    Y=             -0.7289    Z=             -0.0730  Tot=              1.1909
 Quadrupole moment (field-independent basis, Debye-Ang):
   XX=            -48.5317   YY=            -58.3816   ZZ=            -51.5908
   XY=              1.4682   XZ=              0.7921   YZ=             -2.5750

  Exact polarizability:  87.496  -2.891  72.985   1.879  -6.134  66.969
 Approx polarizability: 119.214 -12.938 114.305   4.656 -11.771 102.020

                      1                      2                      3
                      A                      A                      A
 Frequencies --    103.2045               169.2806               245.9689
 Red. masses --      3.0520                 3.0289                 1.7223
 Frc consts  --      0.0192                 0.0511                 0.0614
 IR Inten    --      2.3391                 2.6451                 2.2996

                      4                      5                      6
                      A                      A                      A
 Frequencies --    260.0819               307.2095               333.1602
 Red. masses --      1.3587                 2.8469                 2.2938
 Frc consts  --      0.0541                 0.1583                 0.1500
 IR Inten    --      1.0738                 1.6549                 0.9176

                      7                      8                      9
                      A                      A                      A
 Frequencies --    411.4893               470.2526               503.1902
 Red. masses --      3.6808                 2.6257                 4.0640
 Frc consts  --      0.3672                 0.3421                 0.6063
 IR Inten    --      3.4161                10.9112                 1.3296

                     10                     11                     12
                      A                      A                      A
 Frequencies --    552.4093               636.3824               720.8275
 Red. masses --      4.4136                 3.7978                 1.6173
 Frc consts  --      0.7935                 0.9062                 0.4951
 IR Inten    --      2.8061                 1.9435                12.8364

                     13                     14                     15
                      A                      A                      A
 Frequencies --    804.5007               875.3036               898.9444
 Red. masses --      4.0300                 3.1796                 2.2592
 Frc consts  --      1.5368                 1.4353                 1.0757
 IR Inten    --      5.0353                 8.3645                 9.0415

                     16                     17                     18
                      A                      A                      A
 Frequencies --    909.5541               923.0791               950.4963
 Red. masses --      2.4894                 1.8184                 2.0775
 Frc consts  --      1.2134                 0.9129                 1.1058
 IR Inten    --      2.3015                 9.9691                 6.6858

                     19                     20                     21
                      A                      A                      A
 Frequencies --    973.0286               999.9895              1005.7764
 Red. masses --      4.4105                 1.2497                 4.7624
 Frc consts  --      2.4603                 0.7363                 2.8384
 IR Inten    --     50.9729                 0.7837                41.8137

                     22                     23                     24
                      A                      A                      A
 Frequencies --   1038.6458              1051.9503              1123.7773
 Red. masses --      1.8585                 2.0214                 2.2541
 Frc consts  --      1.1812                 1.3179                 1.6772
 IR Inten    --      8.5529                11.3496                60.9854

                     25                     26                     27
                      A                      A                      A
 Frequencies --   1149.7488              1174.6525              1191.7783
 Red. masses --      1.2789                 2.2813                 1.5475
 Frc consts  --      0.9961                 1.8546                 1.2950
 IR Inten    --      0.7350                 7.7499                 3.4699

                     28                     29                     30
                      A                      A                      A
 Frequencies --   1223.0819              1243.5844              1267.1033
 Red. masses --      2.3847                 2.0310                 1.1394
 Frc consts  --      2.1018                 1.8506                 1.0778
 IR Inten    --     44.3161                49.2278                 6.7201

                     31                     32                     33
                      A                      A                      A
 Frequencies --   1289.2364              1336.6155              1380.1912
 Red. masses --      1.3941                 1.3449                 1.8807
 Frc consts  --      1.3652                 1.4156                 2.1108
 IR Inten    --     13.0920                 0.1564                11.0636

                     34                     35                     36
                      A                      A                      A
 Frequencies --   1404.1456              1406.6373              1417.5303
 Red. masses --      1.3709                 1.3667                 1.7005
 Frc consts  --      1.5925                 1.5933                 2.0133
 IR Inten    --      4.3851                 8.7058                 8.8586

                     37                     38                     39
                      A                      A                      A
 Frequencies --   1484.0691              1490.2624              1497.3043
 Red. masses --      1.0522                 1.0717                 1.0752
 Frc consts  --      1.3654                 1.4024                 1.4203
 IR Inten    --      2.4498                 4.3353                 0.3513

                     40                     41                     42
                      A                      A                      A
 Frequencies --   1514.2931              1723.8323              2945.3132
 Red. masses --      1.0995                 6.7101                 1.0731
 Frc consts  --      1.4855                11.7481                 5.4847
 IR Inten    --      1.1775                 0.7768                43.2119

                     43                     44                     45
                      A                      A                      A
 Frequencies --   3013.4073              3037.4873              3042.9536
 Red. masses --      1.0581                 1.0772                 1.0425
 Frc consts  --      5.6609                 5.8555                 5.6876
 IR Inten    --     64.8425                23.2708                23.4109

                     46                     47                     48
                      A                      A                      A
 Frequencies --   3050.3053              3069.1997              3116.2539
 Red. masses --      1.0865                 1.1066                 1.1020
 Frc consts  --      5.9563                 6.1417                 6.3054
 IR Inten    --     32.9928                42.7534                17.9299

                     49                     50                     51
                      A                      A                      A
 Frequencies --   3124.8967              3152.1456              3174.5957
 Red. masses --      1.1023                 1.0838                 1.0979
 Frc consts  --      6.3419                 6.3445                 6.5191
 IR Inten    --     15.4540                 7.0448                24.3020

 - Thermochemistry -
 -------------------
 Temperature   298.150 Kelvin.  Pressure   1.00000 Atm.
 Atom     1 has atomic number  6 and mass  12.00000

 Molecular mass:   126.06808 amu.
 Principal axes and moments of inertia in atomic units:
                           1         2         3
     Eigenvalues --   736.79354 973.629181311.02125
           X            0.99756   0.06675   0.02063
           Y           -0.06637   0.99762  -0.01866
           Z           -0.02183   0.01724   0.99961
 This molecule is an asymmetric top.
 Rotational symmetry number  1.
 Warning -- assumption of classical behavior for rotation
           may cause significant error
 Rotational temperatures (Kelvin)      0.11756     0.08896     0.06607
 Rotational constants (GHZ):           2.44945     1.85362     1.37659
 Zero-point vibrational energy     419824.2 (Joules/Mol)
                                  100.34040 (Kcal/Mol)
 Warning -- explicit consideration of  10 degrees of freedom as
           vibrations may cause significant error
 Vibrational temperatures:    148.49   243.56   353.89   374.20   442.01
          (Kelvin)            479.34   592.04   676.59   723.98   794.79
                              915.61  1037.11  1157.50  1259.37  1293.38
                             1308.64  1328.10  1367.55  1399.97  1438.76
                             1447.09  1494.38  1513.52  1616.86  1654.23
                             1690.06  1714.70  1759.74  1789.24  1823.08
                             1854.92  1923.09  1985.78  2020.25  2023.83
                             2039.51  2135.24  2144.15  2154.28  2178.73
                             2480.21  4237.64  4335.62  4370.26  4378.13
                             4388.70  4415.89  4483.59  4496.02  4535.23
                             4567.53

 Zero-point correction=                           0.159903 (Hartree/Particle)
 Thermal correction to Energy=                    0.167737
 Thermal correction to Enthalpy=                  0.168682
 Thermal correction to Gibbs Free Energy=         0.127851
 Sum of electronic and zero-point Energies=           -423.012187
 Sum of electronic and thermal Energies=              -423.004352
 Sum of electronic and thermal Enthalpies=            -423.003408
 Sum of electronic and thermal Free Energies=         -423.044239

                     E (Thermal)             CV                S
                      KCal/Mol        Cal/Mol-Kelvin    Cal/Mol-Kelvin
 Total                  105.257             30.854             85.935
 Electronic               0.000              0.000              0.000
 Translational            0.889              2.981             40.409
 Rotational               0.889              2.981             28.333
 Vibrational            103.479             24.892             17.194
 Vibration     1          0.605              1.947              3.393
 Vibration     2          0.625              1.880              2.443
 Vibration     3          0.660              1.769              1.759
 Vibration     4          0.668              1.746              1.661
 Vibration     5          0.697              1.660              1.377
 Vibration     6          0.715              1.609              1.245
 Vibration     7          0.775              1.445              0.921
 Vibration     8          0.827              1.316              0.737
 Vibration     9          0.859              1.243              0.650
 Vibration    10          0.908              1.134              0.539

 Optimization completed.
    -- Stationary point found.
 Normal termination of Gaussian 09 at Mon Jan 27 19:42:42 2020.
