 Gaussian 09, Revision D.01,
 Gaussian 09:  ES64L-G09RevD.01 24-Apr-2013

 -----------------------------
 # b3lyp 6-31G(2df,p) opt Freq
 -----------------------------

 -----
 titel
 -----
 Symbolic Z-matrix:
 Charge =  0 Multiplicity = 1

 SCF Done:  E(RB3LYP) =  -423.115107599     A.U. after   14 cycles
 Optimization completed.
    -- Stationary point found.
 Normal termination of Gaussian 09 at Mon Jan 27 22:15:27 2020.

 ----------------------------------------------------------------------
 #N Geom=AllCheck Guess=TCheck SCRF=Check GenChk RB3LYP/6-31G(2df,p) Fr
 eq
 ----------------------------------------------------------------------

 Structure from the checkpoint file:  "/scratch/puck/g09_c0565a43-bae3-4d11-9cae-b55718a415c7/Gau-28926.chk"
 -----
 titel
 -----
 Charge =  0 Multiplicity = 1

                         Standard orientation:
 ---------------------------------------------------------------------
 Center     Atomic      Atomic             Coordinates (Angstroms)
 Number     Number       Type             X           Y           Z
 ---------------------------------------------------------------------
      1          6           0        2.022654    1.489239   -0.030575
      2          6           0        0.964499    0.418229   -0.155777
      3          6           0        1.276644   -0.873709   -0.949091
      4          8           0        0.814795   -1.707178    0.146562
      5          6           0        0.588281   -0.546360    0.991069
      6          6           0       -0.846144    0.006579    1.031016
      7          6           0       -1.516389   -0.162524   -0.308145
      8          8           0       -2.821776    0.334097   -0.409060
      9          6           0       -0.501268    0.924780   -0.165242
     10          1           0        1.769064    2.198496    0.764873
     11          1           0        3.001119    1.055065    0.200155
     12          1           0        2.118021    2.060232   -0.961907
     13          1           0        0.718403   -1.052059   -1.875243
     14          1           0        2.346949   -1.028997   -1.137214
     15          1           0        1.127470   -0.601240    1.940722
     16          1           0       -1.428540    0.222472    1.919025
     17          1           0       -1.319160   -1.054499   -0.898824
     18          1           0       -3.411420   -0.306162    0.002947
     19          1           0       -0.795735    1.953941   -0.334081
 ---------------------------------------------------------------------

 SCF Done:  E(RB3LYP) =  -423.115107599     A.U. after    1 cycles

 The electronic state is 1-A.
 Alpha  occ. eigenvalues --  -19.14388 -19.13003 -10.23620 -10.23149 -10.22515
 Alpha  occ. eigenvalues --  -10.19950 -10.19334 -10.18830 -10.18306  -1.03682
 Alpha  occ. eigenvalues --   -1.02700  -0.87573  -0.76480  -0.69269  -0.66889
 Alpha  occ. eigenvalues --   -0.60655  -0.58227  -0.54241  -0.50594  -0.48645
 Alpha  occ. eigenvalues --   -0.47292  -0.45572  -0.43587  -0.41129  -0.40468
 Alpha  occ. eigenvalues --   -0.40020  -0.38395  -0.35477  -0.32357  -0.30764
 Alpha  occ. eigenvalues --   -0.29267  -0.26922  -0.24649  -0.23932
 Alpha virt. eigenvalues --    0.06129   0.07795   0.10009   0.10751   0.11056
 Alpha virt. eigenvalues --    0.14145   0.14791   0.15074   0.16720   0.16995
 Alpha virt. eigenvalues --    0.17471   0.17888   0.18706   0.21004   0.22067

 Mulliken charges:
               1
     1  C   -0.493291
     2  C    0.289596
     3  C   -0.144924
     4  O   -0.306011
     5  C    0.055806
     6  C   -0.118580
     7  C    0.077572
     8  O   -0.441488
     9  C   -0.135069
    10  H    0.123100
    11  H    0.119283
    12  H    0.122728
    13  H    0.102304
    14  H    0.097790
    15  H    0.076466
    16  H    0.085799
    17  H    0.105092
    18  H    0.288052
    19  H    0.095778
 Sum of Mulliken charges =   0.00000

 Dipole moment (field-independent basis, Debye):
    X=              0.2423    Y=              0.7074    Z=              0.5327  Tot=              0.9181
 Quadrupole moment (field-independent basis, Debye-Ang):
   XX=            -49.9519   YY=            -57.0522   ZZ=            -51.3875
   XY=              5.2864   XZ=             -3.1897   YZ=              1.1356

  Exact polarizability:  85.467   1.141  68.392  -2.732   0.535  69.335
 Approx polarizability: 112.096  -0.254 104.537  -3.040  -2.786 108.486

                      1                      2                      3
                      A                      A                      A
 Frequencies --    186.7130               189.9115               217.9405
 Red. masses --      2.9983                 4.0638                 1.4003
 Frc consts  --      0.0616                 0.0864                 0.0392
 IR Inten    --      7.0120                 1.6710                 1.0352

                      4                      5                      6
                      A                      A                      A
 Frequencies --    232.4564               287.8529               301.6076
 Red. masses --      1.7659                 2.2291                 1.2640
 Frc consts  --      0.0562                 0.1088                 0.0677
 IR Inten    --      0.6974                14.4899                83.4008

                      7                      8                      9
                      A                      A                      A
 Frequencies --    340.5469               394.0791               458.9882
 Red. masses --      2.5861                 4.2143                 2.7175
 Frc consts  --      0.1767                 0.3856                 0.3373
 IR Inten    --      2.8514                 8.1469                 0.5964

                     10                     11                     12
                      A                      A                      A
 Frequencies --    519.9873               651.8732               719.9068
 Red. masses --      4.0065                 4.3409                 4.6137
 Frc consts  --      0.6383                 1.0868                 1.4088
 IR Inten    --      5.3405                 6.6183                 2.9535

                     13                     14                     15
                      A                      A                      A
 Frequencies --    803.8842               839.2518               858.5167
 Red. masses --      2.0556                 2.3266                 2.4313
 Frc consts  --      0.7826                 0.9655                 1.0558
 IR Inten    --      0.5294                 3.7984                 4.3993

                     16                     17                     18
                      A                      A                      A
 Frequencies --    889.6043               894.3551               931.0970
 Red. masses --      2.4735                 1.7581                 2.2906
 Frc consts  --      1.1534                 0.8285                 1.1700
 IR Inten    --      8.4240                21.4041                31.5149

                     19                     20                     21
                      A                      A                      A
 Frequencies --    968.0060               979.5371               989.7672
 Red. masses --      1.9960                 1.7427                 2.9627
 Frc consts  --      1.1020                 0.9852                 1.7100
 IR Inten    --     20.2420                19.9322                32.9320

                     22                     23                     24
                      A                      A                      A
 Frequencies --   1006.9088              1032.2300              1081.0943
 Red. masses --      2.1164                 2.1584                 1.2534
 Frc consts  --      1.2642                 1.3550                 0.8631
 IR Inten    --      7.9941                11.9380                25.5370

                     25                     26                     27
                      A                      A                      A
 Frequencies --   1123.3561              1149.0972              1156.4132
 Red. masses --      1.8952                 1.4409                 2.5623
 Frc consts  --      1.4091                 1.1210                 2.0188
 IR Inten    --     44.3292                 1.4042                 6.7326

                     28                     29                     30
                      A                      A                      A
 Frequencies --   1174.7138              1178.3009              1224.3156
 Red. masses --      1.8988                 1.6812                 2.0700
 Frc consts  --      1.5438                 1.3752                 1.8281
 IR Inten    --      0.0993                 2.0147                 1.4389

                     31                     32                     33
                      A                      A                      A
 Frequencies --   1241.6136              1262.4898              1288.2669
 Red. masses --      2.1473                 2.0978                 1.4755
 Frc consts  --      1.9503                 1.9700                 1.4428
 IR Inten    --      1.0486                73.6417                 2.5464

                     34                     35                     36
                      A                      A                      A
 Frequencies --   1299.2357              1329.6551              1374.4291
 Red. masses --      1.3030                 1.4801                 2.0220
 Frc consts  --      1.2959                 1.5418                 2.2505
 IR Inten    --     42.1934                 3.8709                 2.1770

                     37                     38                     39
                      A                      A                      A
 Frequencies --   1412.6037              1450.4661              1491.1509
 Red. masses --      1.2826                 2.0331                 1.0493
 Frc consts  --      1.5079                 2.5201                 1.3747
 IR Inten    --      1.9447                13.0631                 3.7204

                     40                     41                     42
                      A                      A                      A
 Frequencies --   1494.5930              1517.6749              3010.0309
 Red. masses --      1.0552                 1.0947                 1.0562
 Frc consts  --      1.3888                 1.4856                 5.6384
 IR Inten    --      3.3209                 1.1770                64.3887

                     43                     44                     45
                      A                      A                      A
 Frequencies --   3023.9177              3060.9976              3071.8159
 Red. masses --      1.0361                 1.1085                 1.0891
 Frc consts  --      5.5820                 6.1195                 6.0552
 IR Inten    --     32.5893                36.9744                44.1208

                     46                     47                     48
                      A                      A                      A
 Frequencies --   3087.0370              3098.8327              3123.0710
 Red. masses --      1.1000                 1.1016                 1.0874
 Frc consts  --      6.1761                 6.2326                 6.2487
 IR Inten    --     22.7184                23.9661                22.1224

                     49                     50                     51
                      A                      A                      A
 Frequencies --   3176.9472              3187.3504              3806.7263
 Red. masses --      1.0891                 1.0961                 1.0662
 Frc consts  --      6.4766                 6.5606                 9.1030
 IR Inten    --     15.0158                10.7089                25.7754

 - Thermochemistry -
 -------------------
 Temperature   298.150 Kelvin.  Pressure   1.00000 Atm.
 Atom     1 has atomic number  6 and mass  12.00000

 Molecular mass:   126.06808 amu.
 Principal axes and moments of inertia in atomic units:
                           1         2         3
     Eigenvalues --   617.264471273.259411498.80502
           X            0.99891   0.04516  -0.01165
           Y           -0.04467   0.99824   0.03907
           Z            0.01339  -0.03851   0.99917
 This molecule is an asymmetric top.
 Rotational symmetry number  1.
 Warning -- assumption of classical behavior for rotation
           may cause significant error
 Rotational temperatures (Kelvin)      0.14032     0.06803     0.05779
 Rotational constants (GHZ):           2.92377     1.41742     1.20412
 Zero-point vibrational energy     416247.9 (Joules/Mol)
                                   99.48564 (Kcal/Mol)
 Warning -- explicit consideration of  10 degrees of freedom as
           vibrations may cause significant error
 Vibrational temperatures:    268.64   273.24   313.57   334.45   414.16
          (Kelvin)            433.95   489.97   566.99   660.38   748.14
                              937.90  1035.78  1156.61  1207.49  1235.21
                             1279.94  1286.78  1339.64  1392.74  1409.33
                             1424.05  1448.72  1485.15  1555.45  1616.26
                             1653.29  1663.82  1690.15  1695.31  1761.51
                             1786.40  1816.44  1853.53  1869.31  1913.07
                             1977.49  2032.42  2086.89  2145.43  2150.38
                             2183.59  4330.76  4350.74  4404.09  4419.65
                             4441.55  4458.52  4493.40  4570.91  4585.88
                             5477.02

 Zero-point correction=                           0.158540 (Hartree/Particle)
 Thermal correction to Energy=                    0.166616
 Thermal correction to Enthalpy=                  0.167560
 Thermal correction to Gibbs Free Energy=         0.126493
 Sum of electronic and zero-point Energies=           -422.956567
 Sum of electronic and thermal Energies=              -422.948492
 Sum of electronic and thermal Enthalpies=            -422.947548
 Sum of electronic and thermal Free Energies=         -422.988615

                     E (Thermal)             CV                S
                      KCal/Mol        Cal/Mol-Kelvin    Cal/Mol-Kelvin
 Total                  104.553             32.151             86.433
 Electronic               0.000              0.000              0.000
 Translational            0.889              2.981             40.409
 Rotational               0.889              2.981             28.556
 Vibrational            102.775             26.190             17.468
 Vibration     1          0.632              1.858              2.260
 Vibration     2          0.633              1.854              2.229
 Vibration     3          0.646              1.814              1.976
 Vibration     4          0.653              1.791              1.860
 Vibration     5          0.685              1.696              1.487
 Vibration     6          0.694              1.671              1.408
 Vibration     7          0.720              1.594              1.210
 Vibration     8          0.761              1.483              0.985
 Vibration     9          0.817              1.341              0.769
 Vibration    10          0.875              1.206              0.610

 Normal termination of Gaussian 09 at Tue Jan 28 00:30:50 2020.
