 Gaussian 09, Revision D.01,
 Gaussian 09:  ES64L-G09RevD.01 24-Apr-2013

 -----------------------------
 # b3lyp 6-31G(2df,p) opt Freq
 -----------------------------

 -----
 titel
 -----
 Symbolic Z-matrix:
 Charge =  0 Multiplicity = 1

 SCF Done:  E(RB3LYP) =  -423.138590037     A.U. after   13 cycles
 Optimization completed.
    -- Stationary point found.
 Normal termination of Gaussian 09 at Mon Jan 27 16:10:26 2020.

 ----------------------------------------------------------------------
 #N Geom=AllCheck Guess=TCheck SCRF=Check GenChk RB3LYP/6-31G(2df,p) Fr
 eq
 ----------------------------------------------------------------------

 Structure from the checkpoint file:  "/scratch/puck/g09_deb4fd6e-b698-4bfa-9980-0b2c4fc147c0/Gau-176504.chk"
 -----
 titel
 -----
 Charge =  0 Multiplicity = 1

                         Standard orientation:
 ---------------------------------------------------------------------
 Center     Atomic      Atomic             Coordinates (Angstroms)
 Number     Number       Type             X           Y           Z
 ---------------------------------------------------------------------
      1          6           0        1.225719    1.546851   -0.391948
      2          6           0        1.211908    0.097463    0.040282
      3          8           0        2.498917   -0.429528    0.279287
      4          6           0        0.342475   -0.946848   -0.601137
      5          8           0       -0.811591   -0.514887   -1.285714
      6          6           0       -1.866527   -0.275487   -0.375733
      7          6           0       -1.879262    1.015021    0.399882
      8          6           0       -1.302667   -0.245318    1.021255
      9          6           0        0.149426   -0.637356    0.871919
     10          1           0        2.152786    1.714858   -0.948142
     11          1           0        0.393295    1.775331   -1.058859
     12          1           0        1.203636    2.242717    0.454069
     13          1           0        2.825479   -0.047326    1.101664
     14          1           0        0.790947   -1.854229   -0.994370
     15          1           0       -2.794365   -0.762562   -0.658092
     16          1           0       -1.234307    1.830722    0.110079
     17          1           0       -2.846273    1.328812    0.781516
     18          1           0       -1.830744   -0.691251    1.855737
     19          1           0        0.554506   -1.307720    1.620698
 ---------------------------------------------------------------------

 SCF Done:  E(RB3LYP) =  -423.138590036     A.U. after    1 cycles

 The electronic state is 1-A.
 Alpha  occ. eigenvalues --  -19.14766 -19.14207 -10.24044 -10.23289 -10.22605
 Alpha  occ. eigenvalues --  -10.19704 -10.19154 -10.18592 -10.17620  -1.05089
 Alpha  occ. eigenvalues --   -1.02565  -0.85030  -0.82825  -0.72109  -0.64067
 Alpha  occ. eigenvalues --   -0.61841  -0.57205  -0.54469  -0.53334  -0.48973
 Alpha  occ. eigenvalues --   -0.45975  -0.44704  -0.43248  -0.42733  -0.41341
 Alpha  occ. eigenvalues --   -0.38136  -0.37468  -0.36413  -0.34309  -0.31040
 Alpha  occ. eigenvalues --   -0.29283  -0.28005  -0.24452  -0.23318
 Alpha virt. eigenvalues --    0.07327   0.08733   0.10204   0.10939   0.12905
 Alpha virt. eigenvalues --    0.14287   0.15006   0.15740   0.16319   0.17286
 Alpha virt. eigenvalues --    0.17853   0.19116   0.20655   0.22754   0.23204

 Mulliken charges:
               1
     1  C   -0.486008
     2  C    0.339601
     3  O   -0.456928
     4  C    0.048259
     5  O   -0.265341
     6  C    0.100078
     7  C   -0.335328
     8  C   -0.075740
     9  C   -0.160439
    10  H    0.126195
    11  H    0.145591
    12  H    0.113250
    13  H    0.281832
    14  H    0.104945
    15  H    0.098901
    16  H    0.123700
    17  H    0.111347
    18  H    0.092946
    19  H    0.093139
 Sum of Mulliken charges =   0.00000

 Dipole moment (field-independent basis, Debye):
    X=             -0.4543    Y=              0.6837    Z=              2.1886  Tot=              2.3374
 Quadrupole moment (field-independent basis, Debye-Ang):
   XX=            -50.8419   YY=            -52.2680   ZZ=            -53.5361
   XY=              2.2393   XZ=              1.3928   YZ=             -0.6855

  Exact polarizability:  86.633  -0.972  70.415  -0.916   0.177  65.516
 Approx polarizability: 116.342  -2.585 102.483   0.608   2.141 107.017

                      1                      2                      3
                      A                      A                      A
 Frequencies --    154.1090               180.5012               252.2463
 Red. masses --      2.8779                 2.0269                 2.2482
 Frc consts  --      0.0403                 0.0389                 0.0843
 IR Inten    --      1.0008                 0.3660                 9.1075

                      4                      5                      6
                      A                      A                      A
 Frequencies --    263.0857               304.8107               332.6093
 Red. masses --      1.4691                 1.5293                 2.7337
 Frc consts  --      0.0599                 0.0837                 0.1782
 IR Inten    --     30.6053                43.8811                 6.3023

                      7                      8                      9
                      A                      A                      A
 Frequencies --    410.9762               418.8138               499.4637
 Red. masses --      3.7451                 3.0024                 3.2335
 Frc consts  --      0.3727                 0.3103                 0.4753
 IR Inten    --     16.7227                 5.2450                 2.1158

                     10                     11                     12
                      A                      A                      A
 Frequencies --    557.6140               667.1640               705.3629
 Red. masses --      2.5894                 5.3549                 2.9295
 Frc consts  --      0.4744                 1.4043                 0.8588
 IR Inten    --      0.4083                 7.2174                 3.4327

                     13                     14                     15
                      A                      A                      A
 Frequencies --    747.8022               781.6130               795.7533
 Red. masses --      2.8719                 2.1111                 2.1713
 Frc consts  --      0.9462                 0.7599                 0.8101
 IR Inten    --      5.3687                19.4074                 3.3924

                     16                     17                     18
                      A                      A                      A
 Frequencies --    861.0592               867.8690               924.4312
 Red. masses --      2.5309                 1.9178                 2.2889
 Frc consts  --      1.1056                 0.8511                 1.1524
 IR Inten    --      8.5730                 3.4985                 4.8819

                     19                     20                     21
                      A                      A                      A
 Frequencies --    967.5621               972.2342              1015.9678
 Red. masses --      1.9303                 2.4811                 2.1061
 Frc consts  --      1.0647                 1.3817                 1.2808
 IR Inten    --     23.2525                 2.4461                 9.5735

                     22                     23                     24
                      A                      A                      A
 Frequencies --   1033.6920              1047.9438              1056.3111
 Red. masses --      1.8856                 1.7289                 1.2973
 Frc consts  --      1.1871                 1.1186                 0.8528
 IR Inten    --      2.5902                39.5216                14.3336

                     25                     26                     27
                      A                      A                      A
 Frequencies --   1086.7731              1093.2572              1096.4932
 Red. masses --      1.5845                 1.6063                 1.5362
 Frc consts  --      1.1026                 1.1311                 1.0882
 IR Inten    --      9.8018                 3.9217                14.9068

                     28                     29                     30
                      A                      A                      A
 Frequencies --   1106.3082              1152.0027              1182.3780
 Red. masses --      1.4830                 2.8992                 2.3550
 Frc consts  --      1.0694                 2.2669                 1.9398
 IR Inten    --      1.5993               152.1546                14.4875

                     31                     32                     33
                      A                      A                      A
 Frequencies --   1208.1354              1276.9202              1288.3234
 Red. masses --      1.7543                 1.4403                 1.8865
 Frc consts  --      1.5087                 1.3837                 1.8448
 IR Inten    --     18.5024                 8.7258                 4.3622

                     34                     35                     36
                      A                      A                      A
 Frequencies --   1300.3795              1346.6025              1375.8717
 Red. masses --      1.5119                 1.5962                 1.7761
 Frc consts  --      1.5063                 1.7053                 1.9809
 IR Inten    --     26.6733                 3.3284                10.6667

                     37                     38                     39
                      A                      A                      A
 Frequencies --   1407.0806              1430.4625              1473.8291
 Red. masses --      1.3293                 2.6243                 1.2123
 Frc consts  --      1.5507                 3.1638                 1.5516
 IR Inten    --      7.9662                 8.6051                 9.1606

                     40                     41                     42
                      A                      A                      A
 Frequencies --   1501.5432              1512.0331              3036.1365
 Red. masses --      1.1026                 1.0721                 1.0397
 Frc consts  --      1.4647                 1.4441                 5.6467
 IR Inten    --      2.8462                 7.6316                25.6824

                     43                     44                     45
                      A                      A                      A
 Frequencies --   3100.9763              3139.1726              3143.6908
 Red. masses --      1.0994                 1.0877                 1.0724
 Frc consts  --      6.2285                 6.3155                 6.2445
 IR Inten    --     15.9650                 6.8681                14.1609

                     46                     47                     48
                      A                      A                      A
 Frequencies --   3154.4970              3159.7223              3172.9612
 Red. masses --      1.0891                 1.0908                 1.0897
 Frc consts  --      6.3851                 6.4163                 6.4637
 IR Inten    --     23.9781                25.4231                13.9424

                     49                     50                     51
                      A                      A                      A
 Frequencies --   3186.2576              3261.1859              3791.0135
 Red. masses --      1.0930                 1.1058                 1.0661
 Frc consts  --      6.5376                 6.9292                 9.0277
 IR Inten    --     14.7513                 2.9785                17.7626

 - Thermochemistry -
 -------------------
 Temperature   298.150 Kelvin.  Pressure   1.00000 Atm.
 Atom     1 has atomic number  6 and mass  12.00000

 Molecular mass:   126.06808 amu.
 Principal axes and moments of inertia in atomic units:
                           1         2         3
     Eigenvalues --   567.178381281.947931346.18593
           X            0.99988   0.00861  -0.01299
           Y           -0.01021   0.99171  -0.12806
           Z            0.01178   0.12818   0.99168
 This molecule is an asymmetric top.
 Rotational symmetry number  1.
 Warning -- assumption of classical behavior for rotation
           may cause significant error
 Rotational temperatures (Kelvin)      0.15271     0.06756     0.06434
 Rotational constants (GHZ):           3.18196     1.40781     1.34063
 Zero-point vibrational energy     417514.7 (Joules/Mol)
                                   99.78840 (Kcal/Mol)
 Warning -- explicit consideration of  10 degrees of freedom as
           vibrations may cause significant error
 Vibrational temperatures:    221.73   259.70   362.93   378.52   438.55
          (Kelvin)            478.55   591.30   602.58   718.62   802.28
                              959.90  1014.86  1075.92  1124.57  1144.91
                             1238.87  1248.67  1330.05  1392.10  1398.83
                             1461.75  1487.25  1507.76  1519.79  1563.62
                             1572.95  1577.61  1591.73  1657.47  1701.18
                             1738.24  1837.20  1853.61  1870.95  1937.46
                             1979.57  2024.47  2058.11  2120.51  2160.38
                             2175.48  4368.32  4461.61  4516.56  4523.06
                             4538.61  4546.13  4565.18  4584.31  4692.11
                             5454.42

 Zero-point correction=                           0.159023 (Hartree/Particle)
 Thermal correction to Energy=                    0.166946
 Thermal correction to Enthalpy=                  0.167890
 Thermal correction to Gibbs Free Energy=         0.127205
 Sum of electronic and zero-point Energies=           -422.979567
 Sum of electronic and thermal Energies=              -422.971644
 Sum of electronic and thermal Enthalpies=            -422.970700
 Sum of electronic and thermal Free Energies=         -423.011385

                     E (Thermal)             CV                S
                      KCal/Mol        Cal/Mol-Kelvin    Cal/Mol-Kelvin
 Total                  104.760             32.203             85.628
 Electronic               0.000              0.000              0.000
 Translational            0.889              2.981             40.409
 Rotational               0.889              2.981             28.372
 Vibrational            102.983             26.242             16.847
 Vibration     1          0.620              1.898              2.621
 Vibration     2          0.629              1.866              2.323
 Vibration     3          0.664              1.759              1.715
 Vibration     4          0.670              1.741              1.641
 Vibration     5          0.696              1.665              1.390
 Vibration     6          0.715              1.610              1.247
 Vibration     7          0.775              1.446              0.923
 Vibration     8          0.782              1.429              0.896
 Vibration     9          0.855              1.251              0.659
 Vibration    10          0.913              1.123              0.529

 Normal termination of Gaussian 09 at Mon Jan 27 16:58:49 2020.
