 Gaussian 09, Revision D.01,
 Gaussian 09:  ES64L-G09RevD.01 24-Apr-2013

 -----------------------------
 # b3lyp 6-31G(2df,p) opt Freq
 -----------------------------

 -----
 titel
 -----
 Symbolic Z-matrix:
 Charge =  0 Multiplicity = 1

 SCF Done:  E(RB3LYP) =  -423.204315951     A.U. after   14 cycles
 Optimization completed.
    -- Stationary point found.
 Normal termination of Gaussian 09 at Tue Jan 28 11:43:23 2020.

 ----------------------------------------------------------------------
 #N Geom=AllCheck Guess=TCheck SCRF=Check GenChk RB3LYP/6-31G(2df,p) Fr
 eq
 ----------------------------------------------------------------------

 Structure from the checkpoint file:  "/scratch/puck/g09_d840a264-2c7f-45b7-8b7e-7415685488cc/Gau-26445.chk"
 -----
 titel
 -----
 Charge =  0 Multiplicity = 1

                         Standard orientation:
 ---------------------------------------------------------------------
 Center     Atomic      Atomic             Coordinates (Angstroms)
 Number     Number       Type             X           Y           Z
 ---------------------------------------------------------------------
      1          6           0        2.449471   -0.482899   -0.684822
      2          8           0        1.146880   -0.983089   -0.449983
      3          6           0        0.503066   -0.394711    0.671803
      4          6           0       -0.741605   -1.236313    0.976908
      5          6           0       -1.863519   -0.987586    0.002246
      6          6           0       -1.922392    0.067413   -0.807394
      7          6           0       -0.869534    1.148856   -0.844182
      8          6           0        0.088017    1.043775    0.332203
      9          8           0        0.489262    2.000003    0.951589
     10          1           0        3.104779   -0.647579    0.183347
     11          1           0        2.848691   -1.029117   -1.542358
     12          1           0        2.452567    0.592117   -0.915431
     13          1           0        1.182280   -0.363317    1.535356
     14          1           0       -0.443183   -2.291323    0.961636
     15          1           0       -1.077203   -1.025191    2.001682
     16          1           0       -2.662980   -1.723614   -0.015593
     17          1           0       -2.760716    0.185828   -1.488692
     18          1           0       -0.284607    1.064731   -1.772450
     19          1           0       -1.309787    2.150951   -0.840920
 ---------------------------------------------------------------------

 SCF Done:  E(RB3LYP) =  -423.204315951     A.U. after    1 cycles

 The electronic state is 1-A.
 Alpha  occ. eigenvalues --  -19.15180 -19.13362 -10.26651 -10.23901 -10.22991
 Alpha  occ. eigenvalues --  -10.19586 -10.19394 -10.18974 -10.18765  -1.05023
 Alpha  occ. eigenvalues --   -1.03443  -0.83093  -0.76009  -0.72727  -0.67613
 Alpha  occ. eigenvalues --   -0.62905  -0.57544  -0.51863  -0.50449  -0.47674
 Alpha  occ. eigenvalues --   -0.46798  -0.45187  -0.43317  -0.43098  -0.41677
 Alpha  occ. eigenvalues --   -0.40526  -0.38410  -0.37429  -0.36297  -0.34101
 Alpha  occ. eigenvalues --   -0.32024  -0.28658  -0.24988  -0.23209
 Alpha virt. eigenvalues --   -0.02033   0.01937   0.08408   0.11048   0.12235
 Alpha virt. eigenvalues --    0.13028   0.14429   0.14853   0.16099   0.16876
 Alpha virt. eigenvalues --    0.17376   0.18483   0.19461   0.21048   0.21714

 Mulliken charges:
               1
     1  C   -0.241718
     2  O   -0.248460
     3  C    0.027781
     4  C   -0.293847
     5  C   -0.041470
     6  C   -0.052692
     7  C   -0.345402
     8  C    0.372996
     9  O   -0.317446
    10  H    0.113740
    11  H    0.130742
    12  H    0.118404
    13  H    0.079815
    14  H    0.121303
    15  H    0.122518
    16  H    0.091798
    17  H    0.094226
    18  H    0.139843
    19  H    0.127869
 Sum of Mulliken charges =   0.00000

 Dipole moment (field-independent basis, Debye):
    X=             -0.2609    Y=             -1.4580    Z=             -0.8257  Tot=              1.6957
 Quadrupole moment (field-independent basis, Debye-Ang):
   XX=            -48.5995   YY=            -58.2788   ZZ=            -52.4777
   XY=             -1.1743   XZ=             -0.9513   YZ=             -5.5295

  Exact polarizability:  80.023   2.686  79.468   4.043  -7.048  71.244
 Approx polarizability: 103.572   6.073 125.456   6.845  -8.934 112.157

                      1                      2                      3
                      A                      A                      A
 Frequencies --     69.2659                98.1664               108.1897
 Red. masses --      4.2426                 2.8841                 2.3477
 Frc consts  --      0.0120                 0.0164                 0.0162
 IR Inten    --      3.7064                 2.7313                 0.7526

                      4                      5                      6
                      A                      A                      A
 Frequencies --    164.9097               242.9691               272.2847
 Red. masses --      1.3729                 2.7364                 2.5754
 Frc consts  --      0.0220                 0.0952                 0.1125
 IR Inten    --      0.2000                 7.1569                 2.1439

                      7                      8                      9
                      A                      A                      A
 Frequencies --    378.3419               384.3753               466.3622
 Red. masses --      2.1069                 3.3211                 5.0233
 Frc consts  --      0.1777                 0.2891                 0.6437
 IR Inten    --      0.8569                 0.7172                 9.3609

                     10                     11                     12
                      A                      A                      A
 Frequencies --    500.9393               570.8382               605.8075
 Red. masses --      4.5385                 4.8478                 2.5368
 Frc consts  --      0.6710                 0.9307                 0.5485
 IR Inten    --      5.4318                 4.4360                 0.2512

                     13                     14                     15
                      A                      A                      A
 Frequencies --    678.6129               725.9567               859.6940
 Red. masses --      1.3673                 4.0825                 2.3270
 Frc consts  --      0.3710                 1.2676                 1.0133
 IR Inten    --     26.9429                 3.6369                11.8054

                     16                     17                     18
                      A                      A                      A
 Frequencies --    889.6753               938.9621               965.8784
 Red. masses --      3.1154                 2.6155                 2.5599
 Frc consts  --      1.4529                 1.3586                 1.4071
 IR Inten    --      3.8178                 3.7855                 6.6683

                     19                     20                     21
                      A                      A                      A
 Frequencies --    977.5007               999.5572              1040.2378
 Red. masses --      2.9528                 1.2279                 2.5904
 Frc consts  --      1.6623                 0.7228                 1.6515
 IR Inten    --      4.2362                 0.2050                 3.1325

                     22                     23                     24
                      A                      A                      A
 Frequencies --   1046.3710              1130.9086              1142.7668
 Red. masses --      1.7775                 5.3313                 1.7792
 Frc consts  --      1.1466                 4.0173                 1.3689
 IR Inten    --      8.8287               133.2283                23.1777

                     25                     26                     27
                      A                      A                      A
 Frequencies --   1179.9385              1184.4310              1205.1064
 Red. masses --      1.1247                 1.2839                 1.2235
 Frc consts  --      0.9226                 1.0612                 1.0469
 IR Inten    --      2.9922                 2.7501                 2.8821

                     28                     29                     30
                      A                      A                      A
 Frequencies --   1235.8925              1253.4198              1307.7332
 Red. masses --      1.4139                 1.6186                 1.7435
 Frc consts  --      1.2724                 1.4983                 1.7568
 IR Inten    --     17.9734                11.6295                 7.0282

                     31                     32                     33
                      A                      A                      A
 Frequencies --   1330.2372              1360.7590              1374.1731
 Red. masses --      1.8601                 1.2591                 1.5454
 Frc consts  --      1.9393                 1.3736                 1.7194
 IR Inten    --      7.6925                18.7399                 6.5634

                     34                     35                     36
                      A                      A                      A
 Frequencies --   1412.7435              1441.4476              1459.0932
 Red. masses --      1.4875                 1.0877                 1.0901
 Frc consts  --      1.7492                 1.3316                 1.3673
 IR Inten    --      1.0711                 8.4413                 4.7268

                     37                     38                     39
                      A                      A                      A
 Frequencies --   1479.7995              1488.4888              1509.4588
 Red. masses --      1.1136                 1.0639                 1.0663
 Frc consts  --      1.4368                 1.3889                 1.4314
 IR Inten    --      1.6000                 3.6039                 7.5334

                     40                     41                     42
                      A                      A                      A
 Frequencies --   1729.2057              1823.4687              2985.7786
 Red. masses --      6.5945                11.5793                 1.0364
 Frc consts  --     11.6178                22.6845                 5.4436
 IR Inten    --      3.1883               160.1567                45.4206

                     43                     44                     45
                      A                      A                      A
 Frequencies --   3005.5431              3007.7664              3021.5021
 Red. masses --      1.0677                 1.0765                 1.0714
 Frc consts  --      5.6827                 5.7380                 5.7627
 IR Inten    --      9.5748                17.3349                51.8839

                     46                     47                     48
                      A                      A                      A
 Frequencies --   3036.9005              3057.6071              3079.9744
 Red. masses --      1.1035                 1.0969                 1.0914
 Frc consts  --      5.9962                 6.0421                 6.0999
 IR Inten    --     38.2826                12.2348                 9.9196

                     49                     50                     51
                      A                      A                      A
 Frequencies --   3120.8457              3151.5837              3174.3251
 Red. masses --      1.0977                 1.0834                 1.0973
 Frc consts  --      6.2992                 6.3402                 6.5146
 IR Inten    --     23.7935                 4.3102                31.1104

 - Thermochemistry -
 -------------------
 Temperature   298.150 Kelvin.  Pressure   1.00000 Atm.
 Atom     1 has atomic number  6 and mass  12.00000

 Molecular mass:   126.06808 amu.
 Principal axes and moments of inertia in atomic units:
                           1         2         3
     Eigenvalues --   838.528831139.151941449.67888
           X            0.99992  -0.01136  -0.00588
           Y            0.01079   0.99597  -0.08899
           Z            0.00687   0.08892   0.99601
 This molecule is an asymmetric top.
 Rotational symmetry number  1.
 Warning -- assumption of classical behavior for rotation
           may cause significant error
 Rotational temperatures (Kelvin)      0.10329     0.07603     0.05975
 Rotational constants (GHZ):           2.15227     1.58428     1.24492
 Zero-point vibrational energy     416753.8 (Joules/Mol)
                                   99.60655 (Kcal/Mol)
 Warning -- explicit consideration of  12 degrees of freedom as
           vibrations may cause significant error
 Vibrational temperatures:     99.66   141.24   155.66   237.27   349.58
          (Kelvin)            391.76   544.35   553.03   670.99   720.74
                              821.31   871.62   976.37  1044.49  1236.91
                             1280.04  1350.96  1389.68  1406.40  1438.14
                             1496.67  1505.49  1627.12  1644.18  1697.67
                             1704.13  1733.88  1778.17  1803.39  1881.53
                             1913.91  1957.83  1977.13  2032.62  2073.92
                             2099.31  2129.10  2141.60  2171.77  2487.94
                             2623.56  4295.86  4324.30  4327.50  4347.26
                             4369.42  4399.21  4431.39  4490.20  4534.42
                             4567.14

 Zero-point correction=                           0.158733 (Hartree/Particle)
 Thermal correction to Energy=                    0.167621
 Thermal correction to Enthalpy=                  0.168565
 Thermal correction to Gibbs Free Energy=         0.124689
 Sum of electronic and zero-point Energies=           -423.045583
 Sum of electronic and thermal Energies=              -423.036695
 Sum of electronic and thermal Enthalpies=            -423.035750
 Sum of electronic and thermal Free Energies=         -423.079627

                     E (Thermal)             CV                S
                      KCal/Mol        Cal/Mol-Kelvin    Cal/Mol-Kelvin
 Total                  105.184             32.519             92.346
 Electronic               0.000              0.000              0.000
 Translational            0.889              2.981             40.409
 Rotational               0.889              2.981             28.717
 Vibrational            103.406             26.558             23.221
 Vibration     1          0.598              1.969              4.174
 Vibration     2          0.604              1.950              3.490
 Vibration     3          0.606              1.943              3.301
 Vibration     4          0.623              1.886              2.493
 Vibration     5          0.659              1.774              1.781
 Vibration     6          0.675              1.724              1.582
 Vibration     7          0.749              1.516              1.046
 Vibration     8          0.753              1.504              1.022
 Vibration     9          0.824              1.325              0.748
 Vibration    10          0.856              1.248              0.656
 Vibration    11          0.927              1.094              0.503
 Vibration    12          0.964              1.019              0.440

 Optimization completed.
    -- Stationary point found.
 Normal termination of Gaussian 09 at Tue Jan 28 12:26:06 2020.
