 Gaussian 09, Revision D.01,
 Gaussian 09:  ES64L-G09RevD.01 24-Apr-2013

 -----------------------------
 # b3lyp 6-31G(2df,p) opt Freq
 -----------------------------

 -----
 titel
 -----
 Symbolic Z-matrix:
 Charge =  0 Multiplicity = 1

 SCF Done:  E(RB3LYP) =  -423.123503197     A.U. after   13 cycles
 Optimization completed.
    -- Stationary point found.
 Normal termination of Gaussian 09 at Tue Jan 28 13:28:07 2020.

 ----------------------------------------------------------------------
 #N Geom=AllCheck Guess=TCheck SCRF=Check GenChk RB3LYP/6-31G(2df,p) Fr
 eq
 ----------------------------------------------------------------------

 Structure from the checkpoint file:  "/scratch/puck/g09_4dd03c75-5812-4607-947a-9546481e01e8/Gau-109019.chk"
 -----
 titel
 -----
 Charge =  0 Multiplicity = 1

                         Standard orientation:
 ---------------------------------------------------------------------
 Center     Atomic      Atomic             Coordinates (Angstroms)
 Number     Number       Type             X           Y           Z
 ---------------------------------------------------------------------
      1          6           0        3.408927   -0.230509    0.087550
      2          6           0        2.042180   -0.516443   -0.546510
      3          6           0        1.040647    0.571519   -0.241962
      4          8           0        0.515911    0.601265    1.101186
      5          6           0       -0.375364    0.326309    0.041276
      6          6           0       -1.606150    1.182325   -0.361945
      7          6           0       -2.353250   -0.147852   -0.559719
      8          8           0       -2.354469   -0.811875    0.703087
      9          6           0       -1.187879   -0.945640   -0.125660
     10          1           0        4.121306   -1.030185   -0.134456
     11          1           0        3.830721    0.708278   -0.287657
     12          1           0        3.315698   -0.146196    1.174106
     13          1           0        2.143239   -0.606482   -1.636027
     14          1           0        1.654766   -1.472608   -0.178899
     15          1           0        1.302730    1.561256   -0.624994
     16          1           0       -2.020954    1.822166    0.419369
     17          1           0       -1.445212    1.756498   -1.277886
     18          1           0       -3.135746   -0.395614   -1.266052
     19          1           0       -0.872754   -1.950488   -0.379860
 ---------------------------------------------------------------------

 SCF Done:  E(RB3LYP) =  -423.123503197     A.U. after    1 cycles

 The electronic state is 1-A.
 Alpha  occ. eigenvalues --  -19.15533 -19.14981 -10.24687 -10.24473 -10.24079
 Alpha  occ. eigenvalues --  -10.23847 -10.19444 -10.19208 -10.17883  -1.08700
 Alpha  occ. eigenvalues --   -1.06748  -0.79691  -0.78122  -0.67622  -0.66148
 Alpha  occ. eigenvalues --   -0.62206  -0.59296  -0.54991  -0.53211  -0.48577
 Alpha  occ. eigenvalues --   -0.46447  -0.44459  -0.42943  -0.41960  -0.40173
 Alpha  occ. eigenvalues --   -0.39569  -0.37150  -0.36420  -0.34851  -0.34411
 Alpha  occ. eigenvalues --   -0.30385  -0.28899  -0.27632  -0.25028
 Alpha virt. eigenvalues --    0.07384   0.08852   0.10005   0.10862   0.11459
 Alpha virt. eigenvalues --    0.12754   0.13959   0.14202   0.15138   0.15979
 Alpha virt. eigenvalues --    0.16518   0.17559   0.18673   0.19289   0.20298

 Mulliken charges:
               1
     1  C   -0.375642
     2  C   -0.210727
     3  C   -0.040405
     4  O   -0.286928
     5  C    0.436929
     6  C   -0.358921
     7  C    0.032522
     8  O   -0.238092
     9  C   -0.080521
    10  H    0.115194
    11  H    0.116335
    12  H    0.138121
    13  H    0.100985
    14  H    0.104710
    15  H    0.088770
    16  H    0.126886
    17  H    0.112651
    18  H    0.110336
    19  H    0.107797
 Sum of Mulliken charges =   0.00000

 Dipole moment (field-independent basis, Debye):
    X=              0.7880    Y=              0.1117    Z=             -3.1439  Tot=              3.2431
 Quadrupole moment (field-independent basis, Debye-Ang):
   XX=            -52.4229   YY=            -51.3258   ZZ=            -55.5460
   XY=             -2.3916   XZ=              2.7783   YZ=             -0.1402

  Exact polarizability:  96.035  -1.661  70.950   1.116  -1.310  61.577
 Approx polarizability: 120.730  -0.707 104.447  -0.949  -3.886 102.808

                      1                      2                      3
                      A                      A                      A
 Frequencies --     75.5797               118.3402               159.0842
 Red. masses --      2.6335                 4.0053                 3.1613
 Frc consts  --      0.0089                 0.0330                 0.0471
 IR Inten    --      0.9045                 0.0311                 0.6001

                      4                      5                      6
                      A                      A                      A
 Frequencies --    173.5189               247.3413               296.7662
 Red. masses --      2.1148                 1.2999                 3.6030
 Frc consts  --      0.0375                 0.0469                 0.1870
 IR Inten    --      1.0247                 0.1286                 1.1711

                      7                      8                      9
                      A                      A                      A
 Frequencies --    391.5919               428.0546               484.2980
 Red. masses --      2.6128                 2.9689                 2.9896
 Frc consts  --      0.2361                 0.3205                 0.4131
 IR Inten    --      0.6281                 2.9860                 5.4971

                     10                     11                     12
                      A                      A                      A
 Frequencies --    577.2287               611.9889               754.3705
 Red. masses --      3.7896                 5.3210                 1.9385
 Frc consts  --      0.7440                 1.1742                 0.6500
 IR Inten    --      0.1977                22.8792                 4.6570

                     13                     14                     15
                      A                      A                      A
 Frequencies --    795.9545               821.9496               855.2247
 Red. masses --      3.0902                 1.9081                 2.2001
 Frc consts  --      1.1535                 0.7595                 0.9481
 IR Inten    --      5.0438                 8.2563                 3.2794

                     16                     17                     18
                      A                      A                      A
 Frequencies --    857.4087               916.3329               929.6069
 Red. masses --      2.0736                 2.6036                 3.1100
 Frc consts  --      0.8981                 1.2880                 1.5835
 IR Inten    --     35.3724                13.3466                 6.8619

                     19                     20                     21
                      A                      A                      A
 Frequencies --    939.8733               978.1141              1014.5061
 Red. masses --      1.7898                 2.3712                 2.2496
 Frc consts  --      0.9315                 1.3366                 1.3642
 IR Inten    --     13.7706                12.3243                 8.1251

                     22                     23                     24
                      A                      A                      A
 Frequencies --   1032.8535              1053.2617              1072.4437
 Red. masses --      1.6701                 2.2514                 1.9243
 Frc consts  --      1.0497                 1.4715                 1.3040
 IR Inten    --      7.2340                17.2958                 6.4043

                     25                     26                     27
                      A                      A                      A
 Frequencies --   1108.4483              1149.0936              1164.9086
 Red. masses --      2.1639                 1.6916                 1.5632
 Frc consts  --      1.5665                 1.3160                 1.2498
 IR Inten    --      9.4901                 2.6534                 1.2352

                     28                     29                     30
                      A                      A                      A
 Frequencies --   1170.3718              1216.9076              1229.4041
 Red. masses --      1.6367                 1.4716                 1.5061
 Frc consts  --      1.3209                 1.2840                 1.3412
 IR Inten    --      4.2930                 5.0716                 9.5805

                     31                     32                     33
                      A                      A                      A
 Frequencies --   1263.0873              1294.3994              1339.9310
 Red. masses --      1.5189                 1.2208                 1.3315
 Frc consts  --      1.4277                 1.2051                 1.4085
 IR Inten    --      1.5420                 0.0456                12.6043

                     34                     35                     36
                      A                      A                      A
 Frequencies --   1361.9188              1380.3592              1411.0972
 Red. masses --      2.8816                 1.7649                 1.2323
 Frc consts  --      3.1491                 1.9814                 1.4457
 IR Inten    --     13.8549                 8.0720                 1.7191

                     37                     38                     39
                      A                      A                      A
 Frequencies --   1461.5330              1473.6228              1498.7053
 Red. masses --      1.1310                 1.0791                 1.0506
 Frc consts  --      1.4234                 1.3806                 1.3903
 IR Inten    --      2.7384                 1.2066                 3.1706

                     40                     41                     42
                      A                      A                      A
 Frequencies --   1505.6983              1519.5180              3026.1237
 Red. masses --      1.1714                 3.2019                 1.0630
 Frc consts  --      1.5647                 4.3559                 5.7352
 IR Inten    --      5.5978                16.7706                20.8835

                     43                     44                     45
                      A                      A                      A
 Frequencies --   3038.0225              3066.7780              3069.4765
 Red. masses --      1.0359                 1.0908                 1.0588
 Frc consts  --      5.6331                 6.0447                 5.8773
 IR Inten    --     25.8875                 0.9272                18.7936

                     46                     47                     48
                      A                      A                      A
 Frequencies --   3082.5216              3107.5601              3119.4072
 Red. masses --      1.0926                 1.1008                 1.1025
 Frc consts  --      6.1168                 6.2635                 6.3209
 IR Inten    --     30.7541                40.7783                25.0599

                     49                     50                     51
                      A                      A                      A
 Frequencies --   3130.9142              3188.1899              3204.7387
 Red. masses --      1.1082                 1.0892                 1.1001
 Frc consts  --      6.4007                 6.5228                 6.6568
 IR Inten    --     11.0275                11.8224                16.5590

 - Thermochemistry -
 -------------------
 Temperature   298.150 Kelvin.  Pressure   1.00000 Atm.
 Atom     1 has atomic number  6 and mass  12.00000

 Molecular mass:   126.06808 amu.
 Principal axes and moments of inertia in atomic units:
                           1         2         3
     Eigenvalues --   411.876671875.584351964.16491
           X            0.99984  -0.01681   0.00614
           Y            0.01687   0.99981  -0.00980
           Z           -0.00598   0.00990   0.99993
 This molecule is an asymmetric top.
 Rotational symmetry number  1.
 Rotational temperatures (Kelvin)      0.21029     0.04618     0.04410
 Rotational constants (GHZ):           4.38175     0.96223     0.91883
 Zero-point vibrational energy     413719.1 (Joules/Mol)
                                   98.88123 (Kcal/Mol)
 Warning -- explicit consideration of  11 degrees of freedom as
           vibrations may cause significant error
 Vibrational temperatures:    108.74   170.26   228.89   249.65   355.87
          (Kelvin)            426.98   563.41   615.87   696.80   830.50
                              880.51  1085.37  1145.20  1182.60  1230.48
                             1233.62  1318.40  1337.50  1352.27  1407.29
                             1459.65  1486.04  1515.41  1543.01  1594.81
                             1653.29  1676.04  1683.90  1750.86  1768.84
                             1817.30  1862.35  1927.86  1959.49  1986.03
                             2030.25  2102.82  2120.21  2156.30  2166.36
                             2186.24  4353.91  4371.03  4412.40  4416.29
                             4435.06  4471.08  4488.13  4504.68  4587.09
                             4610.90

 Zero-point correction=                           0.157577 (Hartree/Particle)
 Thermal correction to Energy=                    0.166080
 Thermal correction to Enthalpy=                  0.167024
 Thermal correction to Gibbs Free Energy=         0.124157
 Sum of electronic and zero-point Energies=           -422.965926
 Sum of electronic and thermal Energies=              -422.957423
 Sum of electronic and thermal Enthalpies=            -422.956479
 Sum of electronic and thermal Free Energies=         -422.999346

                     E (Thermal)             CV                S
                      KCal/Mol        Cal/Mol-Kelvin    Cal/Mol-Kelvin
 Total                  104.217             32.109             90.221
 Electronic               0.000              0.000              0.000
 Translational            0.889              2.981             40.409
 Rotational               0.889              2.981             28.808
 Vibrational            102.439             26.148             21.005
 Vibration     1          0.599              1.965              4.003
 Vibration     2          0.609              1.934              3.127
 Vibration     3          0.621              1.892              2.561
 Vibration     4          0.627              1.875              2.397
 Vibration     5          0.661              1.767              1.749
 Vibration     6          0.690              1.680              1.435
 Vibration     7          0.759              1.488              0.994
 Vibration     8          0.790              1.409              0.865
 Vibration     9          0.840              1.285              0.699
 Vibration    10          0.934              1.081              0.491
 Vibration    11          0.971              1.006              0.429

 Optimization completed.
    -- Stationary point found.
 Normal termination of Gaussian 09 at Tue Jan 28 14:07:42 2020.
