 Gaussian 09, Revision D.01,
 Gaussian 09:  ES64L-G09RevD.01 24-Apr-2013

 -----------------------------
 # b3lyp 6-31G(2df,p) opt Freq
 -----------------------------

 -----
 titel
 -----
 Symbolic Z-matrix:
 Charge =  0 Multiplicity = 1

 SCF Done:  E(RB3LYP) =  -423.126078099     A.U. after   14 cycles
 Optimization completed.
    -- Stationary point found.
 Normal termination of Gaussian 09 at Mon Jan 27 14:10:51 2020.

 ----------------------------------------------------------------------
 #N Geom=AllCheck Guess=TCheck SCRF=Check GenChk RB3LYP/6-31G(2df,p) Fr
 eq
 ----------------------------------------------------------------------

 Structure from the checkpoint file:  "/scratch/puck/g09_60f45a79-63dd-4e42-aee9-752e4c05d01f/Gau-64278.chk"
 -----
 titel
 -----
 Charge =  0 Multiplicity = 1

                         Standard orientation:
 ---------------------------------------------------------------------
 Center     Atomic      Atomic             Coordinates (Angstroms)
 Number     Number       Type             X           Y           Z
 ---------------------------------------------------------------------
      1          8           0        1.705543    1.725828    0.002401
      2          6           0        1.247388    0.425981   -0.362660
      3          6           0        2.281150   -0.593305   -0.150159
      4          6           0        3.146841   -1.410443    0.019835
      5          6           0       -0.004571    0.150875    0.463381
      6          6           0       -1.250842    1.037472    0.194175
      7          6           0       -2.125922   -0.220977    0.355964
      8          8           0       -3.193676   -0.296094   -0.558831
      9          6           0       -0.861246   -1.095036    0.114707
     10          1           0        2.567524    1.861030   -0.404799
     11          1           0        0.963658    0.410478   -1.429006
     12          1           0        3.907513   -2.136332    0.170160
     13          1           0        0.272314    0.164507    1.521016
     14          1           0       -1.435201    1.889130    0.850109
     15          1           0       -1.280627    1.372396   -0.847436
     16          1           0       -2.480647   -0.325873    1.391530
     17          1           0       -3.697264   -1.095127   -0.373456
     18          1           0       -0.723575   -1.999959    0.710348
     19          1           0       -0.785417   -1.345527   -0.948476
 ---------------------------------------------------------------------

 SCF Done:  E(RB3LYP) =  -423.126078099     A.U. after    1 cycles

 The electronic state is 1-A.
 Alpha  occ. eigenvalues --  -19.14103 -19.13411 -10.25485 -10.22986 -10.19057
 Alpha  occ. eigenvalues --  -10.18408 -10.17984 -10.17753 -10.17507  -1.02423
 Alpha  occ. eigenvalues --   -1.01698  -0.84322  -0.76732  -0.70730  -0.66067
 Alpha  occ. eigenvalues --   -0.61876  -0.55676  -0.54396  -0.51380  -0.50982
 Alpha  occ. eigenvalues --   -0.48859  -0.46578  -0.42980  -0.39739  -0.38499
 Alpha  occ. eigenvalues --   -0.37089  -0.34007  -0.33250  -0.32560  -0.30271
 Alpha  occ. eigenvalues --   -0.28872  -0.27473  -0.26470  -0.25690
 Alpha virt. eigenvalues --    0.03145   0.04804   0.07590   0.09566   0.10605
 Alpha virt. eigenvalues --    0.11955   0.12390   0.14437   0.15653   0.16762
 Alpha virt. eigenvalues --    0.18177   0.19461   0.19654   0.20959   0.22148

 Mulliken charges:
               1
     1  O   -0.427529
     2  C   -0.067822
     3  C    0.304700
     4  C   -0.462563
     5  C    0.055125
     6  C   -0.257976
     7  C    0.140737
     8  O   -0.430610
     9  C   -0.288543
    10  H    0.288042
    11  H    0.090056
    12  H    0.199558
    13  H    0.086452
    14  H    0.106459
    15  H    0.112156
    16  H    0.066532
    17  H    0.281252
    18  H    0.098042
    19  H    0.105934
 Sum of Mulliken charges =   0.00000

 Dipole moment (field-independent basis, Debye):
    X=              0.5674    Y=             -1.6311    Z=              0.1970  Tot=              1.7381
 Quadrupole moment (field-independent basis, Debye-Ang):
   XX=            -47.2773   YY=            -51.4946   ZZ=            -53.3202
   XY=              3.3315   XZ=             -4.4537   YZ=             -1.8525

  Exact polarizability:  96.027  -8.995  78.438   1.043  -1.654  59.675
 Approx polarizability: 123.962 -19.254 119.462   4.857  -3.804  93.254

                      1                      2                      3
                      A                      A                      A
 Frequencies --     59.7328                79.7034               119.2080
 Red. masses --      4.3171                 3.9944                 3.2996
 Frc consts  --      0.0091                 0.0150                 0.0276
 IR Inten    --      0.1658                 0.7944                 1.1447

                      4                      5                      6
                      A                      A                      A
 Frequencies --    201.8974               239.3893               267.2311
 Red. masses --      3.1838                 3.8350                 1.1018
 Frc consts  --      0.0765                 0.1295                 0.0464
 IR Inten    --      5.9499                 1.6465               105.1014

                      7                      8                      9
                      A                      A                      A
 Frequencies --    276.9548               354.7700               360.7938
 Red. masses --      1.2020                 3.7665                 3.1903
 Frc consts  --      0.0543                 0.2793                 0.2447
 IR Inten    --     98.6220                17.9826                 3.3039

                     10                     11                     12
                      A                      A                      A
 Frequencies --    410.7315               458.8721               485.3753
 Red. masses --      4.5594                 2.4138                 3.1122
 Frc consts  --      0.4532                 0.2995                 0.4320
 IR Inten    --      4.4123                14.0552                 1.7105

                     13                     14                     15
                      A                      A                      A
 Frequencies --    584.8562               625.0377               651.9066
 Red. masses --      6.7935                 1.2956                 2.7736
 Frc consts  --      1.3691                 0.2982                 0.6945
 IR Inten    --      6.5228                35.5947                20.9482

                     16                     17                     18
                      A                      A                      A
 Frequencies --    668.4514               804.4928               811.4474
 Red. masses --      1.2500                 1.7654                 1.4531
 Frc consts  --      0.3291                 0.6732                 0.5637
 IR Inten    --     33.7475                 2.9492                 3.6829

                     19                     20                     21
                      A                      A                      A
 Frequencies --    927.3712               935.3899               960.1357
 Red. masses --      2.6335                 2.7225                 3.1423
 Frc consts  --      1.3344                 1.4035                 1.7067
 IR Inten    --      2.5422                12.5728                18.7699

                     22                     23                     24
                      A                      A                      A
 Frequencies --   1023.4012              1027.9611              1066.6596
 Red. masses --      2.4139                 1.8644                 2.4318
 Frc consts  --      1.4896                 1.1608                 1.6302
 IR Inten    --     48.8259                23.7801                20.0517

                     25                     26                     27
                      A                      A                      A
 Frequencies --   1087.9254              1108.4918              1139.7883
 Red. masses --      3.5399                 2.7483                 1.7911
 Frc consts  --      2.4686                 1.9897                 1.3709
 IR Inten    --     48.9970                17.0290                60.8664

                     28                     29                     30
                      A                      A                      A
 Frequencies --   1188.5539              1220.1359              1247.5047
 Red. masses --      1.4877                 1.3824                 1.2011
 Frc consts  --      1.2382                 1.2126                 1.1013
 IR Inten    --      6.6837                 1.6593                20.7454

                     31                     32                     33
                      A                      A                      A
 Frequencies --   1265.3147              1272.5272              1285.0867
 Red. masses --      1.4171                 1.2940                 1.2800
 Frc consts  --      1.3368                 1.2345                 1.2454
 IR Inten    --      9.7780                10.1199                32.5094

                     34                     35                     36
                      A                      A                      A
 Frequencies --   1327.3472              1340.1708              1353.1757
 Red. masses --      1.3837                 1.3973                 1.2088
 Frc consts  --      1.4363                 1.4787                 1.3042
 IR Inten    --     63.2168                35.4979                 5.7261

                     37                     38                     39
                      A                      A                      A
 Frequencies --   1410.9434              1434.9660              1469.7972
 Red. masses --      1.5482                 1.4322                 1.0923
 Frc consts  --      1.8159                 1.7375                 1.3902
 IR Inten    --     16.3071                11.4750                 2.1843

                     40                     41                     42
                      A                      A                      A
 Frequencies --   1499.4181              2229.4764              2952.0410
 Red. masses --      1.1652                 5.9065                 1.0804
 Frc consts  --      1.5435                17.2975                 5.5471
 IR Inten    --      6.8005                 1.0005                34.3556

                     43                     44                     45
                      A                      A                      A
 Frequencies --   2992.6316              3052.8048              3063.2167
 Red. masses --      1.0847                 1.0584                 1.0631
 Frc consts  --      5.7234                 5.8114                 5.8774
 IR Inten    --     50.9717                26.2155                 9.5058

                     46                     47                     48
                      A                      A                      A
 Frequencies --   3074.4797              3116.3095              3129.5204
 Red. masses --      1.0831                 1.1068                 1.1057
 Frc consts  --      6.0319                 6.3331                 6.3801
 IR Inten    --     15.1500                30.4648                31.4392

                     49                     50                     51
                      A                      A                      A
 Frequencies --   3501.4782              3815.4495              3817.1929
 Red. masses --      1.1622                 1.0661                 1.0663
 Frc consts  --      8.3954                 9.1438                 9.1545
 IR Inten    --     63.9012                20.5954                23.7798

 - Thermochemistry -
 -------------------
 Temperature   298.150 Kelvin.  Pressure   1.00000 Atm.
 Atom     1 has atomic number  8 and mass  15.99491

 Molecular mass:   126.06808 amu.
 Principal axes and moments of inertia in atomic units:
                           1         2         3
     Eigenvalues --   533.871012001.408932384.85061
           X            0.99998  -0.00055  -0.00634
           Y            0.00048   0.99994  -0.01112
           Z            0.00635   0.01111   0.99992
 This molecule is an asymmetric top.
 Rotational symmetry number  1.
 Warning -- assumption of classical behavior for rotation
           may cause significant error
 Rotational temperatures (Kelvin)      0.16224     0.04328     0.03632
 Rotational constants (GHZ):           3.38048     0.90174     0.75675
 Zero-point vibrational energy     411500.5 (Joules/Mol)
                                   98.35099 (Kcal/Mol)
 Warning -- explicit consideration of  13 degrees of freedom as
           vibrations may cause significant error
 Vibrational temperatures:     85.94   114.68   171.51   290.48   344.43
          (Kelvin)            384.49   398.48   510.43   519.10   590.95
                              660.21   698.35   841.48   899.29   937.95
                              961.75  1157.48  1167.49  1334.28  1345.82
                             1381.42  1472.44  1479.00  1534.68  1565.28
                             1594.87  1639.90  1710.06  1755.50  1794.88
                             1820.50  1830.88  1848.95  1909.75  1928.20
                             1946.92  2030.03  2064.59  2114.71  2157.33
                             3207.72  4247.32  4305.72  4392.30  4407.28
                             4423.49  4483.67  4502.68  5037.84  5489.57
                             5492.08

 Zero-point correction=                           0.156732 (Hartree/Particle)
 Thermal correction to Energy=                    0.166490
 Thermal correction to Enthalpy=                  0.167434
 Thermal correction to Gibbs Free Energy=         0.121792
 Sum of electronic and zero-point Energies=           -422.969346
 Sum of electronic and thermal Energies=              -422.959588
 Sum of electronic and thermal Enthalpies=            -422.958644
 Sum of electronic and thermal Free Energies=         -423.004286

                     E (Thermal)             CV                S
                      KCal/Mol        Cal/Mol-Kelvin    Cal/Mol-Kelvin
 Total                  104.474             36.194             96.062
 Electronic               0.000              0.000              0.000
 Translational            0.889              2.981             40.409
 Rotational               0.889              2.981             29.323
 Vibrational            102.696             30.233             26.330
 Vibration     1          0.597              1.974              4.466
 Vibration     2          0.600              1.963              3.898
 Vibration     3          0.609              1.933              3.113
 Vibration     4          0.639              1.837              2.116
 Vibration     5          0.657              1.780              1.807
 Vibration     6          0.672              1.733              1.614
 Vibration     7          0.678              1.716              1.552
 Vibration     8          0.731              1.565              1.145
 Vibration     9          0.735              1.553              1.119
 Vibration    10          0.775              1.447              0.924
 Vibration    11          0.817              1.341              0.769
 Vibration    12          0.841              1.282              0.696
 Vibration    13          0.942              1.064              0.476

 Normal termination of Gaussian 09 at Mon Jan 27 15:00:49 2020.
