 Gaussian 09, Revision D.01,
 Gaussian 09:  ES64L-G09RevD.01 24-Apr-2013

 -----------------------------
 # b3lyp 6-31G(2df,p) opt Freq
 -----------------------------

 -----
 titel
 -----
 Symbolic Z-matrix:
 Charge =  0 Multiplicity = 1

 SCF Done:  E(RB3LYP) =  -423.202314888     A.U. after   14 cycles
 Optimization completed.
    -- Stationary point found.
 Normal termination of Gaussian 09 at Tue Jan 28 01:54:49 2020.

 ----------------------------------------------------------------------
 #N Geom=AllCheck Guess=TCheck SCRF=Check GenChk RB3LYP/6-31G(2df,p) Fr
 eq
 ----------------------------------------------------------------------

 Structure from the checkpoint file:  "/scratch/puck/g09_748338d9-6454-4516-b13d-00d0ccdb6ec2/Gau-87572.chk"
 -----
 titel
 -----
 Charge =  0 Multiplicity = 1

                         Standard orientation:
 ---------------------------------------------------------------------
 Center     Atomic      Atomic             Coordinates (Angstroms)
 Number     Number       Type             X           Y           Z
 ---------------------------------------------------------------------
      1          8           0       -2.742003   -1.164871    0.518290
      2          6           0       -1.861658   -0.464884   -0.351668
      3          6           0       -0.360086   -0.799076   -0.146314
      4          6           0        0.411044    0.532890   -0.341421
      5          6           0        1.597237    0.733062    0.606720
      6          6           0        2.769332   -0.186084    0.349333
      7          8           0        2.828567   -0.994339   -0.542351
      8          6           0       -0.679176    1.571809   -0.184537
      9          6           0       -1.898926    1.038721   -0.198715
     10          1           0       -2.540512   -0.881521    1.417274
     11          1           0       -2.198168   -0.757133   -1.354662
     12          1           0       -0.237023   -1.149305    0.886688
     13          1           0       -0.000368   -1.595403   -0.798592
     14          1           0        0.808656    0.573923   -1.364900
     15          1           0        1.986261    1.761802    0.547278
     16          1           0        1.297222    0.607535    1.658070
     17          1           0        3.617942   -0.059760    1.060749
     18          1           0       -0.457289    2.632538   -0.114097
     19          1           0       -2.835833    1.582370   -0.145705
 ---------------------------------------------------------------------

 SCF Done:  E(RB3LYP) =  -423.202314888     A.U. after    1 cycles

 The electronic state is 1-A.
 Alpha  occ. eigenvalues --  -19.14553 -19.13168 -10.27713 -10.23084 -10.20248
 Alpha  occ. eigenvalues --  -10.19882 -10.18851 -10.18049 -10.17914  -1.05192
 Alpha  occ. eigenvalues --   -1.01382  -0.84693  -0.77097  -0.70868  -0.67962
 Alpha  occ. eigenvalues --   -0.59576  -0.56229  -0.54435  -0.51226  -0.47902
 Alpha  occ. eigenvalues --   -0.47314  -0.45520  -0.44150  -0.42659  -0.39467
 Alpha  occ. eigenvalues --   -0.38273  -0.37162  -0.36529  -0.35101  -0.34176
 Alpha  occ. eigenvalues --   -0.31645  -0.26913  -0.26311  -0.24591
 Alpha virt. eigenvalues --   -0.02366   0.00916   0.08566   0.10121   0.10866
 Alpha virt. eigenvalues --    0.12215   0.13394   0.13762   0.15395   0.16248
 Alpha virt. eigenvalues --    0.17434   0.18788   0.20128   0.21046   0.22516

 Mulliken charges:
               1
     1  O   -0.432985
     2  C    0.108905
     3  C   -0.254222
     4  C   -0.011561
     5  C   -0.312523
     6  C    0.156610
     7  O   -0.234365
     8  C   -0.085037
     9  C   -0.135665
    10  H    0.271063
    11  H    0.096861
    12  H    0.087743
    13  H    0.123533
    14  H    0.100786
    15  H    0.123527
    16  H    0.121856
    17  H    0.080491
    18  H    0.094363
    19  H    0.100620
 Sum of Mulliken charges =   0.00000

 Dipole moment (field-independent basis, Debye):
    X=              0.6328    Y=              2.6628    Z=              1.8544  Tot=              3.3060
 Quadrupole moment (field-independent basis, Debye-Ang):
   XX=            -59.5584   YY=            -55.2482   ZZ=            -50.3378
   XY=              1.4599   XZ=              3.4145   YZ=             -1.0015

  Exact polarizability:  95.335   2.111  74.611   2.170   3.660  62.908
 Approx polarizability: 127.987   8.435 113.821  -0.713   9.817 103.352

                      1                      2                      3
                      A                      A                      A
 Frequencies --     58.9402                64.4279               138.0094
 Red. masses --      5.6919                 3.0307                 4.3981
 Frc consts  --      0.0117                 0.0074                 0.0494
 IR Inten    --      3.0584                 0.3694                 2.5121

                      4                      5                      6
                      A                      A                      A
 Frequencies --    162.8552               243.3163               293.5038
 Red. masses --      2.2229                 3.0044                 2.8569
 Frc consts  --      0.0347                 0.1048                 0.1450
 IR Inten    --      4.9735                 8.8744                 1.1804

                      7                      8                      9
                      A                      A                      A
 Frequencies --    345.2694               397.6338               415.6353
 Red. masses --      1.1864                 2.2554                 3.3242
 Frc consts  --      0.0833                 0.2101                 0.3383
 IR Inten    --     74.7584                 0.6953                14.3141

                     10                     11                     12
                      A                      A                      A
 Frequencies --    548.8016               568.8943               679.6231
 Red. masses --      2.8640                 3.0617                 2.7002
 Frc consts  --      0.5082                 0.5838                 0.7348
 IR Inten    --     10.4658                 1.2899                 3.7151

                     13                     14                     15
                      A                      A                      A
 Frequencies --    718.7563               779.7230               783.7069
 Red. masses --      1.7600                 2.1631                 2.1382
 Frc consts  --      0.5357                 0.7748                 0.7737
 IR Inten    --      1.9265                12.7039                20.4772

                     16                     17                     18
                      A                      A                      A
 Frequencies --    862.1419               879.2939               923.4242
 Red. masses --      2.7265                 2.7605                 2.2065
 Frc consts  --      1.1940                 1.2575                 1.1086
 IR Inten    --      6.2072                 4.3981                29.6440

                     19                     20                     21
                      A                      A                      A
 Frequencies --    946.9412               981.1598              1019.1927
 Red. masses --      1.5838                 1.2887                 2.2173
 Frc consts  --      0.8368                 0.7310                 1.3571
 IR Inten    --      6.0491                 4.3525                 9.1232

                     22                     23                     24
                      A                      A                      A
 Frequencies --   1035.7306              1057.2930              1104.0282
 Red. masses --      1.8728                 1.9305                 2.5858
 Frc consts  --      1.1837                 1.2715                 1.8570
 IR Inten    --     11.4082                21.7015                79.7776

                     25                     26                     27
                      A                      A                      A
 Frequencies --   1118.7429              1150.7022              1168.6616
 Red. masses --      2.0870                 1.4285                 1.4957
 Frc consts  --      1.5390                 1.1144                 1.2036
 IR Inten    --     12.3310                12.0060                 4.6157

                     28                     29                     30
                      A                      A                      A
 Frequencies --   1232.5053              1251.8165              1268.8868
 Red. masses --      1.3837                 1.2736                 1.4328
 Frc consts  --      1.2384                 1.1759                 1.3592
 IR Inten    --      1.2687                 6.3469                 2.6357

                     31                     32                     33
                      A                      A                      A
 Frequencies --   1290.2109              1322.7181              1334.2336
 Red. masses --      1.3694                 1.3605                 1.4803
 Frc consts  --      1.3431                 1.4024                 1.5526
 IR Inten    --      0.6780                 1.8109                 2.0825

                     34                     35                     36
                      A                      A                      A
 Frequencies --   1364.2311              1387.0322              1420.4780
 Red. masses --      1.5567                 1.7119                 1.1540
 Frc consts  --      1.7069                 1.9404                 1.3719
 IR Inten    --     10.1587                 9.2183                12.7108

                     37                     38                     39
                      A                      A                      A
 Frequencies --   1429.5552              1442.0369              1487.7730
 Red. masses --      1.2456                 1.1247                 1.0881
 Frc consts  --      1.4998                 1.3780                 1.4190
 IR Inten    --     79.5920                16.7716                 2.8782

                     40                     41                     42
                      A                      A                      A
 Frequencies --   1682.9940              1828.3875              2865.9324
 Red. masses --      6.7832                10.0416                 1.0827
 Frc consts  --     11.3200                19.7784                 5.2394
 IR Inten    --      2.3501               127.0174               156.6380

                     43                     44                     45
                      A                      A                      A
 Frequencies --   2998.5050              3008.6146              3023.9980
 Red. masses --      1.0619                 1.0828                 1.0818
 Frc consts  --      5.6252                 5.7746                 5.8287
 IR Inten    --     25.9277                 4.9125                 7.6504

                     46                     47                     48
                      A                      A                      A
 Frequencies --   3029.5557              3034.4542              3127.1230
 Red. masses --      1.0900                 1.0782                 1.0938
 Frc consts  --      5.8942                 5.8493                 6.3018
 IR Inten    --     12.2841                55.8684                15.1252

                     49                     50                     51
                      A                      A                      A
 Frequencies --   3170.8363              3203.4002              3794.4967
 Red. masses --      1.0861                 1.1026                 1.0659
 Frc consts  --      6.4338                 6.6663                 9.0420
 IR Inten    --      9.7889                16.0409                 9.3562

 - Thermochemistry -
 -------------------
 Temperature   298.150 Kelvin.  Pressure   1.00000 Atm.
 Atom     1 has atomic number  8 and mass  15.99491

 Molecular mass:   126.06808 amu.
 Principal axes and moments of inertia in atomic units:
                           1         2         3
     Eigenvalues --   533.531711908.546442226.11581
           X            0.99990   0.00765   0.01173
           Y           -0.00774   0.99994   0.00779
           Z           -0.01167  -0.00788   0.99990
 This molecule is an asymmetric top.
 Rotational symmetry number  1.
 Warning -- assumption of classical behavior for rotation
           may cause significant error
 Rotational temperatures (Kelvin)      0.16234     0.04538     0.03891
 Rotational constants (GHZ):           3.38263     0.94561     0.81071
 Zero-point vibrational energy     415380.4 (Joules/Mol)
                                   99.27830 (Kcal/Mol)
 Warning -- explicit consideration of  11 degrees of freedom as
           vibrations may cause significant error
 Vibrational temperatures:     84.80    92.70   198.56   234.31   350.08
          (Kelvin)            422.29   496.77   572.11   598.01   789.60
                              818.51   977.82  1034.13  1121.85  1127.58
                             1240.43  1265.11  1328.60  1362.44  1411.67
                             1466.39  1490.18  1521.21  1588.45  1609.62
                             1655.60  1681.44  1773.30  1801.08  1825.64
                             1856.32  1903.09  1919.66  1962.82  1995.63
                             2043.75  2056.81  2074.77  2140.57  2421.45
                             2630.64  4123.43  4314.17  4328.72  4350.85
                             4358.85  4365.90  4499.23  4562.12  4608.97
                             5459.43

 Zero-point correction=                           0.158210 (Hartree/Particle)
 Thermal correction to Energy=                    0.167164
 Thermal correction to Enthalpy=                  0.168108
 Thermal correction to Gibbs Free Energy=         0.123642
 Sum of electronic and zero-point Energies=           -423.044105
 Sum of electronic and thermal Energies=              -423.035151
 Sum of electronic and thermal Enthalpies=            -423.034207
 Sum of electronic and thermal Free Energies=         -423.078672

                     E (Thermal)             CV                S
                      KCal/Mol        Cal/Mol-Kelvin    Cal/Mol-Kelvin
 Total                  104.897             32.944             93.586
 Electronic               0.000              0.000              0.000
 Translational            0.889              2.981             40.409
 Rotational               0.889              2.981             29.207
 Vibrational            103.120             26.983             23.971
 Vibration     1          0.596              1.974              4.492
 Vibration     2          0.597              1.971              4.317
 Vibration     3          0.614              1.915              2.831
 Vibration     4          0.623              1.888              2.516
 Vibration     5          0.659              1.774              1.779
 Vibration     6          0.688              1.686              1.454
 Vibration     7          0.724              1.585              1.188
 Vibration     8          0.764              1.475              0.971
 Vibration     9          0.779              1.436              0.907
 Vibration    10          0.904              1.142              0.547
 Vibration    11          0.925              1.099              0.506

 Optimization completed.
    -- Stationary point found.
 Normal termination of Gaussian 09 at Tue Jan 28 02:33:05 2020.
