 Gaussian 09, Revision D.01,
 Gaussian 09:  ES64L-G09RevD.01 24-Apr-2013

 -----------------------------
 # b3lyp 6-31G(2df,p) opt Freq
 -----------------------------

 -----
 titel
 -----
 Symbolic Z-matrix:
 Charge =  0 Multiplicity = 1

 SCF Done:  E(RB3LYP) =  -423.136418260     A.U. after   14 cycles
 Optimization completed.
    -- Stationary point found.
 Normal termination of Gaussian 09 at Mon Jan 27 22:05:15 2020.

 ----------------------------------------------------------------------
 #N Geom=AllCheck Guess=TCheck SCRF=Check GenChk RB3LYP/6-31G(2df,p) Fr
 eq
 ----------------------------------------------------------------------

 Structure from the checkpoint file:  "/scratch/puck/g09_5e6eff27-6124-40f2-bd86-8173c12b68e2/Gau-62993.chk"
 -----
 titel
 -----
 Charge =  0 Multiplicity = 1

                         Standard orientation:
 ---------------------------------------------------------------------
 Center     Atomic      Atomic             Coordinates (Angstroms)
 Number     Number       Type             X           Y           Z
 ---------------------------------------------------------------------
      1          8           0        2.249039   -0.990505    0.091801
      2          6           0        0.857045   -1.017102    0.010471
      3          6           0        0.070831   -0.003131    0.792169
      4          6           0        0.762807    1.377914    0.793214
      5          6           0        0.694364    1.412736   -0.770559
      6          6           0        0.061107    0.012120   -0.739715
      7          8           0       -1.191827   -0.355177   -1.221113
      8          6           0       -2.138143   -0.148083   -0.150447
      9          6           0       -1.357550   -0.330506    1.190725
     10          1           0        2.599788   -1.255766   -0.765347
     11          1           0        0.405222   -2.009332   -0.016790
     12          1           0        0.151764    2.151947    1.262795
     13          1           0        1.761269    1.394779    1.233681
     14          1           0       -0.008848    2.161022   -1.141343
     15          1           0        1.637277    1.511364   -1.315557
     16          1           0       -2.556749    0.866848   -0.216938
     17          1           0       -2.953197   -0.864336   -0.288110
     18          1           0       -1.739933    0.340610    1.965045
     19          1           0       -1.457063   -1.355368    1.561904
 ---------------------------------------------------------------------

 SCF Done:  E(RB3LYP) =  -423.136418260     A.U. after    1 cycles

 The electronic state is 1-A.
 Alpha  occ. eigenvalues --  -19.14631 -19.14336 -10.23927 -10.22987 -10.22139
 Alpha  occ. eigenvalues --  -10.19201 -10.18650 -10.18553 -10.18412  -1.04599
 Alpha  occ. eigenvalues --   -1.02714  -0.87629  -0.76053  -0.73141  -0.63638
 Alpha  occ. eigenvalues --   -0.63408  -0.57700  -0.52504  -0.51572  -0.49634
 Alpha  occ. eigenvalues --   -0.45766  -0.44626  -0.43507  -0.41288  -0.40413
 Alpha  occ. eigenvalues --   -0.38891  -0.36212  -0.35604  -0.33174  -0.32816
 Alpha  occ. eigenvalues --   -0.30498  -0.29041  -0.24822  -0.21646
 Alpha virt. eigenvalues --    0.06642   0.08401   0.08923   0.11552   0.12245
 Alpha virt. eigenvalues --    0.13746   0.14286   0.15640   0.16606   0.17095
 Alpha virt. eigenvalues --    0.18301   0.19164   0.20199   0.21109   0.22639

 Mulliken charges:
               1
     1  O   -0.423045
     2  C    0.013261
     3  C    0.168566
     4  C   -0.276155
     5  C   -0.286353
     6  C    0.261278
     7  O   -0.285435
     8  C   -0.081342
     9  C   -0.326720
    10  H    0.290349
    11  H    0.092079
    12  H    0.099695
    13  H    0.117753
    14  H    0.109919
    15  H    0.096262
    16  H    0.097840
    17  H    0.110726
    18  H    0.109581
    19  H    0.111739
 Sum of Mulliken charges =   0.00000

 Dipole moment (field-independent basis, Debye):
    X=             -0.5329    Y=              0.2553    Z=              0.1633  Tot=              0.6131
 Quadrupole moment (field-independent basis, Debye-Ang):
   XX=            -51.3225   YY=            -50.6961   ZZ=            -55.2483
   XY=             -1.0151   XZ=             -6.3635   YZ=              1.1272

  Exact polarizability:  83.212   1.122  72.328  -3.809  -0.069  66.173
 Approx polarizability: 114.142  -0.652 104.388  -3.132   1.504 107.083

                      1                      2                      3
                      A                      A                      A
 Frequencies --    139.4245               195.5197               223.3101
 Red. masses --      2.1557                 1.9939                 3.0486
 Frc consts  --      0.0247                 0.0449                 0.0896
 IR Inten    --      0.3158                 1.3029                 0.8082

                      4                      5                      6
                      A                      A                      A
 Frequencies --    254.6841               308.8968               345.4926
 Red. masses --      2.8037                 1.3427                 2.2625
 Frc consts  --      0.1072                 0.0755                 0.1591
 IR Inten    --     28.1626                70.3420                 6.9113

                      7                      8                      9
                      A                      A                      A
 Frequencies --    385.4454               489.1946               557.0222
 Red. masses --      3.4645                 5.9120                 3.7951
 Frc consts  --      0.3033                 0.8336                 0.6938
 IR Inten    --     21.0892                 3.1108                16.9688

                     10                     11                     12
                      A                      A                      A
 Frequencies --    645.4271               691.0610               755.8819
 Red. masses --      2.5031                 4.9618                 1.9241
 Frc consts  --      0.6144                 1.3961                 0.6477
 IR Inten    --      6.6343                 3.2370                 0.9298

                     13                     14                     15
                      A                      A                      A
 Frequencies --    765.3406               772.8886               825.1467
 Red. masses --      1.6980                 2.8404                 4.1741
 Frc consts  --      0.5860                 0.9997                 1.6744
 IR Inten    --     12.0620                 3.3607                 7.2394

                     16                     17                     18
                      A                      A                      A
 Frequencies --    855.1728               916.0386               944.6073
 Red. masses --      2.6748                 2.5523                 2.9689
 Frc consts  --      1.1525                 1.2619                 1.5608
 IR Inten    --      5.1696                 2.4345                 1.8147

                     19                     20                     21
                      A                      A                      A
 Frequencies --    963.6191               972.5642              1015.7365
 Red. masses --      2.6120                 3.2450                 1.7155
 Frc consts  --      1.4290                 1.8084                 1.0428
 IR Inten    --      5.0267                35.0549                10.1752

                     22                     23                     24
                      A                      A                      A
 Frequencies --   1029.7610              1086.6068              1134.1009
 Red. masses --      1.4966                 1.8612                 3.1610
 Frc consts  --      0.9350                 1.2948                 2.3954
 IR Inten    --      5.2780                30.0711               123.2912

                     25                     26                     27
                      A                      A                      A
 Frequencies --   1167.9381              1189.9320              1220.9835
 Red. masses --      2.0720                 1.6389                 1.6964
 Frc consts  --      1.6653                 1.3673                 1.4901
 IR Inten    --      1.1363                 5.3590                18.8680

                     28                     29                     30
                      A                      A                      A
 Frequencies --   1228.3574              1238.1228              1245.9110
 Red. masses --      1.2146                 1.3736                 1.3744
 Frc consts  --      1.0797                 1.2406                 1.2570
 IR Inten    --      2.8944                25.0654                 6.6928

                     31                     32                     33
                      A                      A                      A
 Frequencies --   1258.1898              1289.5346              1306.0588
 Red. masses --      1.6612                 1.6135                 1.4842
 Frc consts  --      1.5494                 1.5809                 1.4916
 IR Inten    --     34.6495                 3.8507                 1.6846

                     34                     35                     36
                      A                      A                      A
 Frequencies --   1309.7138              1321.9710              1376.9983
 Red. masses --      1.7821                 1.7866                 1.4064
 Frc consts  --      1.8011                 1.8396                 1.5711
 IR Inten    --     22.6117                 1.2434                 6.3391

                     37                     38                     39
                      A                      A                      A
 Frequencies --   1453.5469              1467.3619              1482.7087
 Red. masses --      1.8349                 1.0977                 1.0954
 Frc consts  --      2.2841                 1.3925                 1.4188
 IR Inten    --      4.7155                 1.2126                 3.0834

                     40                     41                     42
                      A                      A                      A
 Frequencies --   1496.6570              1517.6694              2996.8310
 Red. masses --      1.2977                 1.0992                 1.0695
 Frc consts  --      1.7127                 1.4917                 5.6593
 IR Inten    --      9.2253                 0.3227                59.8552

                     43                     44                     45
                      A                      A                      A
 Frequencies --   3050.0019              3057.5253              3069.1894
 Red. masses --      1.0617                 1.0598                 1.0598
 Frc consts  --      5.8192                 5.8375                 5.8817
 IR Inten    --     33.0752                44.5034                41.7969

                     46                     47                     48
                      A                      A                      A
 Frequencies --   3087.7176              3099.7651              3103.3648
 Red. masses --      1.0939                 1.0931                 1.0989
 Frc consts  --      6.1446                 6.1884                 6.2357
 IR Inten    --     31.1363                 2.5894                52.5329

                     49                     50                     51
                      A                      A                      A
 Frequencies --   3112.2616              3130.4189              3804.6204
 Red. masses --      1.1061                 1.1072                 1.0660
 Frc consts  --      6.3123                 6.3924                 9.0915
 IR Inten    --      0.8677                33.2161                28.4438

 - Thermochemistry -
 -------------------
 Temperature   298.150 Kelvin.  Pressure   1.00000 Atm.
 Atom     1 has atomic number  8 and mass  15.99491

 Molecular mass:   126.06808 amu.
 Principal axes and moments of inertia in atomic units:
                           1         2         3
     Eigenvalues --   657.491421139.054171203.59102
           X            0.99901   0.01959  -0.04005
           Y           -0.02062   0.99946  -0.02555
           Z            0.03952   0.02635   0.99887
 This molecule is an asymmetric top.
 Rotational symmetry number  1.
 Warning -- assumption of classical behavior for rotation
           may cause significant error
 Rotational temperatures (Kelvin)      0.13173     0.07604     0.07196
 Rotational constants (GHZ):           2.74489     1.58442     1.49946
 Zero-point vibrational energy     420824.1 (Joules/Mol)
                                  100.57937 (Kcal/Mol)
 Warning -- explicit consideration of   9 degrees of freedom as
           vibrations may cause significant error
 Vibrational temperatures:    200.60   281.31   321.29   366.43   444.43
          (Kelvin)            497.09   554.57   703.84   801.43   928.62
                              994.28  1087.54  1101.15  1112.01  1187.20
                             1230.40  1317.97  1359.08  1386.43  1399.30
                             1461.42  1481.59  1563.38  1631.72  1680.40
                             1712.04  1756.72  1767.33  1781.38  1792.59
                             1810.25  1855.35  1879.12  1884.38  1902.02
                             1981.19  2091.33  2111.20  2133.28  2153.35
                             2183.59  4311.77  4388.27  4399.09  4415.87
                             4442.53  4459.87  4465.04  4477.84  4503.97
                             5473.99

 Zero-point correction=                           0.160283 (Hartree/Particle)
 Thermal correction to Energy=                    0.168005
 Thermal correction to Enthalpy=                  0.168950
 Thermal correction to Gibbs Free Energy=         0.128527
 Sum of electronic and zero-point Energies=           -422.976135
 Sum of electronic and thermal Energies=              -422.968413
 Sum of electronic and thermal Enthalpies=            -422.967469
 Sum of electronic and thermal Free Energies=         -423.007891

                     E (Thermal)             CV                S
                      KCal/Mol        Cal/Mol-Kelvin    Cal/Mol-Kelvin
 Total                  105.425             30.948             85.075
 Electronic               0.000              0.000              0.000
 Translational            0.889              2.981             40.409
 Rotational               0.889              2.981             28.290
 Vibrational            103.647             24.986             16.376
 Vibration     1          0.615              1.914              2.812
 Vibration     2          0.636              1.846              2.175
 Vibration     3          0.649              1.806              1.932
 Vibration     4          0.665              1.755              1.698
 Vibration     5          0.698              1.657              1.368
 Vibration     6          0.724              1.584              1.187
 Vibration     7          0.754              1.501              1.018
 Vibration     8          0.845              1.274              0.686
 Vibration     9          0.913              1.124              0.530

 Optimization completed.
    -- Stationary point found.
 Normal termination of Gaussian 09 at Mon Jan 27 22:53:13 2020.
