 Gaussian 09, Revision D.01,
 Gaussian 09:  ES64L-G09RevD.01 24-Apr-2013

 -----------------------------
 # b3lyp 6-31G(2df,p) opt Freq
 -----------------------------

 -----
 titel
 -----
 Symbolic Z-matrix:
 Charge =  0 Multiplicity = 1

 SCF Done:  E(RB3LYP) =  -423.176718299     A.U. after   14 cycles
 Optimization completed.
    -- Stationary point found.
 Normal termination of Gaussian 09 at Tue Jan 28 03:02:54 2020.

 ----------------------------------------------------------------------
 #N Geom=AllCheck Guess=TCheck SCRF=Check GenChk RB3LYP/6-31G(2df,p) Fr
 eq
 ----------------------------------------------------------------------

 Structure from the checkpoint file:  "/scratch/puck/g09_be23b5a3-dae3-4427-a599-a9e120e43956/Gau-6733.chk"
 -----
 titel
 -----
 Charge =  0 Multiplicity = 1

                         Standard orientation:
 ---------------------------------------------------------------------
 Center     Atomic      Atomic             Coordinates (Angstroms)
 Number     Number       Type             X           Y           Z
 ---------------------------------------------------------------------
      1          6           0        2.629204   -1.005177   -0.093288
      2          6           0        1.378245   -0.227361   -0.449465
      3          8           0        1.453313    1.152422   -0.008833
      4          6           0        0.198064    1.029625    0.714753
      5          6           0       -0.977975    1.632065   -0.002945
      6          6           0       -1.730478    0.704743   -0.594450
      7          6           0       -1.227631   -0.701948   -0.363684
      8          8           0       -2.204392   -1.409159    0.398453
      9          6           0        0.100125   -0.479131    0.388166
     10          1           0        2.537263   -2.049121   -0.414074
     11          1           0        3.502235   -0.571019   -0.590463
     12          1           0        2.804921   -0.984612    0.986682
     13          1           0        1.196911   -0.276591   -1.533808
     14          1           0        0.314536    1.368234    1.749656
     15          1           0       -1.153238    2.701548   -0.038231
     16          1           0       -2.628299    0.890143   -1.173521
     17          1           0       -1.057847   -1.222288   -1.320910
     18          1           0       -1.953742   -2.338565    0.409266
     19          1           0        0.228578   -1.180716    1.213929
 ---------------------------------------------------------------------

 SCF Done:  E(RB3LYP) =  -423.176718299     A.U. after    1 cycles

 The electronic state is 1-A.
 Alpha  occ. eigenvalues --  -19.13698 -19.12529 -10.23814 -10.23263 -10.23115
 Alpha  occ. eigenvalues --  -10.18683 -10.18574 -10.18515 -10.17733  -1.03176
 Alpha  occ. eigenvalues --   -1.01752  -0.82620  -0.76054  -0.70690  -0.68446
 Alpha  occ. eigenvalues --   -0.61682  -0.55338  -0.53193  -0.51347  -0.50992
 Alpha  occ. eigenvalues --   -0.47255  -0.45723  -0.42317  -0.40228  -0.38683
 Alpha  occ. eigenvalues --   -0.38183  -0.38075  -0.36861  -0.33187  -0.31235
 Alpha  occ. eigenvalues --   -0.30677  -0.26789  -0.26243  -0.24353
 Alpha virt. eigenvalues --    0.00293   0.07888   0.10085   0.10979   0.11630
 Alpha virt. eigenvalues --    0.11912   0.14813   0.15407   0.16122   0.16627
 Alpha virt. eigenvalues --    0.17234   0.17737   0.19278   0.21147   0.23038

 Mulliken charges:
               1
     1  C   -0.405083
     2  C    0.151117
     3  O   -0.319029
     4  C    0.096627
     5  C   -0.083763
     6  C   -0.066008
     7  C    0.059770
     8  O   -0.438300
     9  C   -0.137292
    10  H    0.111193
    11  H    0.128005
    12  H    0.120182
    13  H    0.070284
    14  H    0.080964
    15  H    0.104026
    16  H    0.104552
    17  H    0.068622
    18  H    0.280756
    19  H    0.073379
 Sum of Mulliken charges =   0.00000

 Dipole moment (field-independent basis, Debye):
    X=              0.0402    Y=             -1.8046    Z=             -0.3629  Tot=              1.8412
 Quadrupole moment (field-independent basis, Debye-Ang):
   XX=            -58.2472   YY=            -48.5272   ZZ=            -52.2482
   XY=             -3.5696   XZ=              2.1537   YZ=              1.0013

  Exact polarizability:  84.724  -1.382  80.465   4.461   3.500  63.421
 Approx polarizability: 114.755   8.003 121.226   7.216   9.178 100.021

                      1                      2                      3
                      A                      A                      A
 Frequencies --     76.1503               164.5992               210.1161
 Red. masses --      3.7051                 3.3668                 2.2872
 Frc consts  --      0.0127                 0.0537                 0.0595
 IR Inten    --      0.4471                 0.5629                 1.7923

                      4                      5                      6
                      A                      A                      A
 Frequencies --    233.2696               261.2893               285.9450
 Red. masses --      1.3507                 1.1570                 2.4549
 Frc consts  --      0.0433                 0.0465                 0.1183
 IR Inten    --      0.6378                95.9291                 8.2067

                      7                      8                      9
                      A                      A                      A
 Frequencies --    359.4556               375.3590               495.8391
 Red. masses --      2.9307                 4.3482                 3.1410
 Frc consts  --      0.2231                 0.3610                 0.4550
 IR Inten    --      9.0229                 3.9937                11.2885

                     10                     11                     12
                      A                      A                      A
 Frequencies --    565.3968               684.8745               742.8999
 Red. masses --      4.1548                 3.6178                 3.5609
 Frc consts  --      0.7825                 0.9998                 1.1579
 IR Inten    --      4.4290                 5.4679                 2.6419

                     13                     14                     15
                      A                      A                      A
 Frequencies --    800.8810               833.6635               867.8434
 Red. masses --      2.4213                 2.3527                 2.0858
 Frc consts  --      0.9150                 0.9634                 0.9256
 IR Inten    --      6.6547                 3.9257                11.4335

                     16                     17                     18
                      A                      A                      A
 Frequencies --    907.6685               908.7812               946.9726
 Red. masses --      2.8042                 1.8673                 2.4785
 Frc consts  --      1.3612                 0.9086                 1.3095
 IR Inten    --     11.6571                 1.8302                 6.9468

                     19                     20                     21
                      A                      A                      A
 Frequencies --    972.0164               991.4830              1017.9216
 Red. masses --      1.9100                 1.9571                 2.5220
 Frc consts  --      1.0632                 1.1336                 1.5397
 IR Inten    --     27.0811                41.7039                38.6927

                     22                     23                     24
                      A                      A                      A
 Frequencies --   1030.6208              1059.3233              1091.2553
 Red. masses --      2.6452                 2.4892                 1.9817
 Frc consts  --      1.6554                 1.6457                 1.3904
 IR Inten    --     36.9412                68.3159                18.5178

                     25                     26                     27
                      A                      A                      A
 Frequencies --   1114.9560              1126.9786              1139.8384
 Red. masses --      2.0227                 1.3935                 1.8913
 Frc consts  --      1.4815                 1.0428                 1.4478
 IR Inten    --      6.6702                 1.8125                25.9271

                     28                     29                     30
                      A                      A                      A
 Frequencies --   1204.6854              1228.8456              1246.7354
 Red. masses --      1.6053                 1.1925                 1.5121
 Frc consts  --      1.3726                 1.0610                 1.3848
 IR Inten    --     11.9938                48.0866                 6.5601

                     31                     32                     33
                      A                      A                      A
 Frequencies --   1279.3764              1307.9202              1327.1901
 Red. masses --      1.3505                 1.3655                 1.3585
 Frc consts  --      1.3023                 1.3762                 1.4099
 IR Inten    --      0.7844                 5.9076                 1.9144

                     34                     35                     36
                      A                      A                      A
 Frequencies --   1345.3945              1368.7872              1387.3972
 Red. masses --      1.5330                 1.5910                 1.3913
 Frc consts  --      1.6349                 1.7563                 1.5779
 IR Inten    --     23.6598                18.1130                15.4296

                     37                     38                     39
                      A                      A                      A
 Frequencies --   1406.0819              1430.3260              1482.1425
 Red. masses --      1.3612                 1.5777                 1.0551
 Frc consts  --      1.5855                 1.9017                 1.3656
 IR Inten    --     15.0332                 9.9326                 3.0132

                     40                     41                     42
                      A                      A                      A
 Frequencies --   1494.3565              1677.9704              2959.0874
 Red. masses --      1.0492                 6.5321                 1.0823
 Frc consts  --      1.3804                10.8361                 5.5838
 IR Inten    --      2.9141                 0.6353                38.3275

                     43                     44                     45
                      A                      A                      A
 Frequencies --   2986.4124              3031.2976              3050.0810
 Red. masses --      1.0839                 1.0353                 1.0864
 Frc consts  --      5.6958                 5.6049                 5.9546
 IR Inten    --     60.0648                18.4793                44.1573

                     46                     47                     48
                      A                      A                      A
 Frequencies --   3100.7392              3102.9099              3112.8922
 Red. masses --      1.0884                 1.1003                 1.1020
 Frc consts  --      6.1655                 6.2418                 6.2916
 IR Inten    --     16.3222                20.9447                28.7215

                     49                     50                     51
                      A                      A                      A
 Frequencies --   3187.6200              3212.0244              3812.4695
 Red. masses --      1.0849                 1.1044                 1.0662
 Frc consts  --      6.4946                 6.7130                 9.1309
 IR Inten    --      5.9015                16.9837                15.2835

 - Thermochemistry -
 -------------------
 Temperature   298.150 Kelvin.  Pressure   1.00000 Atm.
 Atom     1 has atomic number  6 and mass  12.00000

 Molecular mass:   126.06808 amu.
 Principal axes and moments of inertia in atomic units:
                           1         2         3
     Eigenvalues --   639.482061271.324201692.48886
           X            0.99845  -0.05520   0.00760
           Y            0.05514   0.99844   0.00881
           Z           -0.00808  -0.00837   0.99993
 This molecule is an asymmetric top.
 Rotational symmetry number  1.
 Warning -- assumption of classical behavior for rotation
           may cause significant error
 Rotational temperatures (Kelvin)      0.13544     0.06813     0.05118
 Rotational constants (GHZ):           2.82219     1.41958     1.06632
 Zero-point vibrational energy     418741.7 (Joules/Mol)
                                  100.08166 (Kcal/Mol)
 Warning -- explicit consideration of  10 degrees of freedom as
           vibrations may cause significant error
 Vibrational temperatures:    109.56   236.82   302.31   335.62   375.94
          (Kelvin)            411.41   517.18   540.06   713.40   813.48
                              985.38  1068.87  1152.29  1199.45  1248.63
                             1305.93  1307.53  1362.48  1398.51  1426.52
                             1464.56  1482.83  1524.13  1570.07  1604.17
                             1621.47  1639.97  1733.27  1768.03  1793.77
                             1840.73  1881.80  1909.53  1935.72  1969.38
                             1996.15  2023.04  2057.92  2132.47  2150.04
                             2414.22  4257.46  4296.78  4361.36  4388.38
                             4461.27  4464.39  4478.75  4586.27  4621.38
                             5485.29

 Zero-point correction=                           0.159490 (Hartree/Particle)
 Thermal correction to Energy=                    0.167752
 Thermal correction to Enthalpy=                  0.168696
 Thermal correction to Gibbs Free Energy=         0.126634
 Sum of electronic and zero-point Energies=           -423.017228
 Sum of electronic and thermal Energies=              -423.008967
 Sum of electronic and thermal Enthalpies=            -423.008023
 Sum of electronic and thermal Free Energies=         -423.050084

                     E (Thermal)             CV                S
                      KCal/Mol        Cal/Mol-Kelvin    Cal/Mol-Kelvin
 Total                  105.266             31.761             88.526
 Electronic               0.000              0.000              0.000
 Translational            0.889              2.981             40.409
 Rotational               0.889              2.981             28.711
 Vibrational            103.488             25.799             19.406
 Vibration     1          0.599              1.965              3.988
 Vibration     2          0.623              1.886              2.496
 Vibration     3          0.642              1.825              2.043
 Vibration     4          0.654              1.790              1.854
 Vibration     5          0.669              1.744              1.653
 Vibration     6          0.684              1.700              1.498
 Vibration     7          0.734              1.556              1.124
 Vibration     8          0.746              1.523              1.058
 Vibration     9          0.851              1.259              0.669
 Vibration    10          0.921              1.106              0.513

 Optimization completed.
    -- Stationary point found.
 Normal termination of Gaussian 09 at Tue Jan 28 03:45:11 2020.
