 Gaussian 09, Revision D.01,
 Gaussian 09:  ES64L-G09RevD.01 24-Apr-2013

 -----------------------------
 # b3lyp 6-31G(2df,p) opt Freq
 -----------------------------

 -----
 titel
 -----
 Symbolic Z-matrix:
 Charge =  0 Multiplicity = 1

 SCF Done:  E(RB3LYP) =  -423.129753235     A.U. after   13 cycles
 Optimization completed.
    -- Stationary point found.
 Normal termination of Gaussian 09 at Mon Jan 27 12:15:06 2020.

 ----------------------------------------------------------------------
 #N Geom=AllCheck Guess=TCheck SCRF=Check GenChk RB3LYP/6-31G(2df,p) Fr
 eq
 ----------------------------------------------------------------------

 Structure from the checkpoint file:  "/scratch/puck/g09_12681e23-1594-481e-81ee-eec7323986e5/Gau-45185.chk"
 -----
 titel
 -----
 Charge =  0 Multiplicity = 1

                         Standard orientation:
 ---------------------------------------------------------------------
 Center     Atomic      Atomic             Coordinates (Angstroms)
 Number     Number       Type             X           Y           Z
 ---------------------------------------------------------------------
      1          6           0       -2.487733   -0.520926   -0.160858
      2          6           0       -1.899844    0.612576    0.699586
      3          6           0       -0.560142    0.232054    0.034355
      4          6           0        0.343050    1.293483   -0.656394
      5          6           0        1.533783    0.839917    0.220318
      6          8           0        2.343601   -0.162149   -0.422201
      7          6           0        1.569146   -1.233336    0.173711
      8          6           0        0.640345   -0.241316    0.894586
      9          8           0       -1.210697   -0.751294   -0.793463
     10          1           0       -2.834451   -1.402337    0.392093
     11          1           0       -3.255713   -0.232431   -0.887197
     12          1           0       -2.259136    1.612508    0.448149
     13          1           0       -1.948363    0.473473    1.781407
     14          1           0        0.501840    1.126553   -1.723953
     15          1           0        0.009831    2.322614   -0.490490
     16          1           0        2.128220    1.595438    0.739134
     17          1           0        1.087486   -1.873695   -0.572854
     18          1           0        2.188729   -1.844543    0.840468
     19          1           0        0.486695   -0.364747    1.966731
 ---------------------------------------------------------------------

 SCF Done:  E(RB3LYP) =  -423.129753235     A.U. after    1 cycles

 The electronic state is 1-A.
 Alpha  occ. eigenvalues --  -19.13441 -19.12652 -10.24174 -10.23358 -10.23206
 Alpha  occ. eigenvalues --  -10.22528 -10.19202 -10.18703 -10.17777  -1.04362
 Alpha  occ. eigenvalues --   -1.03069  -0.81835  -0.74213  -0.71387  -0.66040
 Alpha  occ. eigenvalues --   -0.62977  -0.56462  -0.51156  -0.50795  -0.49352
 Alpha  occ. eigenvalues --   -0.48067  -0.46431  -0.44312  -0.41695  -0.40829
 Alpha  occ. eigenvalues --   -0.38043  -0.37108  -0.35297  -0.33578  -0.31688
 Alpha  occ. eigenvalues --   -0.29958  -0.27835  -0.24557  -0.23908
 Alpha virt. eigenvalues --    0.06012   0.07821   0.09776   0.10597   0.11064
 Alpha virt. eigenvalues --    0.13562   0.13767   0.15149   0.16159   0.16737
 Alpha virt. eigenvalues --    0.17265   0.18445   0.19344   0.20347   0.21311

 Mulliken charges:
               1
     1  C   -0.071349
     2  C   -0.362227
     3  C    0.452488
     4  C   -0.313868
     5  C    0.116365
     6  O   -0.292429
     7  C   -0.084299
     8  C   -0.159313
     9  O   -0.310170
    10  H    0.103947
    11  H    0.106873
    12  H    0.113029
    13  H    0.110808
    14  H    0.123132
    15  H    0.099215
    16  H    0.075111
    17  H    0.122868
    18  H    0.099088
    19  H    0.070731
 Sum of Mulliken charges =   0.00000

 Dipole moment (field-independent basis, Debye):
    X=             -1.9777    Y=              0.9087    Z=              2.0413  Tot=              2.9840
 Quadrupole moment (field-independent basis, Debye-Ang):
   XX=            -55.0951   YY=            -50.9564   ZZ=            -53.4522
   XY=             -0.6561   XZ=              1.3384   YZ=             -1.5216

  Exact polarizability:  84.405   0.057  74.481   1.445  -1.920  64.892
 Approx polarizability: 109.014   0.773 108.046  -0.221  -0.757  99.530

                      1                      2                      3
                      A                      A                      A
 Frequencies --     72.3115                76.0897               205.4069
 Red. masses --      3.3588                 2.5433                 2.9713
 Frc consts  --      0.0103                 0.0087                 0.0739
 IR Inten    --      1.2218                 0.5906                 3.1531

                      4                      5                      6
                      A                      A                      A
 Frequencies --    253.3479               346.2087               379.6643
 Red. masses --      2.5878                 3.6492                 2.2559
 Frc consts  --      0.0979                 0.2577                 0.1916
 IR Inten    --      2.6991                 0.5903                 2.3507

                      7                      8                      9
                      A                      A                      A
 Frequencies --    470.8843               517.4182               721.5917
 Red. masses --      2.6289                 4.2987                 3.0929
 Frc consts  --      0.3434                 0.6781                 0.9489
 IR Inten    --      0.1941                 4.7978                 0.8979

                     10                     11                     12
                      A                      A                      A
 Frequencies --    763.3034               788.3655               827.4139
 Red. masses --      1.6118                 1.5212                 1.8505
 Frc consts  --      0.5533                 0.5570                 0.7464
 IR Inten    --      2.6436                 4.9163                 9.9011

                     13                     14                     15
                      A                      A                      A
 Frequencies --    865.9051               885.1397               903.2907
 Red. masses --      3.4691                 2.1603                 2.2311
 Frc consts  --      1.5325                 0.9972                 1.0725
 IR Inten    --     12.5902                 2.4616                 8.2297

                     16                     17                     18
                      A                      A                      A
 Frequencies --    926.2455               968.4793               977.5262
 Red. masses --      3.3428                 2.3982                 2.5655
 Frc consts  --      1.6897                 1.3253                 1.4444
 IR Inten    --     10.6477                 7.7350                19.6923

                     19                     20                     21
                      A                      A                      A
 Frequencies --    990.0274              1007.0954              1027.2956
 Red. masses --      1.7516                 4.3142                 6.8982
 Frc consts  --      1.0115                 2.5781                 4.2892
 IR Inten    --     11.6039                72.9544               105.3373

                     22                     23                     24
                      A                      A                      A
 Frequencies --   1054.8648              1090.4651              1140.0612
 Red. masses --      2.4749                 2.1211                 2.0530
 Frc consts  --      1.6226                 1.4860                 1.5722
 IR Inten    --      0.2971                34.6667                 6.0992

                     25                     26                     27
                      A                      A                      A
 Frequencies --   1158.6063              1168.9438              1179.9804
 Red. masses --      1.3476                 1.2948                 2.0103
 Frc consts  --      1.0658                 1.0424                 1.6491
 IR Inten    --      0.6671                 3.4597                27.0515

                     28                     29                     30
                      A                      A                      A
 Frequencies --   1186.6481              1195.4662              1212.5153
 Red. masses --      1.9415                 1.7012                 1.3138
 Frc consts  --      1.6108                 1.4324                 1.1380
 IR Inten    --     10.2766                 5.9071                 0.8369

                     31                     32                     33
                      A                      A                      A
 Frequencies --   1238.0277              1256.2821              1262.0978
 Red. masses --      1.4998                 1.6825                 1.5486
 Frc consts  --      1.3544                 1.5645                 1.4533
 IR Inten    --      3.0800                10.4659                 8.1474

                     34                     35                     36
                      A                      A                      A
 Frequencies --   1304.3766              1323.0425              1356.8844
 Red. masses --      1.3988                 1.9208                 1.4843
 Frc consts  --      1.4022                 1.9810                 1.6102
 IR Inten    --     16.1950                13.9037                 0.3771

                     37                     38                     39
                      A                      A                      A
 Frequencies --   1360.5664              1446.3262              1487.3380
 Red. masses --      1.4687                 1.1107                 1.1049
 Frc consts  --      1.6018                 1.3689                 1.4401
 IR Inten    --      5.4847                 5.2394                 2.9130

                     40                     41                     42
                      A                      A                      A
 Frequencies --   1520.8008              1532.2503              3021.3844
 Red. masses --      1.0954                 1.1081                 1.0564
 Frc consts  --      1.4927                 1.5329                 5.6817
 IR Inten    --      1.9211                 1.3556                84.5835

                     43                     44                     45
                      A                      A                      A
 Frequencies --   3023.8495              3052.6712              3063.8622
 Red. masses --      1.0580                 1.0614                 1.1095
 Frc consts  --      5.6999                 5.8278                 6.1363
 IR Inten    --     76.7080                16.6014                31.5414

                     46                     47                     48
                      A                      A                      A
 Frequencies --   3072.3045              3078.3899              3081.4271
 Red. masses --      1.0600                 1.1065                 1.0891
 Frc consts  --      5.8949                 6.1778                 6.0930
 IR Inten    --     24.4536                33.1907                41.1904

                     49                     50                     51
                      A                      A                      A
 Frequencies --   3108.4771              3123.4706              3127.5342
 Red. masses --      1.0913                 1.1053                 1.1085
 Frc consts  --      6.2126                 6.3534                 6.3885
 IR Inten    --     32.8043                12.5502                23.9173

 - Thermochemistry -
 -------------------
 Temperature   298.150 Kelvin.  Pressure   1.00000 Atm.
 Atom     1 has atomic number  6 and mass  12.00000

 Molecular mass:   126.06808 amu.
 Principal axes and moments of inertia in atomic units:
                           1         2         3
     Eigenvalues --   480.122111368.635151507.50057
           X            0.99996  -0.00852   0.00067
           Y            0.00854   0.99885  -0.04709
           Z           -0.00027   0.04709   0.99889
 This molecule is an asymmetric top.
 Rotational symmetry number  1.
 Warning -- assumption of classical behavior for rotation
           may cause significant error
 Rotational temperatures (Kelvin)      0.18040     0.06328     0.05746
 Rotational constants (GHZ):           3.75892     1.31864     1.19717
 Zero-point vibrational energy     419900.8 (Joules/Mol)
                                  100.35869 (Kcal/Mol)
 Warning -- explicit consideration of   8 degrees of freedom as
           vibrations may cause significant error
 Vibrational temperatures:    104.04   109.48   295.53   364.51   498.12
          (Kelvin)            546.25   677.50   744.45  1038.21  1098.22
                             1134.28  1190.46  1245.84  1273.52  1299.63
                             1332.66  1393.42  1406.44  1424.43  1448.98
                             1478.05  1517.71  1568.93  1640.29  1666.97
                             1681.85  1697.73  1707.32  1720.01  1744.54
                             1781.24  1807.51  1815.87  1876.70  1903.56
                             1952.25  1957.55  2080.94  2139.95  2188.09
                             2204.56  4347.09  4350.64  4392.11  4408.21
                             4420.36  4429.11  4433.48  4472.40  4493.97
                             4499.82

 Zero-point correction=                           0.159932 (Hartree/Particle)
 Thermal correction to Energy=                    0.167563
 Thermal correction to Enthalpy=                  0.168507
 Thermal correction to Gibbs Free Energy=         0.127211
 Sum of electronic and zero-point Energies=           -422.969821
 Sum of electronic and thermal Energies=              -422.962190
 Sum of electronic and thermal Enthalpies=            -422.961246
 Sum of electronic and thermal Free Energies=         -423.002543

                     E (Thermal)             CV                S
                      KCal/Mol        Cal/Mol-Kelvin    Cal/Mol-Kelvin
 Total                  105.147             29.341             86.915
 Electronic               0.000              0.000              0.000
 Translational            0.889              2.981             40.409
 Rotational               0.889              2.981             28.384
 Vibrational            103.370             23.379             18.123
 Vibration     1          0.598              1.967              4.089
 Vibration     2          0.599              1.965              3.989
 Vibration     3          0.640              1.832              2.084
 Vibration     4          0.665              1.757              1.707
 Vibration     5          0.724              1.583              1.183
 Vibration     6          0.750              1.514              1.041
 Vibration     7          0.828              1.315              0.735
 Vibration     8          0.872              1.211              0.616

 Optimization completed.
    -- Stationary point found.
 Normal termination of Gaussian 09 at Mon Jan 27 12:59:41 2020.
