 Gaussian 09, Revision D.01,
 Gaussian 09:  ES64L-G09RevD.01 24-Apr-2013

 -----------------------------
 # b3lyp 6-31G(2df,p) opt Freq
 -----------------------------

 -----
 titel
 -----
 Symbolic Z-matrix:
 Charge =  0 Multiplicity = 1

 SCF Done:  E(RB3LYP) =  -423.155006140     A.U. after   13 cycles
 Optimization completed.
    -- Stationary point found.
 Normal termination of Gaussian 09 at Tue Jan 28 14:14:15 2020.

 ----------------------------------------------------------------------
 #N Geom=AllCheck Guess=TCheck SCRF=Check GenChk RB3LYP/6-31G(2df,p) Fr
 eq
 ----------------------------------------------------------------------

 Structure from the checkpoint file:  "/scratch/puck/g09_82167c4a-10a6-4ce1-b67e-780a78ba0769/Gau-98579.chk"
 -----
 titel
 -----
 Charge =  0 Multiplicity = 1

                         Standard orientation:
 ---------------------------------------------------------------------
 Center     Atomic      Atomic             Coordinates (Angstroms)
 Number     Number       Type             X           Y           Z
 ---------------------------------------------------------------------
      1          6           0       -3.388147   -0.037979   -0.440221
      2          6           0       -2.131409   -0.285120    0.376356
      3          8           0       -1.091598    0.516021   -0.156220
      4          6           0        0.106840    0.475716    0.583710
      5          6           0        1.108191    1.439354   -0.029430
      6          6           0        2.280495    0.860184   -0.285839
      7          6           0        2.220688   -0.597125    0.056895
      8          8           0        1.246789   -1.315046   -0.732781
      9          6           0        0.869509   -0.861246    0.567859
     10          1           0       -4.215312   -0.645377   -0.060718
     11          1           0       -3.677459    1.015592   -0.390529
     12          1           0       -3.218153   -0.297942   -1.488638
     13          1           0       -2.299454   -0.028357    1.436657
     14          1           0       -1.853796   -1.349982    0.339038
     15          1           0       -0.098868    0.744207    1.637471
     16          1           0        0.828761    2.460852   -0.257579
     17          1           0        3.149528    1.337687   -0.721279
     18          1           0        3.096901   -1.168406    0.347670
     19          1           0        0.649319   -1.638784    1.293941
 ---------------------------------------------------------------------

 SCF Done:  E(RB3LYP) =  -423.155006140     A.U. after    1 cycles

 The electronic state is 1-A.
 Alpha  occ. eigenvalues --  -19.14804 -19.13903 -10.24008 -10.23877 -10.23226
 Alpha  occ. eigenvalues --  -10.22764 -10.19053 -10.18917 -10.17402  -1.07043
 Alpha  occ. eigenvalues --   -1.03172  -0.81936  -0.75489  -0.69772  -0.66407
 Alpha  occ. eigenvalues --   -0.61561  -0.57344  -0.55144  -0.53521  -0.49456
 Alpha  occ. eigenvalues --   -0.47236  -0.44278  -0.42725  -0.41619  -0.39532
 Alpha  occ. eigenvalues --   -0.39005  -0.38303  -0.35860  -0.34890  -0.32685
 Alpha  occ. eigenvalues --   -0.30979  -0.27278  -0.25219  -0.24591
 Alpha virt. eigenvalues --   -0.00748   0.08405   0.10578   0.11825   0.13170
 Alpha virt. eigenvalues --    0.14242   0.14985   0.15491   0.16284   0.16777
 Alpha virt. eigenvalues --    0.17343   0.17832   0.19130   0.19591   0.20088

 Mulliken charges:
               1
     1  C   -0.385264
     2  C   -0.032790
     3  O   -0.255115
     4  C    0.092345
     5  C   -0.113431
     6  C   -0.085059
     7  C   -0.003322
     8  O   -0.246914
     9  C   -0.005865
    10  H    0.113764
    11  H    0.124678
    12  H    0.133302
    13  H    0.081521
    14  H    0.097228
    15  H    0.067880
    16  H    0.112111
    17  H    0.107583
    18  H    0.099359
    19  H    0.097989
 Sum of Mulliken charges =   0.00000

 Dipole moment (field-independent basis, Debye):
    X=              0.2585    Y=              0.4007    Z=              2.0802  Tot=              2.1341
 Quadrupole moment (field-independent basis, Debye-Ang):
   XX=            -46.6567   YY=            -53.0261   ZZ=            -54.2837
   XY=              2.0749   XZ=             -0.1270   YZ=             -2.5797

  Exact polarizability:  97.972  -0.663  72.749  -5.170  -2.495  59.794
 Approx polarizability: 129.316  -5.493 108.995  -9.882   1.074  95.919

                      1                      2                      3
                      A                      A                      A
 Frequencies --     63.2186                69.0154               131.4909
 Red. masses --      4.1724                 1.7671                 3.4262
 Frc consts  --      0.0098                 0.0050                 0.0349
 IR Inten    --      2.1165                 0.9490                 1.2273

                      4                      5                      6
                      A                      A                      A
 Frequencies --    195.7130               252.0154               296.6475
 Red. masses --      3.2398                 1.3157                 3.7828
 Frc consts  --      0.0731                 0.0492                 0.1961
 IR Inten    --      1.1180                 1.0020                 0.6367

                      7                      8                      9
                      A                      A                      A
 Frequencies --    370.1932               431.3239               499.8477
 Red. masses --      3.7433                 3.0877                 3.1604
 Frc consts  --      0.3022                 0.3384                 0.4652
 IR Inten    --      1.2621                 7.5552                 0.2073

                     10                     11                     12
                      A                      A                      A
 Frequencies --    620.2428               705.7526               750.4615
 Red. masses --      4.6840                 5.7640                 1.7453
 Frc consts  --      1.0617                 1.6915                 0.5791
 IR Inten    --     11.5011                 2.8157                10.9066

                     13                     14                     15
                      A                      A                      A
 Frequencies --    821.4899               825.8680               836.5921
 Red. masses --      1.3666                 2.1537                 4.0523
 Frc consts  --      0.5434                 0.8655                 1.6710
 IR Inten    --      4.4079                 1.8204                 6.3980

                     16                     17                     18
                      A                      A                      A
 Frequencies --    875.3201               906.4530               910.6271
 Red. masses --      2.2493                 2.1417                 3.2088
 Frc consts  --      1.0154                 1.0368                 1.5677
 IR Inten    --     35.5591                13.5443                 9.6739

                     19                     20                     21
                      A                      A                      A
 Frequencies --    950.3983               980.3290              1015.2241
 Red. masses --      1.4470                 2.3371                 1.9697
 Frc consts  --      0.7701                 1.3233                 1.1961
 IR Inten    --      4.6294                10.7559                 7.4012

                     22                     23                     24
                      A                      A                      A
 Frequencies --   1049.3221              1061.6232              1106.1768
 Red. masses --      2.5098                 2.0887                 1.2775
 Frc consts  --      1.6282                 1.3870                 0.9210
 IR Inten    --      6.9252                 4.8894                 0.5620

                     25                     26                     27
                      A                      A                      A
 Frequencies --   1119.6168              1151.4040              1167.2375
 Red. masses --      1.3906                 2.0114                 3.6470
 Frc consts  --      1.0270                 1.5711                 2.9275
 IR Inten    --     29.6975                12.3083               199.9760

                     28                     29                     30
                      A                      A                      A
 Frequencies --   1189.6758              1253.8859              1297.0647
 Red. masses --      1.6534                 1.4112                 1.3259
 Frc consts  --      1.3787                 1.3073                 1.3142
 IR Inten    --     23.9750                 3.5586                 1.2603

                     31                     32                     33
                      A                      A                      A
 Frequencies --   1299.7183              1305.1682              1344.6067
 Red. masses --      1.1803                 1.5678                 1.2630
 Frc consts  --      1.1747                 1.5735                 1.3454
 IR Inten    --      3.1290                 4.4487                31.4845

                     34                     35                     36
                      A                      A                      A
 Frequencies --   1374.4147              1401.7332              1419.2357
 Red. masses --      1.7120                 1.2396                 2.7236
 Frc consts  --      1.9054                 1.4350                 3.2323
 IR Inten    --     34.1231                 0.9102                19.2696

                     37                     38                     39
                      A                      A                      A
 Frequencies --   1438.0562              1483.0504              1499.8238
 Red. masses --      1.4934                 1.0403                 1.0462
 Frc consts  --      1.8196                 1.3481                 1.3865
 IR Inten    --      8.2696                 4.0522                 2.2754

                     40                     41                     42
                      A                      A                      A
 Frequencies --   1526.9710              1674.3646              2920.6888
 Red. masses --      1.0880                 6.5413                 1.0799
 Frc consts  --      1.4946                10.8047                 5.4273
 IR Inten    --      2.9470                 0.4504                46.0246

                     43                     44                     45
                      A                      A                      A
 Frequencies --   2955.3097              2996.4077              3045.3674
 Red. masses --      1.0626                 1.0970                 1.0347
 Frc consts  --      5.4679                 5.8028                 5.6537
 IR Inten    --     60.1493                39.5359                18.2042

                     46                     47                     48
                      A                      A                      A
 Frequencies --   3119.2710              3123.8107              3148.7387
 Red. masses --      1.1016                 1.1026                 1.0885
 Frc consts  --      6.3148                 6.3394                 6.3582
 IR Inten    --     23.6866                23.6809                17.3922

                     49                     50                     51
                      A                      A                      A
 Frequencies --   3166.4219              3199.7275              3223.6928
 Red. masses --      1.0935                 1.0858                 1.1054
 Frc consts  --      6.4595                 6.5498                 6.7686
 IR Inten    --     30.4257                 5.7263                12.5469

 - Thermochemistry -
 -------------------
 Temperature   298.150 Kelvin.  Pressure   1.00000 Atm.
 Atom     1 has atomic number  6 and mass  12.00000

 Molecular mass:   126.06808 amu.
 Principal axes and moments of inertia in atomic units:
                           1         2         3
     Eigenvalues --   464.507651729.670861969.34230
           X            0.99993   0.01134   0.00352
           Y           -0.01116   0.99875  -0.04871
           Z           -0.00406   0.04867   0.99881
 This molecule is an asymmetric top.
 Rotational symmetry number  1.
 Warning -- assumption of classical behavior for rotation
           may cause significant error
 Rotational temperatures (Kelvin)      0.18646     0.05008     0.04398
 Rotational constants (GHZ):           3.88528     1.04340     0.91642
 Zero-point vibrational energy     416125.9 (Joules/Mol)
                                   99.45647 (Kcal/Mol)
 Warning -- explicit consideration of  10 degrees of freedom as
           vibrations may cause significant error
 Vibrational temperatures:     90.96    99.30   189.19   281.59   362.59
          (Kelvin)            426.81   532.62   620.58   719.17   892.39
                             1015.42  1079.75  1181.94  1188.24  1203.67
                             1259.39  1304.18  1310.19  1367.41  1410.47
                             1460.68  1509.74  1527.44  1591.54  1610.88
                             1656.61  1679.39  1711.68  1804.06  1866.18
                             1870.00  1877.84  1934.59  1977.47  2016.78
                             2041.96  2069.04  2133.78  2157.91  2196.97
                             2409.03  4202.21  4252.03  4311.16  4381.60
                             4487.93  4494.46  4530.33  4555.77  4603.69
                             4638.17

 Zero-point correction=                           0.158494 (Hartree/Particle)
 Thermal correction to Energy=                    0.167040
 Thermal correction to Enthalpy=                  0.167984
 Thermal correction to Gibbs Free Energy=         0.124489
 Sum of electronic and zero-point Energies=           -422.996512
 Sum of electronic and thermal Energies=              -422.987967
 Sum of electronic and thermal Enthalpies=            -422.987022
 Sum of electronic and thermal Free Energies=         -423.030517

                     E (Thermal)             CV                S
                      KCal/Mol        Cal/Mol-Kelvin    Cal/Mol-Kelvin
 Total                  104.819             31.639             91.543
 Electronic               0.000              0.000              0.000
 Translational            0.889              2.981             40.409
 Rotational               0.889              2.981             28.850
 Vibrational            103.041             25.678             22.285
 Vibration     1          0.597              1.972              4.354
 Vibration     2          0.598              1.969              4.181
 Vibration     3          0.612              1.922              2.924
 Vibration     4          0.636              1.846              2.173
 Vibration     5          0.664              1.759              1.716
 Vibration     6          0.690              1.680              1.436
 Vibration     7          0.742              1.533              1.079
 Vibration     8          0.792              1.402              0.854
 Vibration     9          0.855              1.250              0.659
 Vibration    10          0.980              0.989              0.416

 Normal termination of Gaussian 09 at Tue Jan 28 14:58:03 2020.
