 Gaussian 09, Revision D.01,
 Gaussian 09:  ES64L-G09RevD.01 24-Apr-2013

 -----------------------------
 # b3lyp 6-31G(2df,p) opt Freq
 -----------------------------

 -----
 titel
 -----
 Symbolic Z-matrix:
 Charge =  0 Multiplicity = 1

 SCF Done:  E(RB3LYP) =  -423.231417060     A.U. after   14 cycles
 Optimization completed.
    -- Stationary point found.
 Normal termination of Gaussian 09 at Mon Jan 27 13:47:40 2020.

 ----------------------------------------------------------------------
 #N Geom=AllCheck Guess=TCheck SCRF=Check GenChk RB3LYP/6-31G(2df,p) Fr
 eq
 ----------------------------------------------------------------------

 Structure from the checkpoint file:  "/scratch/puck/g09_7d23b2d6-5a36-4eee-b2a6-e062e2f1ed3a/Gau-23103.chk"
 -----
 titel
 -----
 Charge =  0 Multiplicity = 1

                         Standard orientation:
 ---------------------------------------------------------------------
 Center     Atomic      Atomic             Coordinates (Angstroms)
 Number     Number       Type             X           Y           Z
 ---------------------------------------------------------------------
      1          8           0       -3.401471   -0.879725   -0.243962
      2          6           0       -2.660411   -0.163685    0.377299
      3          6           0       -1.636100    0.767709   -0.232538
      4          6           0       -0.222193    0.516708    0.308512
      5          6           0        0.824470    1.542797   -0.189409
      6          6           0        2.177526    0.877593    0.096573
      7          6           0        1.907796   -0.629811   -0.009503
      8          8           0        2.742103   -1.495465   -0.028723
      9          6           0        0.390411   -0.839996   -0.083649
     10          1           0       -2.684630   -0.145003    1.493434
     11          1           0       -1.671350    0.663031   -1.321756
     12          1           0       -1.937088    1.795130    0.021644
     13          1           0       -0.255865    0.574983    1.406094
     14          1           0        0.699388    1.693284   -1.268924
     15          1           0        0.708204    2.518769    0.289219
     16          1           0        2.992889    1.175909   -0.566371
     17          1           0        2.511661    1.076828    1.123330
     18          1           0        0.143148   -1.088188   -1.125759
     19          1           0        0.079597   -1.691125    0.526861
 ---------------------------------------------------------------------

 SCF Done:  E(RB3LYP) =  -423.231417060     A.U. after    1 cycles

 The electronic state is 1-A.
 Alpha  occ. eigenvalues --  -19.14604 -19.13291 -10.27839 -10.27308 -10.21579
 Alpha  occ. eigenvalues --  -10.20465 -10.20230 -10.19822 -10.19776  -1.05292
 Alpha  occ. eigenvalues --   -1.04447  -0.85884  -0.77686  -0.72757  -0.67903
 Alpha  occ. eigenvalues --   -0.59317  -0.58380  -0.54060  -0.50295  -0.48536
 Alpha  occ. eigenvalues --   -0.46275  -0.45133  -0.43535  -0.43069  -0.41811
 Alpha  occ. eigenvalues --   -0.40167  -0.39302  -0.37979  -0.35646  -0.35405
 Alpha  occ. eigenvalues --   -0.34539  -0.34373  -0.25673  -0.24397
 Alpha virt. eigenvalues --   -0.02825  -0.02065   0.07147   0.09285   0.11174
 Alpha virt. eigenvalues --    0.12677   0.13326   0.14041   0.14895   0.15490
 Alpha virt. eigenvalues --    0.16395   0.16577   0.19148   0.20691   0.22489

 Mulliken charges:
               1
     1  O   -0.237081
     2  C    0.163916
     3  C   -0.294760
     4  C    0.003207
     5  C   -0.232097
     6  C   -0.323046
     7  C    0.401837
     8  O   -0.306712
     9  C   -0.326148
    10  H    0.071477
    11  H    0.120549
    12  H    0.119440
    13  H    0.084446
    14  H    0.109360
    15  H    0.107006
    16  H    0.132556
    17  H    0.133676
    18  H    0.137826
    19  H    0.134546
 Sum of Mulliken charges =   0.00000

 Dipole moment (field-independent basis, Debye):
    X=              0.0472    Y=              3.5975    Z=              0.9089  Tot=              3.7108
 Quadrupole moment (field-independent basis, Debye-Ang):
   XX=            -69.7652   YY=            -56.2077   ZZ=            -50.7480
   XY=              1.4998   XZ=             -2.6610   YZ=             -0.4311

  Exact polarizability:  89.832   2.952  75.247   0.826   1.198  64.206
 Approx polarizability: 117.405   2.459 113.804   4.792   5.418 103.056

                      1                      2                      3
                      A                      A                      A
 Frequencies --     50.1174                77.0868                81.7747
 Red. masses --      7.5869                 2.8049                 3.2420
 Frc consts  --      0.0112                 0.0098                 0.0128
 IR Inten    --      4.7746                 0.8050                 5.2430

                      4                      5                      6
                      A                      A                      A
 Frequencies --    148.8571               201.5819               326.5027
 Red. masses --      2.1647                 2.5723                 3.2669
 Frc consts  --      0.0283                 0.0616                 0.2052
 IR Inten    --      0.9278                 3.2805                 1.5572

                      7                      8                      9
                      A                      A                      A
 Frequencies --    382.9049               454.1678               484.1152
 Red. masses --      2.4805                 1.9497                 3.5077
 Frc consts  --      0.2143                 0.2369                 0.4844
 IR Inten    --      0.0520                 1.3284                 8.8067

                     10                     11                     12
                      A                      A                      A
 Frequencies --    505.8127               557.5997               591.5973
 Red. masses --      2.7851                 3.7737                 2.4520
 Frc consts  --      0.4198                 0.6913                 0.5056
 IR Inten    --     14.2145                 4.7834                 0.9037

                     13                     14                     15
                      A                      A                      A
 Frequencies --    728.3863               787.9665               816.2967
 Red. masses --      1.9892                 1.8672                 2.3629
 Frc consts  --      0.6218                 0.6831                 0.9277
 IR Inten    --      2.2124                 1.4959                 1.6783

                     16                     17                     18
                      A                      A                      A
 Frequencies --    873.7051               908.5761               952.5258
 Red. masses --      2.4565                 1.6825                 1.3554
 Frc consts  --      1.1048                 0.8183                 0.7246
 IR Inten    --      1.6750                 6.0417                 4.6629

                     19                     20                     21
                      A                      A                      A
 Frequencies --    969.4914              1002.1889              1037.2785
 Red. masses --      1.8523                 1.7064                 2.2158
 Frc consts  --      1.0258                 1.0098                 1.4046
 IR Inten    --      0.7801                 0.9271                23.7633

                     22                     23                     24
                      A                      A                      A
 Frequencies --   1065.9984              1118.4735              1149.4057
 Red. masses --      2.6156                 2.6584                 3.7175
 Frc consts  --      1.7512                 1.9594                 2.8937
 IR Inten    --     15.1309                 1.2028                64.7293

                     25                     26                     27
                      A                      A                      A
 Frequencies --   1164.3678              1179.2921              1218.6611
 Red. masses --      1.5516                 1.5650                 1.4489
 Frc consts  --      1.2394                 1.2823                 1.2678
 IR Inten    --      9.0083                12.9232                 0.4782

                     28                     29                     30
                      A                      A                      A
 Frequencies --   1255.5678              1266.3153              1278.6527
 Red. masses --      1.4669                 1.4615                 1.2975
 Frc consts  --      1.3625                 1.3808                 1.2499
 IR Inten    --      1.0245                 9.2214                 3.5764

                     31                     32                     33
                      A                      A                      A
 Frequencies --   1303.9337              1335.7931              1350.3799
 Red. masses --      1.3596                 1.4005                 1.3564
 Frc consts  --      1.3620                 1.4723                 1.4573
 IR Inten    --      4.8540                 4.0186                 4.0709

                     34                     35                     36
                      A                      A                      A
 Frequencies --   1387.7466              1429.5182              1446.4356
 Red. masses --      1.4819                 1.1929                 1.0937
 Frc consts  --      1.6815                 1.4363                 1.3482
 IR Inten    --      5.5477                 4.4064                 9.7490

                     37                     38                     39
                      A                      A                      A
 Frequencies --   1451.9697              1461.1264              1500.7123
 Red. masses --      1.0870                 1.0943                 1.0959
 Frc consts  --      1.3502                 1.3765                 1.4541
 IR Inten    --      4.1575                 4.2703                 2.5554

                     40                     41                     42
                      A                      A                      A
 Frequencies --   1837.5800              1850.9058              2845.4701
 Red. masses --     10.1938                12.7081                 1.0814
 Frc consts  --     20.2805                25.6507                 5.1589
 IR Inten    --    174.8355               228.4721               105.8599

                     43                     44                     45
                      A                      A                      A
 Frequencies --   2999.9517              3006.8892              3024.8319
 Red. masses --      1.0815                 1.0645                 1.0683
 Frc consts  --      5.7347                 5.6706                 5.7589
 IR Inten    --     12.8832                13.9632                 8.0444

                     46                     47                     48
                      A                      A                      A
 Frequencies --   3034.1027              3038.5558              3087.4078
 Red. masses --      1.0705                 1.0630                 1.0966
 Frc consts  --      5.8061                 5.7823                 6.1589
 IR Inten    --      4.5549                33.6397                10.1596

                     49                     50                     51
                      A                      A                      A
 Frequencies --   3094.2701              3106.7636              3110.4091
 Red. masses --      1.0980                 1.0939                 1.0957
 Frc consts  --      6.1941                 6.2207                 6.2457
 IR Inten    --     29.2446                 8.3315                12.7202

 - Thermochemistry -
 -------------------
 Temperature   298.150 Kelvin.  Pressure   1.00000 Atm.
 Atom     1 has atomic number  8 and mass  15.99491

 Molecular mass:   126.06808 amu.
 Principal axes and moments of inertia in atomic units:
                           1         2         3
     Eigenvalues --   518.897822070.737682475.80037
           X            0.99994   0.01043  -0.00344
           Y           -0.01046   0.99992  -0.00676
           Z            0.00337   0.00679   0.99997
 This molecule is an asymmetric top.
 Rotational symmetry number  1.
 Warning -- assumption of classical behavior for rotation
           may cause significant error
 Rotational temperatures (Kelvin)      0.16692     0.04183     0.03498
 Rotational constants (GHZ):           3.47803     0.87155     0.72895
 Zero-point vibrational energy     414745.4 (Joules/Mol)
                                   99.12654 (Kcal/Mol)
 Warning -- explicit consideration of  12 degrees of freedom as
           vibrations may cause significant error
 Vibrational temperatures:     72.11   110.91   117.66   214.17   290.03
          (Kelvin)            469.76   550.91   653.45   696.53   727.75
                              802.26   851.18  1047.98  1133.71  1174.47
                             1257.07  1307.24  1370.47  1394.88  1441.92
                             1492.41  1533.73  1609.23  1653.74  1675.26
                             1696.74  1753.38  1806.48  1821.94  1839.69
                             1876.07  1921.91  1942.89  1996.66  2056.76
                             2081.10  2089.06  2102.23  2159.19  2643.86
                             2663.04  4093.99  4316.26  4326.24  4352.05
                             4365.39  4371.80  4442.09  4451.96  4469.93
                             4475.18

 Zero-point correction=                           0.157968 (Hartree/Particle)
 Thermal correction to Energy=                    0.166925
 Thermal correction to Enthalpy=                  0.167869
 Thermal correction to Gibbs Free Energy=         0.122936
 Sum of electronic and zero-point Energies=           -423.073449
 Sum of electronic and thermal Energies=              -423.064492
 Sum of electronic and thermal Enthalpies=            -423.063548
 Sum of electronic and thermal Free Energies=         -423.108481

                     E (Thermal)             CV                S
                      KCal/Mol        Cal/Mol-Kelvin    Cal/Mol-Kelvin
 Total                  104.747             32.381             94.569
 Electronic               0.000              0.000              0.000
 Translational            0.889              2.981             40.409
 Rotational               0.889              2.981             29.366
 Vibrational            102.970             26.419             24.795
 Vibration     1          0.595              1.978              4.813
 Vibration     2          0.599              1.964              3.964
 Vibration     3          0.600              1.962              3.848
 Vibration     4          0.618              1.904              2.687
 Vibration     5          0.638              1.838              2.119
 Vibration     6          0.710              1.623              1.277
 Vibration     7          0.752              1.507              1.028
 Vibration     8          0.813              1.352              0.783
 Vibration     9          0.840              1.285              0.699
 Vibration    10          0.861              1.237              0.644
 Vibration    11          0.913              1.123              0.529
 Vibration    12          0.949              1.050              0.464

 Optimization completed.
    -- Stationary point found.
 Normal termination of Gaussian 09 at Mon Jan 27 14:29:20 2020.
