 Gaussian 09, Revision D.01,
 Gaussian 09:  ES64L-G09RevD.01 24-Apr-2013

 -----------------------------
 # b3lyp 6-31G(2df,p) opt Freq
 -----------------------------

 -----
 titel
 -----
 Symbolic Z-matrix:
 Charge =  0 Multiplicity = 1

 SCF Done:  E(RB3LYP) =  -423.190046098     A.U. after   14 cycles
 Optimization completed.
    -- Stationary point found.
 Normal termination of Gaussian 09 at Mon Jan 27 22:56:11 2020.

 ----------------------------------------------------------------------
 #N Geom=AllCheck Guess=TCheck SCRF=Check GenChk RB3LYP/6-31G(2df,p) Fr
 eq
 ----------------------------------------------------------------------

 Structure from the checkpoint file:  "/scratch/puck/g09_0aeed42a-d999-4ec5-b832-11cb6f67cd4f/Gau-75290.chk"
 -----
 titel
 -----
 Charge =  0 Multiplicity = 1

                         Standard orientation:
 ---------------------------------------------------------------------
 Center     Atomic      Atomic             Coordinates (Angstroms)
 Number     Number       Type             X           Y           Z
 ---------------------------------------------------------------------
      1          6           0       -1.816674    1.698985   -0.047629
      2          6           0       -0.466315    1.047130    0.217618
      3          6           0       -0.476850   -0.245646    1.107229
      4          6           0        1.027143   -0.596703    1.170196
      5          6           0        1.434805   -0.361889   -0.331526
      6          8           0        2.489712    0.555291   -0.525712
      7          6           0        0.064780    0.078090   -0.903411
      8          6           0       -0.854994   -0.949349   -0.210671
      9          8           0       -1.613553   -1.804401   -0.556002
     10          1           0       -1.735402    2.459906   -0.830518
     11          1           0       -2.563182    0.966327   -0.371833
     12          1           0       -2.197737    2.186880    0.855377
     13          1           0        0.260775    1.797479    0.548792
     14          1           0       -1.072630   -0.329005    2.014773
     15          1           0        1.580821    0.083759    1.825042
     16          1           0        1.216193   -1.619095    1.506619
     17          1           0        1.781099   -1.282480   -0.807387
     18          1           0        2.241761    1.398525   -0.132324
     19          1           0        0.007651    0.306869   -1.965671
 ---------------------------------------------------------------------

 SCF Done:  E(RB3LYP) =  -423.190046098     A.U. after    1 cycles

 The electronic state is 1-A.
 Alpha  occ. eigenvalues --  -19.14537 -19.14037 -10.27294 -10.24663 -10.21525
 Alpha  occ. eigenvalues --  -10.20379 -10.19875 -10.19754 -10.18895  -1.05130
 Alpha  occ. eigenvalues --   -1.02958  -0.89870  -0.75957  -0.70930  -0.69108
 Alpha  occ. eigenvalues --   -0.61002  -0.58895  -0.52963  -0.51394  -0.48236
 Alpha  occ. eigenvalues --   -0.46279  -0.44713  -0.43992  -0.41275  -0.40139
 Alpha  occ. eigenvalues --   -0.38960  -0.38188  -0.37600  -0.35862  -0.34691
 Alpha  occ. eigenvalues --   -0.33329  -0.31147  -0.27458  -0.23840
 Alpha virt. eigenvalues --   -0.00926   0.06347   0.09567   0.10426   0.12386
 Alpha virt. eigenvalues --    0.13179   0.14102   0.14506   0.15993   0.16347
 Alpha virt. eigenvalues --    0.16776   0.18147   0.18664   0.20102   0.22063

 Mulliken charges:
               1
     1  C   -0.435187
     2  C    0.002886
     3  C   -0.137517
     4  C   -0.278161
     5  C    0.138887
     6  O   -0.435525
     7  C   -0.172940
     8  C    0.425546
     9  O   -0.327419
    10  H    0.123540
    11  H    0.140399
    12  H    0.122220
    13  H    0.057319
    14  H    0.083483
    15  H    0.106224
    16  H    0.118174
    17  H    0.103633
    18  H    0.278451
    19  H    0.085988
 Sum of Mulliken charges =   0.00000

 Dipole moment (field-independent basis, Debye):
    X=              0.3983    Y=              2.4597    Z=              1.5261  Tot=              2.9219
 Quadrupole moment (field-independent basis, Debye-Ang):
   XX=            -60.8187   YY=            -53.8085   ZZ=            -52.5579
   XY=             -4.4239   XZ=              0.7343   YZ=             -1.0033

  Exact polarizability:  79.557   0.467  76.096   0.962   0.437  69.472
 Approx polarizability: 114.428  10.222 117.124   1.641   4.474 105.788

                      1                      2                      3
                      A                      A                      A
 Frequencies --    133.6589               157.4895               219.3753
 Red. masses --      7.3979                 3.6992                 1.2932
 Frc consts  --      0.0779                 0.0541                 0.0367
 IR Inten    --      2.9140                 1.0062                 7.6763

                      4                      5                      6
                      A                      A                      A
 Frequencies --    228.8091               260.2301               270.6751
 Red. masses --      1.3482                 1.5971                 2.0021
 Frc consts  --      0.0416                 0.0637                 0.0864
 IR Inten    --      4.0863                39.0079                26.5053

                      7                      8                      9
                      A                      A                      A
 Frequencies --    347.3651               445.7529               469.5004
 Red. masses --      4.6382                 2.9420                 3.1252
 Frc consts  --      0.3297                 0.3444                 0.4059
 IR Inten    --     12.5334                 4.5325                 0.9515

                     10                     11                     12
                      A                      A                      A
 Frequencies --    527.6460               628.6277               652.7542
 Red. masses --      4.1522                 4.8285                 3.4924
 Frc consts  --      0.6811                 1.1242                 0.8768
 IR Inten    --      2.9299                 2.2024                11.8745

                     13                     14                     15
                      A                      A                      A
 Frequencies --    764.0771               782.0191               806.0177
 Red. masses --      3.1338                 3.3251                 2.5516
 Frc consts  --      1.0779                 1.1981                 0.9767
 IR Inten    --      2.2540                 9.1998                 2.3300

                     16                     17                     18
                      A                      A                      A
 Frequencies --    837.7312               935.0689               949.5065
 Red. masses --      2.8310                 1.8543                 1.9234
 Frc consts  --      1.1706                 0.9553                 1.0217
 IR Inten    --      9.4902                 5.3514                 2.7446

                     19                     20                     21
                      A                      A                      A
 Frequencies --    978.6311               998.8496              1034.1454
 Red. masses --      3.4721                 2.0448                 1.6200
 Frc consts  --      1.9592                 1.2020                 1.0208
 IR Inten    --      7.7275                11.1733                 2.5966

                     22                     23                     24
                      A                      A                      A
 Frequencies --   1059.8679              1065.6431              1074.8544
 Red. masses --      1.5975                 1.9804                 1.6779
 Frc consts  --      1.0573                 1.3250                 1.1421
 IR Inten    --     15.6461                35.4860                11.7818

                     25                     26                     27
                      A                      A                      A
 Frequencies --   1103.8448              1114.7277              1148.0305
 Red. masses --      1.5967                 2.2844                 1.4052
 Frc consts  --      1.1463                 1.6725                 1.0912
 IR Inten    --      4.9337                58.9587                16.3372

                     28                     29                     30
                      A                      A                      A
 Frequencies --   1198.5163              1210.1125              1226.1060
 Red. masses --      1.7996                 1.8764                 1.7396
 Frc consts  --      1.5231                 1.6189                 1.5408
 IR Inten    --     47.8562                 2.9917                 4.7311

                     31                     32                     33
                      A                      A                      A
 Frequencies --   1241.0863              1301.1480              1302.5913
 Red. masses --      1.5774                 1.4197                 1.5202
 Frc consts  --      1.4316                 1.4161                 1.5197
 IR Inten    --      3.9639                 8.1753                 1.6876

                     34                     35                     36
                      A                      A                      A
 Frequencies --   1314.8651              1376.4873              1421.8395
 Red. masses --      1.4885                 1.4234                 1.2419
 Frc consts  --      1.5162                 1.5890                 1.4793
 IR Inten    --      0.8269                 4.2172                 0.8482

                     37                     38                     39
                      A                      A                      A
 Frequencies --   1441.6462              1491.7714              1496.0649
 Red. masses --      1.1920                 1.0867                 1.0482
 Frc consts  --      1.4596                 1.4249                 1.3823
 IR Inten    --     72.8339                 2.8702                 2.1887

                     40                     41                     42
                      A                      A                      A
 Frequencies --   1501.5290              1900.5477              3031.8036
 Red. masses --      1.0459                12.1594                 1.0695
 Frc consts  --      1.3893                25.8774                 5.7922
 IR Inten    --      5.6693               302.9721                31.8210

                     43                     44                     45
                      A                      A                      A
 Frequencies --   3034.8290              3053.5396              3082.2804
 Red. masses --      1.0490                 1.0609                 1.0888
 Frc consts  --      5.6922                 5.8280                 6.0943
 IR Inten    --     20.4890                27.3420                15.8127

                     46                     47                     48
                      A                      A                      A
 Frequencies --   3101.7093              3105.6571              3107.9332
 Red. masses --      1.1017                 1.1015                 1.1031
 Frc consts  --      6.2447                 6.2594                 6.2778
 IR Inten    --     17.9675                14.7185                32.9824

                     49                     50                     51
                      A                      A                      A
 Frequencies --   3136.0182              3147.1709              3810.7571
 Red. masses --      1.0905                 1.0914                 1.0655
 Frc consts  --      6.3188                 6.3689                 9.1167
 IR Inten    --     24.2534                12.4661                 9.6605

 - Thermochemistry -
 -------------------
 Temperature   298.150 Kelvin.  Pressure   1.00000 Atm.
 Atom     1 has atomic number  6 and mass  12.00000

 Molecular mass:   126.06808 amu.
 Principal axes and moments of inertia in atomic units:
                           1         2         3
     Eigenvalues --   754.565931178.087291441.27790
           X            0.99514  -0.09807   0.00933
           Y            0.09831   0.99472  -0.02956
           Z           -0.00638   0.03034   0.99952
 This molecule is an asymmetric top.
 Rotational symmetry number  1.
 Warning -- assumption of classical behavior for rotation
           may cause significant error
 Rotational temperatures (Kelvin)      0.11479     0.07352     0.06010
 Rotational constants (GHZ):           2.39176     1.53192     1.25218
 Zero-point vibrational energy     418877.9 (Joules/Mol)
                                  100.11421 (Kcal/Mol)
 Warning -- explicit consideration of  10 degrees of freedom as
           vibrations may cause significant error
 Vibrational temperatures:    192.31   226.59   315.63   329.20   374.41
          (Kelvin)            389.44   499.78   641.34   675.51   759.16
                              904.45   939.17  1099.34  1125.15  1159.68
                             1205.31  1345.35  1366.13  1408.03  1437.12
                             1487.90  1524.91  1533.22  1546.47  1588.18
                             1603.84  1651.76  1724.40  1741.08  1764.09
                             1785.64  1872.06  1874.14  1891.80  1980.46
                             2045.71  2074.20  2146.32  2152.50  2160.36
                             2734.46  4362.08  4366.44  4393.36  4434.71
                             4462.66  4468.34  4471.62  4512.03  4528.07
                             5482.82

 Zero-point correction=                           0.159542 (Hartree/Particle)
 Thermal correction to Energy=                    0.167823
 Thermal correction to Enthalpy=                  0.168767
 Thermal correction to Gibbs Free Energy=         0.127061
 Sum of electronic and zero-point Energies=           -423.030504
 Sum of electronic and thermal Energies=              -423.022223
 Sum of electronic and thermal Enthalpies=            -423.021279
 Sum of electronic and thermal Free Energies=         -423.062985

                     E (Thermal)             CV                S
                      KCal/Mol        Cal/Mol-Kelvin    Cal/Mol-Kelvin
 Total                  105.310             32.316             87.778
 Electronic               0.000              0.000              0.000
 Translational            0.889              2.981             40.409
 Rotational               0.889              2.981             28.640
 Vibrational            103.533             26.354             18.729
 Vibration     1          0.613              1.920              2.893
 Vibration     2          0.621              1.894              2.580
 Vibration     3          0.647              1.812              1.964
 Vibration     4          0.651              1.797              1.888
 Vibration     5          0.668              1.745              1.660
 Vibration     6          0.674              1.727              1.592
 Vibration     7          0.725              1.581              1.178
 Vibration     8          0.805              1.370              0.809
 Vibration     9          0.827              1.318              0.739
 Vibration    10          0.883              1.189              0.592

 Optimization completed.
    -- Stationary point found.
 Normal termination of Gaussian 09 at Mon Jan 27 23:41:39 2020.
