 Gaussian 09, Revision D.01,
 Gaussian 09:  ES64L-G09RevD.01 24-Apr-2013

 -----------------------------
 # b3lyp 6-31G(2df,p) opt Freq
 -----------------------------

 -----
 titel
 -----
 Symbolic Z-matrix:
 Charge =  0 Multiplicity = 1

 SCF Done:  E(RB3LYP) =  -423.150825348     A.U. after   14 cycles
 Optimization completed.
    -- Stationary point found.
 Normal termination of Gaussian 09 at Mon Jan 27 13:16:44 2020.

 ----------------------------------------------------------------------
 #N Geom=AllCheck Guess=TCheck SCRF=Check GenChk RB3LYP/6-31G(2df,p) Fr
 eq
 ----------------------------------------------------------------------

 Structure from the checkpoint file:  "/scratch/puck/g09_f9e4dc51-1513-436c-b142-a8c35a8b951b/Gau-28322.chk"
 -----
 titel
 -----
 Charge =  0 Multiplicity = 1

                         Standard orientation:
 ---------------------------------------------------------------------
 Center     Atomic      Atomic             Coordinates (Angstroms)
 Number     Number       Type             X           Y           Z
 ---------------------------------------------------------------------
      1          8           0        2.704331   -1.114867    0.449403
      2          6           0        1.600652   -1.106970   -0.040524
      3          6           0        0.770147    0.116310   -0.229139
      4          6           0        1.497939    1.358547   -0.708776
      5          6           0        1.014536    1.290145    0.704480
      6          8           0       -0.493827   -0.113870   -0.775784
      7          6           0       -1.468257   -0.527252    0.147873
      8          6           0       -2.875829   -0.518550   -0.346244
      9          6           0       -2.435927    0.484729    0.703515
     10          1           0        1.116209   -2.034368   -0.420152
     11          1           0        2.559892    1.252457   -0.897159
     12          1           0        0.944392    1.970456   -1.411166
     13          1           0        1.747013    1.125755    1.486721
     14          1           0        0.144873    1.872724    0.979559
     15          1           0       -1.151967   -1.342521    0.796624
     16          1           0       -3.029673   -0.143307   -1.351538
     17          1           0       -3.531843   -1.331751   -0.057972
     18          1           0       -2.317893    1.511027    0.375315
     19          1           0       -2.784596    0.367663    1.723710
 ---------------------------------------------------------------------

 SCF Done:  E(RB3LYP) =  -423.150825348     A.U. after    1 cycles

 The electronic state is 1-A.
 Alpha  occ. eigenvalues --  -19.16192 -19.13749 -10.26890 -10.25098 -10.24481
 Alpha  occ. eigenvalues --  -10.20175 -10.20005 -10.19220 -10.19196  -1.06139
 Alpha  occ. eigenvalues --   -1.04240  -0.87459  -0.84253  -0.67823  -0.62427
 Alpha  occ. eigenvalues --   -0.61587  -0.60252  -0.55136  -0.53306  -0.50428
 Alpha  occ. eigenvalues --   -0.48381  -0.45962  -0.44265  -0.42282  -0.41221
 Alpha  occ. eigenvalues --   -0.39815  -0.37335  -0.36840  -0.35705  -0.32374
 Alpha  occ. eigenvalues --   -0.30003  -0.28814  -0.26625  -0.24340
 Alpha virt. eigenvalues --   -0.02723   0.07856   0.09514   0.10875   0.11548
 Alpha virt. eigenvalues --    0.12898   0.13933   0.14845   0.15491   0.16560
 Alpha virt. eigenvalues --    0.17993   0.18643   0.20348   0.21555   0.22701

 Mulliken charges:
               1
     1  O   -0.268828
     2  C    0.102146
     3  C    0.304738
     4  C   -0.293989
     5  C   -0.305080
     6  O   -0.296066
     7  C    0.127286
     8  C   -0.294247
     9  C   -0.282380
    10  H    0.084665
    11  H    0.138270
    12  H    0.132240
    13  H    0.141947
    14  H    0.131185
    15  H    0.092248
    16  H    0.129591
    17  H    0.119367
    18  H    0.119465
    19  H    0.117442
 Sum of Mulliken charges =   0.00000

 Dipole moment (field-independent basis, Debye):
    X=             -2.3101    Y=              0.8834    Z=              0.1687  Tot=              2.4790
 Quadrupole moment (field-independent basis, Debye-Ang):
   XX=            -58.9691   YY=            -51.6007   ZZ=            -52.9185
   XY=              4.2040   XZ=             -3.4062   YZ=             -0.2042

  Exact polarizability:  89.214   1.779  76.331   1.429   0.612  64.818
 Approx polarizability: 119.237  -0.450 111.233   5.935   0.975 100.920

                      1                      2                      3
                      A                      A                      A
 Frequencies --     45.3090                82.8084               130.0562
 Red. masses --      3.1707                 3.9399                 3.2283
 Frc consts  --      0.0038                 0.0159                 0.0322
 IR Inten    --      1.4399                 1.1242                 3.7232

                      4                      5                      6
                      A                      A                      A
 Frequencies --    179.4387               230.1779               285.0258
 Red. masses --      2.5639                 4.2928                 1.9987
 Frc consts  --      0.0486                 0.1340                 0.0957
 IR Inten    --      4.0507                 5.5524                 1.3924

                      7                      8                      9
                      A                      A                      A
 Frequencies --    328.4612               359.2953               415.5897
 Red. masses --      2.9732                 3.0102                 3.9817
 Frc consts  --      0.1890                 0.2290                 0.4052
 IR Inten    --      0.4537                 4.5677                13.9845

                     10                     11                     12
                      A                      A                      A
 Frequencies --    497.8617               628.0020               723.5618
 Red. masses --      3.0677                 3.7663                 2.9516
 Frc consts  --      0.4480                 0.8752                 0.9104
 IR Inten    --      2.4041                 1.8593                 6.5450

                     13                     14                     15
                      A                      A                      A
 Frequencies --    759.2741               784.4958               816.6194
 Red. masses --      1.2751                 1.0759                 1.5036
 Frc consts  --      0.4331                 0.3901                 0.5908
 IR Inten    --      4.3674                 0.9729                 5.5325

                     16                     17                     18
                      A                      A                      A
 Frequencies --    826.2723               842.6118               927.4296
 Red. masses --      2.0479                 2.5755                 2.0631
 Frc consts  --      0.8238                 1.0774                 1.0455
 IR Inten    --      7.2800                 5.1904                 9.0585

                     19                     20                     21
                      A                      A                      A
 Frequencies --    946.0172               991.8145               997.6305
 Red. masses --      1.8452                 3.4634                 1.9797
 Frc consts  --      0.9729                 2.0073                 1.1609
 IR Inten    --      2.6712                63.6222                12.6372

                     22                     23                     24
                      A                      A                      A
 Frequencies --   1031.4692              1056.4134              1058.5106
 Red. masses --      2.1143                 1.5576                 1.7704
 Frc consts  --      1.3254                 1.0242                 1.1687
 IR Inten    --     14.3693                15.9498                 9.8288

                     25                     26                     27
                      A                      A                      A
 Frequencies --   1064.7089              1074.0203              1095.2021
 Red. masses --      1.2333                 1.4157                 1.5300
 Frc consts  --      0.8237                 0.9622                 1.0813
 IR Inten    --     16.3709                 0.5429                 4.4248

                     28                     29                     30
                      A                      A                      A
 Frequencies --   1123.6496              1190.5871              1193.6955
 Red. masses --      1.2157                 2.2219                 1.3256
 Frc consts  --      0.9044                 1.8556                 1.1129
 IR Inten    --      4.3787                45.5086                 0.0675

                     31                     32                     33
                      A                      A                      A
 Frequencies --   1204.2127              1235.7606              1279.6426
 Red. masses --      1.3011                 1.9339                 2.9549
 Frc consts  --      1.1117                 1.7400                 2.8508
 IR Inten    --      1.2815                 3.7367               130.6359

                     34                     35                     36
                      A                      A                      A
 Frequencies --   1305.2571              1399.6322              1413.0124
 Red. masses --      3.3469                 1.3388                 1.3602
 Frc consts  --      3.3596                 1.5453                 1.6000
 IR Inten    --     38.4066                47.9882                11.9875

                     37                     38                     39
                      A                      A                      A
 Frequencies --   1440.1431              1452.4680              1472.7516
 Red. masses --      1.0920                 1.0927                 1.3466
 Frc consts  --      1.3344                 1.3582                 1.7209
 IR Inten    --      3.2642                 1.6289                17.6961

                     40                     41                     42
                      A                      A                      A
 Frequencies --   1497.7356              1812.3635              2887.1184
 Red. masses --      1.4662                10.2377                 1.0835
 Frc consts  --      1.9378                19.8127                 5.3213
 IR Inten    --     13.1053               136.9939               102.9096

                     43                     44                     45
                      A                      A                      A
 Frequencies --   3112.4291              3137.1267              3143.7179
 Red. masses --      1.0870                 1.0525                 1.0582
 Frc consts  --      6.2042                 6.1027                 6.1615
 IR Inten    --     21.8140                10.2770                 6.0327

                     46                     47                     48
                      A                      A                      A
 Frequencies --   3144.6310              3148.9251              3221.9264
 Red. masses --      1.0528                 1.0538                 1.1184
 Frc consts  --      6.1339                 6.1566                 6.8406
 IR Inten    --      5.8358                 5.2843                 1.1574

                     49                     50                     51
                      A                      A                      A
 Frequencies --   3236.2377              3238.0018              3252.2108
 Red. masses --      1.1159                 1.1194                 1.1167
 Frc consts  --      6.8858                 6.9148                 6.9591
 IR Inten    --     11.5916                 0.4940                 2.6727

 - Thermochemistry -
 -------------------
 Temperature   298.150 Kelvin.  Pressure   1.00000 Atm.
 Atom     1 has atomic number  8 and mass  15.99491

 Molecular mass:   126.06808 amu.
 Principal axes and moments of inertia in atomic units:
                           1         2         3
     Eigenvalues --   541.611131740.309771961.34427
           X            0.99974   0.02089  -0.00900
           Y           -0.02077   0.99970   0.01322
           Z            0.00928  -0.01303   0.99987
 This molecule is an asymmetric top.
 Rotational symmetry number  1.
 Warning -- assumption of classical behavior for rotation
           may cause significant error
 Rotational temperatures (Kelvin)      0.15992     0.04977     0.04416
 Rotational constants (GHZ):           3.33217     1.03702     0.92016
 Zero-point vibrational energy     411044.7 (Joules/Mol)
                                   98.24205 (Kcal/Mol)
 Warning -- explicit consideration of  10 degrees of freedom as
           vibrations may cause significant error
 Vibrational temperatures:     65.19   119.14   187.12   258.17   331.17
          (Kelvin)            410.09   472.58   516.95   597.94   716.31
                              903.55  1041.04  1092.42  1128.71  1174.93
                             1188.82  1212.33  1334.36  1361.11  1427.00
                             1435.37  1484.05  1519.94  1522.96  1531.88
                             1545.27  1575.75  1616.68  1712.99  1717.46
                             1732.59  1777.98  1841.12  1877.97  2013.76
                             2033.01  2072.04  2089.77  2118.96  2154.90
                             2607.58  4153.91  4478.09  4513.62  4523.10
                             4524.42  4530.60  4635.63  4656.22  4658.76
                             4679.20

 Zero-point correction=                           0.156559 (Hartree/Particle)
 Thermal correction to Energy=                    0.165615
 Thermal correction to Enthalpy=                  0.166559
 Thermal correction to Gibbs Free Energy=         0.121986
 Sum of electronic and zero-point Energies=           -422.994267
 Sum of electronic and thermal Energies=              -422.985211
 Sum of electronic and thermal Enthalpies=            -422.984267
 Sum of electronic and thermal Free Energies=         -423.028839

                     E (Thermal)             CV                S
                      KCal/Mol        Cal/Mol-Kelvin    Cal/Mol-Kelvin
 Total                  103.925             33.514             93.811
 Electronic               0.000              0.000              0.000
 Translational            0.889              2.981             40.409
 Rotational               0.889              2.981             29.004
 Vibrational            102.147             27.553             24.398
 Vibration     1          0.595              1.979              5.012
 Vibration     2          0.600              1.961              3.823
 Vibration     3          0.612              1.923              2.945
 Vibration     4          0.629              1.868              2.334
 Vibration     5          0.652              1.795              1.878
 Vibration     6          0.683              1.701              1.503
 Vibration     7          0.712              1.619              1.268
 Vibration     8          0.734              1.556              1.125
 Vibration     9          0.779              1.436              0.907
 Vibration    10          0.853              1.255              0.663

 Optimization completed.
    -- Stationary point found.
 Normal termination of Gaussian 09 at Mon Jan 27 14:30:12 2020.
