 Gaussian 09, Revision D.01,
 Gaussian 09:  ES64L-G09RevD.01 24-Apr-2013

 -----------------------------
 # b3lyp 6-31G(2df,p) opt Freq
 -----------------------------

 -----
 titel
 -----
 Symbolic Z-matrix:
 Charge =  0 Multiplicity = 1

 SCF Done:  E(RB3LYP) =  -423.114202678     A.U. after   14 cycles
 Optimization completed.
    -- Stationary point found.
 Normal termination of Gaussian 09 at Tue Jan 28 08:19:24 2020.

 ----------------------------------------------------------------------
 #N Geom=AllCheck Guess=TCheck SCRF=Check GenChk RB3LYP/6-31G(2df,p) Fr
 eq
 ----------------------------------------------------------------------

 Structure from the checkpoint file:  "/scratch/puck/g09_25b8f57f-852b-45a1-bba6-a6e78625f1f9/Gau-74500.chk"
 -----
 titel
 -----
 Charge =  0 Multiplicity = 1

                         Standard orientation:
 ---------------------------------------------------------------------
 Center     Atomic      Atomic             Coordinates (Angstroms)
 Number     Number       Type             X           Y           Z
 ---------------------------------------------------------------------
      1          6           0        1.094843    1.981443   -0.437243
      2          8           0        0.204932    0.939920   -0.836410
      3          6           0        0.302573   -0.222567   -0.050561
      4          6           0        1.603865   -0.815226    0.075633
      5          6           0        2.689508   -1.320064    0.201053
      6          6           0       -0.933269   -1.122134   -0.110816
      7          6           0       -2.054100   -0.856208   -1.089922
      8          6           0       -0.702559   -0.261547    1.107005
      9          8           0       -1.463914    0.879732    1.334897
     10          1           0        2.139598    1.671290   -0.549921
     11          1           0        0.892980    2.826749   -1.098410
     12          1           0        0.921677    2.278749    0.604802
     13          1           0        3.645693   -1.769904    0.306076
     14          1           0       -0.694188   -2.172599    0.029149
     15          1           0       -1.810001   -1.255372   -2.078950
     16          1           0       -2.974307   -1.338782   -0.745245
     17          1           0       -2.256508    0.209348   -1.204869
     18          1           0       -0.408881   -0.733681    2.038004
     19          1           0       -1.389361    1.424796    0.540572
 ---------------------------------------------------------------------

 SCF Done:  E(RB3LYP) =  -423.114202678     A.U. after    1 cycles

 The electronic state is 1-A.
 Alpha  occ. eigenvalues --  -19.16402 -19.14538 -10.25886 -10.24001 -10.23073
 Alpha  occ. eigenvalues --  -10.19720 -10.18677 -10.18115 -10.18005  -1.06080
 Alpha  occ. eigenvalues --   -1.02459  -0.85557  -0.75412  -0.71592  -0.69692
 Alpha  occ. eigenvalues --   -0.62209  -0.59129  -0.54997  -0.51623  -0.50656
 Alpha  occ. eigenvalues --   -0.47079  -0.45105  -0.44583  -0.41756  -0.40592
 Alpha  occ. eigenvalues --   -0.39065  -0.37077  -0.35970  -0.34907  -0.32387
 Alpha  occ. eigenvalues --   -0.29423  -0.28134  -0.25357  -0.22796
 Alpha virt. eigenvalues --    0.02567   0.04541   0.08436   0.10299   0.12157
 Alpha virt. eigenvalues --    0.12470   0.14457   0.14965   0.15419   0.16279
 Alpha virt. eigenvalues --    0.16541   0.17964   0.18839   0.20411   0.20881

 Mulliken charges:
               1
     1  C   -0.265399
     2  O   -0.300008
     3  C    0.143847
     4  C    0.304949
     5  C   -0.450827
     6  C   -0.134456
     7  C   -0.404181
     8  C    0.062822
     9  O   -0.429240
    10  H    0.134468
    11  H    0.130034
    12  H    0.125723
    13  H    0.195648
    14  H    0.102901
    15  H    0.126669
    16  H    0.124959
    17  H    0.122300
    18  H    0.114220
    19  H    0.295569
 Sum of Mulliken charges =   0.00000

 Dipole moment (field-independent basis, Debye):
    X=              0.9151    Y=              0.0190    Z=             -0.4905  Tot=              1.0385
 Quadrupole moment (field-independent basis, Debye-Ang):
   XX=            -50.3306   YY=            -48.3200   ZZ=            -56.7622
   XY=              0.4876   XZ=              3.1218   YZ=             -2.2262

  Exact polarizability:  98.492  -6.669  76.743   2.623  -1.542  63.023
 Approx polarizability: 144.825 -18.195 108.994   1.734  -2.165  94.777

                      1                      2                      3
                      A                      A                      A
 Frequencies --     91.6058               115.0051               128.5243
 Red. masses --      1.4089                 1.7579                 3.2599
 Frc consts  --      0.0070                 0.0137                 0.0317
 IR Inten    --      5.9471                 1.2699                 6.0953

                      4                      5                      6
                      A                      A                      A
 Frequencies --    149.2430               158.2300               184.6856
 Red. masses --      3.7983                 2.8612                 1.3799
 Frc consts  --      0.0498                 0.0422                 0.0277
 IR Inten    --      0.4979                 2.6758                 0.3270

                      7                      8                      9
                      A                      A                      A
 Frequencies --    220.9721               277.7207               330.1205
 Red. masses --      2.7309                 3.5939                 3.2736
 Frc consts  --      0.0786                 0.1633                 0.2102
 IR Inten    --      2.4439                17.2675                 4.6871

                     10                     11                     12
                      A                      A                      A
 Frequencies --    413.0142               427.7160               463.5786
 Red. masses --      1.2516                 5.5241                 3.4857
 Frc consts  --      0.1258                 0.5954                 0.4414
 IR Inten    --     81.5870                 5.6461                10.6407

                     13                     14                     15
                      A                      A                      A
 Frequencies --    554.3468               563.9703               588.0299
 Red. masses --      5.1187                 1.2791                 3.4589
 Frc consts  --      0.9268                 0.2397                 0.7047
 IR Inten    --     15.5578                44.3539                 6.2906

                     16                     17                     18
                      A                      A                      A
 Frequencies --    633.4267               681.3898               702.6379
 Red. masses --      3.3714                 1.2647                 4.0032
 Frc consts  --      0.7970                 0.3460                 1.1645
 IR Inten    --      2.1992                34.4810                 9.2528

                     19                     20                     21
                      A                      A                      A
 Frequencies --    804.5611               860.8599               963.6862
 Red. masses --      3.1850                 4.1173                 1.8261
 Frc consts  --      1.2147                 1.7977                 0.9992
 IR Inten    --     14.2189                29.2786                16.8738

                     22                     23                     24
                      A                      A                      A
 Frequencies --    998.9020              1059.4282              1089.1638
 Red. masses --      1.4970                 1.6446                 2.9493
 Frc consts  --      0.8801                 1.0876                 2.0614
 IR Inten    --      3.1832                30.7382                86.5075

                     25                     26                     27
                      A                      A                      A
 Frequencies --   1095.5993              1139.3077              1146.7581
 Red. masses --      3.4209                 1.6059                 2.6680
 Frc consts  --      2.4193                 1.2282                 2.0672
 IR Inten    --      8.3943                63.3275                21.5934

                     28                     29                     30
                      A                      A                      A
 Frequencies --   1183.2537              1195.9226              1242.9956
 Red. masses --      1.2879                 1.6868                 1.7496
 Frc consts  --      1.0624                 1.4214                 1.5927
 IR Inten    --      1.7628                 6.0651                 6.9668

                     31                     32                     33
                      A                      A                      A
 Frequencies --   1255.9217              1318.6029              1379.2693
 Red. masses --      2.1117                 1.7964                 1.4821
 Frc consts  --      1.9625                 1.8403                 1.6613
 IR Inten    --     88.3750                11.8581                22.5961

                     34                     35                     36
                      A                      A                      A
 Frequencies --   1417.1786              1448.1632              1473.7282
 Red. masses --      1.2625                 1.7577                 1.1472
 Frc consts  --      1.4939                 2.1718                 1.4679
 IR Inten    --      0.5391                49.1128                 0.0601

                     37                     38                     39
                      A                      A                      A
 Frequencies --   1485.9185              1487.8745              1501.8237
 Red. masses --      1.0485                 1.0662                 1.0887
 Frc consts  --      1.3639                 1.3907                 1.4467
 IR Inten    --      1.0506                15.0330                14.5154

                     40                     41                     42
                      A                      A                      A
 Frequencies --   1511.8530              2223.4362              3015.2889
 Red. masses --      1.0512                 6.0379                 1.0334
 Frc consts  --      1.4156                17.5867                 5.5357
 IR Inten    --      9.9375                 9.6332                41.9526

                     43                     44                     45
                      A                      A                      A
 Frequencies --   3045.4989              3083.4950              3105.2167
 Red. masses --      1.0379                 1.1029                 1.1016
 Frc consts  --      5.6717                 6.1782                 6.2585
 IR Inten    --     29.7523                25.8515                17.9430

                     46                     47                     48
                      A                      A                      A
 Frequencies --   3130.0166              3134.8431              3152.5663
 Red. masses --      1.1023                 1.0953                 1.0899
 Frc consts  --      6.3626                 6.3420                 6.3820
 IR Inten    --     20.1661                 5.2715                13.9264

                     49                     50                     51
                      A                      A                      A
 Frequencies --   3177.1128              3500.4137              3764.2739
 Red. masses --      1.0910                 1.1594                 1.0646
 Frc consts  --      6.4883                 8.3700                 8.8880
 IR Inten    --     13.6727                83.2522                34.5732

 - Thermochemistry -
 -------------------
 Temperature   298.150 Kelvin.  Pressure   1.00000 Atm.
 Atom     1 has atomic number  6 and mass  12.00000

 Molecular mass:   126.06808 amu.
 Principal axes and moments of inertia in atomic units:
                           1         2         3
     Eigenvalues --   863.019171284.276751545.52371
           X            0.99748   0.06210   0.03433
           Y           -0.06196   0.99807  -0.00520
           Z           -0.03459   0.00306   0.99940
 This molecule is an asymmetric top.
 Rotational symmetry number  1.
 Warning -- assumption of classical behavior for rotation
           may cause significant error
 Rotational temperatures (Kelvin)      0.10036     0.06744     0.05604
 Rotational constants (GHZ):           2.09119     1.40526     1.16772
 Zero-point vibrational energy     407191.8 (Joules/Mol)
                                   97.32117 (Kcal/Mol)
 Warning -- explicit consideration of  15 degrees of freedom as
           vibrations may cause significant error
 Vibrational temperatures:    131.80   165.47   184.92   214.73   227.66
          (Kelvin)            265.72   317.93   399.58   474.97   594.23
                              615.39   666.99   797.58   811.43   846.04
                              911.36   980.37  1010.94  1157.58  1238.58
                             1386.53  1437.20  1524.28  1567.06  1576.32
                             1639.21  1649.93  1702.44  1720.66  1788.39
                             1806.99  1897.17  1984.46  2039.00  2083.58
                             2120.36  2137.90  2140.72  2160.79  2175.22
                             3199.02  4338.32  4381.79  4436.46  4467.71
                             4503.39  4510.33  4535.83  4571.15  5036.31
                             5415.94

 Zero-point correction=                           0.155091 (Hartree/Particle)
 Thermal correction to Energy=                    0.165485
 Thermal correction to Enthalpy=                  0.166430
 Thermal correction to Gibbs Free Energy=         0.120029
 Sum of electronic and zero-point Energies=           -422.959112
 Sum of electronic and thermal Energies=              -422.948717
 Sum of electronic and thermal Enthalpies=            -422.947773
 Sum of electronic and thermal Free Energies=         -422.994174

                     E (Thermal)             CV                S
                      KCal/Mol        Cal/Mol-Kelvin    Cal/Mol-Kelvin
 Total                  103.844             37.689             97.659
 Electronic               0.000              0.000              0.000
 Translational            0.889              2.981             40.409
 Rotational               0.889              2.981             28.928
 Vibrational            102.066             31.727             28.322
 Vibration     1          0.602              1.955              3.625
 Vibration     2          0.608              1.937              3.183
 Vibration     3          0.611              1.925              2.968
 Vibration     4          0.618              1.903              2.682
 Vibration     5          0.621              1.893              2.571
 Vibration     6          0.631              1.861              2.281
 Vibration     7          0.648              1.809              1.951
 Vibration     8          0.679              1.715              1.548
 Vibration     9          0.713              1.615              1.259
 Vibration    10          0.777              1.442              0.916
 Vibration    11          0.789              1.410              0.866
 Vibration    12          0.821              1.331              0.756
 Vibration    13          0.910              1.130              0.535
 Vibration    14          0.920              1.109              0.516
 Vibration    15          0.945              1.057              0.471

 Optimization completed.
    -- Stationary point found.
 Normal termination of Gaussian 09 at Tue Jan 28 09:05:04 2020.
