 Gaussian 09, Revision D.01,
 Gaussian 09:  ES64L-G09RevD.01 24-Apr-2013

 -----------------------------
 # b3lyp 6-31G(2df,p) opt Freq
 -----------------------------

 -----
 titel
 -----
 Symbolic Z-matrix:
 Charge =  0 Multiplicity = 1

 SCF Done:  E(RB3LYP) =  -423.223643176     A.U. after   14 cycles
 Optimization completed.
    -- Stationary point found.
 Normal termination of Gaussian 09 at Mon Jan 27 13:10:02 2020.

 ----------------------------------------------------------------------
 #N Geom=AllCheck Guess=TCheck SCRF=Check GenChk RB3LYP/6-31G(2df,p) Fr
 eq
 ----------------------------------------------------------------------

 Structure from the checkpoint file:  "/scratch/puck/g09_dcaf0ca4-235a-4e4a-9b5a-89decb6fe0d7/Gau-38033.chk"
 -----
 titel
 -----
 Charge =  0 Multiplicity = 1

                         Standard orientation:
 ---------------------------------------------------------------------
 Center     Atomic      Atomic             Coordinates (Angstroms)
 Number     Number       Type             X           Y           Z
 ---------------------------------------------------------------------
      1          8           0       -2.359515   -1.002367    0.287759
      2          6           0       -1.338904   -0.390007    0.119970
      3          8           0       -1.400887    0.855529   -0.422608
      4          6           0       -0.199750    1.616309   -0.626984
      5          6           0        0.736589    1.527683    0.571696
      6          6           0        1.163649    0.083714    0.822156
      7          6           0        2.078088   -0.559182   -0.263088
      8          6           0        0.888270   -1.420400   -0.763701
      9          6           0        0.030182   -0.935367    0.456033
     10          1           0        0.294370    1.276971   -1.546451
     11          1           0       -0.540798    2.640401   -0.794963
     12          1           0        1.609485    2.169004    0.401628
     13          1           0        0.208124    1.921136    1.448173
     14          1           0        1.539829   -0.024918    1.841726
     15          1           0        2.509392    0.133427   -0.991833
     16          1           0        2.893316   -1.149612    0.161048
     17          1           0        0.488182   -1.107311   -1.731192
     18          1           0        1.050189   -2.498730   -0.800652
     19          1           0       -0.117605   -1.722162    1.194815
 ---------------------------------------------------------------------

 SCF Done:  E(RB3LYP) =  -423.223643176     A.U. after    1 cycles

 The electronic state is 1-A.
 Alpha  occ. eigenvalues --  -19.17368 -19.10966 -10.29577 -10.24838 -10.20355
 Alpha  occ. eigenvalues --  -10.20099 -10.19974 -10.19854 -10.19372  -1.08785
 Alpha  occ. eigenvalues --   -1.00645  -0.86286  -0.77863  -0.70443  -0.68884
 Alpha  occ. eigenvalues --   -0.62835  -0.58362  -0.53805  -0.51207  -0.49745
 Alpha  occ. eigenvalues --   -0.47461  -0.45384  -0.43677  -0.42446  -0.41122
 Alpha  occ. eigenvalues --   -0.39066  -0.38288  -0.35907  -0.34736  -0.32626
 Alpha  occ. eigenvalues --   -0.31487  -0.31410  -0.28349  -0.25114
 Alpha virt. eigenvalues --    0.01332   0.06664   0.07710   0.11110   0.11538
 Alpha virt. eigenvalues --    0.12631   0.13504   0.14022   0.15645   0.16725
 Alpha virt. eigenvalues --    0.17071   0.18177   0.18444   0.20815   0.21961

 Mulliken charges:
               1
     1  O   -0.337325
     2  C    0.404312
     3  O   -0.228164
     4  C   -0.076255
     5  C   -0.237574
     6  C   -0.016906
     7  C   -0.228188
     8  C   -0.238015
     9  C   -0.129922
    10  H    0.112992
    11  H    0.125670
    12  H    0.107511
    13  H    0.116268
    14  H    0.079388
    15  H    0.099899
    16  H    0.109460
    17  H    0.116923
    18  H    0.116600
    19  H    0.103326
 Sum of Mulliken charges =   0.00000

 Dipole moment (field-independent basis, Debye):
    X=              4.3914    Y=              1.3605    Z=             -0.1155  Tot=              4.5988
 Quadrupole moment (field-independent basis, Debye-Ang):
   XX=            -63.1506   YY=            -50.6979   ZZ=            -51.2989
   XY=             -3.0477   XZ=              0.5328   YZ=             -0.0675

  Exact polarizability:  79.837   3.009  78.938  -1.614  -1.640  64.171
 Approx polarizability: 115.879   9.237 112.581  -4.421  -5.201  98.098

                      1                      2                      3
                      A                      A                      A
 Frequencies --     86.9242               122.5260               221.9453
 Red. masses --      3.1612                 3.2645                 3.0606
 Frc consts  --      0.0141                 0.0289                 0.0888
 IR Inten    --      1.6251                 0.3300                 3.7774

                      4                      5                      6
                      A                      A                      A
 Frequencies --    249.9665               360.6143               443.9118
 Red. masses --      2.5049                 2.0916                 4.2450
 Frc consts  --      0.0922                 0.1603                 0.4929
 IR Inten    --      1.3878                 0.8201                 1.7023

                      7                      8                      9
                      A                      A                      A
 Frequencies --    447.1915               490.9806               641.6118
 Red. masses --      6.2285                 3.4996                 3.2698
 Frc consts  --      0.7339                 0.4970                 0.7931
 IR Inten    --      2.9693                 1.4045                 5.4456

                     10                     11                     12
                      A                      A                      A
 Frequencies --    705.7855               733.2812               759.8313
 Red. masses --      1.9266                 3.4628                 1.8845
 Frc consts  --      0.5655                 1.0970                 0.6410
 IR Inten    --      1.0217                 4.8419                 0.2801

                     13                     14                     15
                      A                      A                      A
 Frequencies --    772.2813               844.5298               914.7737
 Red. masses --      2.7133                 2.4503                 2.3536
 Frc consts  --      0.9534                 1.0297                 1.1604
 IR Inten    --      2.2710                 1.2426                 5.1801

                     16                     17                     18
                      A                      A                      A
 Frequencies --    920.7373               955.9413               966.6915
 Red. masses --      2.4815                 2.1542                 2.3824
 Frc consts  --      1.2395                 1.1598                 1.3117
 IR Inten    --      9.5945                 4.6355                 7.2297

                     19                     20                     21
                      A                      A                      A
 Frequencies --    976.8240              1010.2685              1059.0751
 Red. masses --      2.1806                 1.7380                 1.9510
 Frc consts  --      1.2259                 1.0452                 1.2893
 IR Inten    --      3.6549                 7.0613                18.5063

                     22                     23                     24
                      A                      A                      A
 Frequencies --   1092.8133              1110.4177              1150.9382
 Red. masses --      1.8782                 3.1513                 1.8851
 Frc consts  --      1.3216                 2.2894                 1.4712
 IR Inten    --     51.0015                57.3865                 1.6969

                     25                     26                     27
                      A                      A                      A
 Frequencies --   1177.9804              1224.9882              1234.0637
 Red. masses --      2.2010                 1.4057                 1.2259
 Frc consts  --      1.7995                 1.2428                 1.1000
 IR Inten    --     34.0445                29.2775                 8.3756

                     28                     29                     30
                      A                      A                      A
 Frequencies --   1247.9641              1263.1917              1271.9211
 Red. masses --      1.2853                 1.3744                 1.5933
 Frc consts  --      1.1794                 1.2921                 1.5187
 IR Inten    --     19.6208                 1.1450                24.5811

                     31                     32                     33
                      A                      A                      A
 Frequencies --   1288.5804              1303.9954              1316.2085
 Red. masses --      1.4242                 1.4386                 1.3913
 Frc consts  --      1.3933                 1.4412                 1.4201
 IR Inten    --     54.7056                 2.0088                 7.8825

                     34                     35                     36
                      A                      A                      A
 Frequencies --   1356.6766              1382.5876              1420.7257
 Red. masses --      1.6538                 1.4251                 1.4167
 Frc consts  --      1.7935                 1.6050                 1.6848
 IR Inten    --     11.6698                 9.7811                13.8915

                     37                     38                     39
                      A                      A                      A
 Frequencies --   1477.0313              1482.5736              1496.8790
 Red. masses --      1.0919                 1.0810                 1.1196
 Frc consts  --      1.4036                 1.4000                 1.4780
 IR Inten    --      1.6355                 3.0702                 3.2017

                     40                     41                     42
                      A                      A                      A
 Frequencies --   1518.8311              1838.3428              3026.0488
 Red. masses --      1.0893                12.1955                 1.0687
 Frc consts  --      1.4805                24.2831                 5.7658
 IR Inten    --      6.7474               337.6143                23.8961

                     43                     44                     45
                      A                      A                      A
 Frequencies --   3031.8754              3055.4108              3069.6295
 Red. masses --      1.0596                 1.0605                 1.0660
 Frc consts  --      5.7389                 5.8333                 5.9181
 IR Inten    --     21.3860                30.8807                36.3270

                     46                     47                     48
                      A                      A                      A
 Frequencies --   3074.4555              3077.8338              3102.3042
 Red. masses --      1.0894                 1.0957                 1.0981
 Frc consts  --      6.0669                 6.1155                 6.2266
 IR Inten    --     24.3517                22.3932                37.0516

                     49                     50                     51
                      A                      A                      A
 Frequencies --   3104.2319              3114.6332              3130.6002
 Red. masses --      1.1039                 1.0922                 1.1017
 Frc consts  --      6.2674                 6.2424                 6.3616
 IR Inten    --     12.1685                 3.9592                36.5883

 - Thermochemistry -
 -------------------
 Temperature   298.150 Kelvin.  Pressure   1.00000 Atm.
 Atom     1 has atomic number  8 and mass  15.99491

 Molecular mass:   126.06808 amu.
 Principal axes and moments of inertia in atomic units:
                           1         2         3
     Eigenvalues --   723.754221048.729441441.95515
           X            0.99946  -0.03292  -0.00091
           Y            0.03293   0.99941   0.00959
           Z            0.00059  -0.00961   0.99995
 This molecule is an asymmetric top.
 Rotational symmetry number  1.
 Warning -- assumption of classical behavior for rotation
           may cause significant error
 Rotational temperatures (Kelvin)      0.11967     0.08259     0.06007
 Rotational constants (GHZ):           2.49358     1.72088     1.25159
 Zero-point vibrational energy     425448.4 (Joules/Mol)
                                  101.68462 (Kcal/Mol)
 Warning -- explicit consideration of   8 degrees of freedom as
           vibrations may cause significant error
 Vibrational temperatures:    125.06   176.29   319.33   359.65   518.84
          (Kelvin)            638.69   643.41   706.41   923.14  1015.47
                             1055.03  1093.23  1111.14  1215.09  1316.15
                             1324.73  1375.38  1390.85  1405.43  1453.55
                             1523.77  1572.31  1597.64  1655.94  1694.85
                             1762.48  1775.54  1795.54  1817.45  1830.01
                             1853.98  1876.16  1893.73  1951.95  1989.23
                             2044.10  2125.12  2133.09  2153.67  2185.26
                             2644.96  4353.80  4362.19  4396.05  4416.51
                             4423.45  4428.31  4463.52  4466.29  4481.26
                             4504.23

 Zero-point correction=                           0.162045 (Hartree/Particle)
 Thermal correction to Energy=                    0.169579
 Thermal correction to Enthalpy=                  0.170523
 Thermal correction to Gibbs Free Energy=         0.129806
 Sum of electronic and zero-point Energies=           -423.061598
 Sum of electronic and thermal Energies=              -423.054064
 Sum of electronic and thermal Enthalpies=            -423.053120
 Sum of electronic and thermal Free Energies=         -423.093837

                     E (Thermal)             CV                S
                      KCal/Mol        Cal/Mol-Kelvin    Cal/Mol-Kelvin
 Total                  106.413             29.392             85.697
 Electronic               0.000              0.000              0.000
 Translational            0.889              2.981             40.409
 Rotational               0.889              2.981             28.483
 Vibrational            104.635             23.431             16.805
 Vibration     1          0.601              1.958              3.728
 Vibration     2          0.610              1.930              3.060
 Vibration     3          0.648              1.808              1.943
 Vibration     4          0.663              1.763              1.731
 Vibration     5          0.735              1.553              1.119
 Vibration     6          0.803              1.374              0.814
 Vibration     7          0.806              1.367              0.804
 Vibration     8          0.847              1.270              0.681

 Normal termination of Gaussian 09 at Mon Jan 27 13:55:10 2020.
