 Gaussian 09, Revision D.01,
 Gaussian 09:  ES64L-G09RevD.01 24-Apr-2013

 -----------------------------
 # b3lyp 6-31G(2df,p) opt Freq
 -----------------------------

 -----
 titel
 -----
 Symbolic Z-matrix:
 Charge =  0 Multiplicity = 1

 SCF Done:  E(RB3LYP) =  -423.191311827     A.U. after   14 cycles
 Optimization completed.
    -- Stationary point found.
 Normal termination of Gaussian 09 at Tue Jan 28 08:17:59 2020.

 ----------------------------------------------------------------------
 #N Geom=AllCheck Guess=TCheck SCRF=Check GenChk RB3LYP/6-31G(2df,p) Fr
 eq
 ----------------------------------------------------------------------

 Structure from the checkpoint file:  "/scratch/puck/g09_f4399498-4cfb-4ef5-9ed5-c0f749aa5769/Gau-59925.chk"
 -----
 titel
 -----
 Charge =  0 Multiplicity = 1

                         Standard orientation:
 ---------------------------------------------------------------------
 Center     Atomic      Atomic             Coordinates (Angstroms)
 Number     Number       Type             X           Y           Z
 ---------------------------------------------------------------------
      1          6           0       -3.515054   -0.348430    0.008222
      2          6           0       -2.128993   -0.733345    0.519213
      3          6           0       -1.018454    0.059445   -0.138663
      4          8           0       -1.167143    0.905142   -0.985524
      5          8           0        0.183969   -0.312798    0.356454
      6          6           0        1.344816    0.361294   -0.198039
      7          6           0        1.654654    1.613577    0.625523
      8          6           0        2.444105   -0.596727   -0.202166
      9          6           0        3.375931   -1.354258   -0.209864
     10          1           0       -3.595607   -0.514615   -1.068877
     11          1           0       -4.284473   -0.942577    0.508731
     12          1           0       -3.720613    0.709187    0.191555
     13          1           0       -2.043012   -0.587298    1.602407
     14          1           0       -1.918125   -1.796398    0.353371
     15          1           0        1.095548    0.653905   -1.222547
     16          1           0        0.813469    2.307885    0.564757
     17          1           0        1.834488    1.346573    1.669679
     18          1           0        2.547301    2.106290    0.231414
     19          1           0        4.194381   -2.031042   -0.223295
 ---------------------------------------------------------------------

 SCF Done:  E(RB3LYP) =  -423.191311827     A.U. after    1 cycles

 The electronic state is 1-A.
 Alpha  occ. eigenvalues --  -19.18257 -19.12846 -10.30689 -10.26753 -10.19949
 Alpha  occ. eigenvalues --  -10.18798 -10.18777 -10.18287 -10.17934  -1.10149
 Alpha  occ. eigenvalues --   -1.01615  -0.81221  -0.77640  -0.73288  -0.67782
 Alpha  occ. eigenvalues --   -0.63593  -0.56616  -0.53913  -0.50693  -0.48846
 Alpha  occ. eigenvalues --   -0.47896  -0.45280  -0.44303  -0.40643  -0.40012
 Alpha  occ. eigenvalues --   -0.39113  -0.37420  -0.37032  -0.35021  -0.34837
 Alpha  occ. eigenvalues --   -0.30706  -0.28745  -0.27531  -0.26554
 Alpha virt. eigenvalues --    0.01254   0.03296   0.04927   0.09451   0.11894
 Alpha virt. eigenvalues --    0.12405   0.14468   0.14503   0.15332   0.15620
 Alpha virt. eigenvalues --    0.16612   0.17575   0.19554   0.20627   0.21551

 Mulliken charges:
               1
     1  C   -0.371871
     2  C   -0.302194
     3  C    0.459152
     4  O   -0.357700
     5  O   -0.256860
     6  C   -0.055118
     7  C   -0.400903
     8  C    0.329970
     9  C   -0.445283
    10  H    0.133592
    11  H    0.113176
    12  H    0.132070
    13  H    0.133699
    14  H    0.136566
    15  H    0.140848
    16  H    0.139892
    17  H    0.134292
    18  H    0.133658
    19  H    0.203014
 Sum of Mulliken charges =   0.00000

 Dipole moment (field-independent basis, Debye):
    X=              0.4097    Y=             -0.7180    Z=              1.1531  Tot=              1.4188
 Quadrupole moment (field-independent basis, Debye-Ang):
   XX=            -47.2549   YY=            -51.8083   ZZ=            -54.7144
   XY=              1.3618   XZ=             -2.7914   YZ=              2.2433

  Exact polarizability: 104.259  -9.764  73.988  -0.157  -1.735  59.976
 Approx polarizability: 130.621 -23.646 113.203   2.538  -9.109  94.017

                      1                      2                      3
                      A                      A                      A
 Frequencies --     30.8588                48.7953                81.2751
 Red. masses --      2.1177                 5.9366                 2.8985
 Frc consts  --      0.0012                 0.0083                 0.0113
 IR Inten    --      0.3446                 1.0939                 2.0122

                      4                      5                      6
                      A                      A                      A
 Frequencies --    133.2634               178.3511               204.0516
 Red. masses --      3.4907                 3.1320                 1.2020
 Frc consts  --      0.0365                 0.0587                 0.0295
 IR Inten    --      2.1727                 0.9145                 0.5198

                      7                      8                      9
                      A                      A                      A
 Frequencies --    227.4417               254.5706               325.2921
 Red. masses --      1.6597                 1.5988                 5.5012
 Frc consts  --      0.0506                 0.0610                 0.3430
 IR Inten    --      0.5589                 1.6548                13.1836

                     10                     11                     12
                      A                      A                      A
 Frequencies --    361.6646               411.3397               540.3785
 Red. masses --      3.7829                 4.0994                 3.7375
 Frc consts  --      0.2915                 0.4087                 0.6430
 IR Inten    --      4.4198                 1.4193                 4.3101

                     13                     14                     15
                      A                      A                      A
 Frequencies --    559.1711               587.3981               624.5683
 Red. masses --      4.9908                 2.3191                 1.2101
 Frc consts  --      0.9194                 0.4715                 0.2781
 IR Inten    --      0.6590                 4.6206                44.8944

                     16                     17                     18
                      A                      A                      A
 Frequencies --    663.3464               676.7497               809.4000
 Red. masses --      4.0289                 1.2646                 1.4187
 Frc consts  --      1.0445                 0.3413                 0.5476
 IR Inten    --      4.8470                32.4157                 9.4036

                     19                     20                     21
                      A                      A                      A
 Frequencies --    833.7769               885.2103               933.2495
 Red. masses --      2.7973                 3.3882                 2.5565
 Frc consts  --      1.1458                 1.5643                 1.3119
 IR Inten    --      0.7904                15.3481                18.2247

                     22                     23                     24
                      A                      A                      A
 Frequencies --   1020.1442              1044.9819              1099.4211
 Red. masses --      1.8614                 2.8495                 2.5081
 Frc consts  --      1.1413                 1.8333                 1.7862
 IR Inten    --      1.2572                45.8789                38.7869

                     25                     26                     27
                      A                      A                      A
 Frequencies --   1107.3396              1109.6503              1138.4818
 Red. masses --      1.7275                 1.8780                 2.0081
 Frc consts  --      1.2480                 1.3624                 1.5336
 IR Inten    --      2.8053                17.6877               115.5532

                     28                     29                     30
                      A                      A                      A
 Frequencies --   1205.5093              1277.8807              1344.6611
 Red. masses --      3.3948                 1.1831                 1.4583
 Frc consts  --      2.9067                 1.1383                 1.5536
 IR Inten    --    419.7497                 0.0474                23.9345

                     31                     32                     33
                      A                      A                      A
 Frequencies --   1359.1435              1388.9598              1402.3902
 Red. masses --      1.2522                 1.8861                 1.2384
 Frc consts  --      1.3628                 2.1439                 1.4349
 IR Inten    --      7.6653                47.6208                 7.3739

                     34                     35                     36
                      A                      A                      A
 Frequencies --   1416.7342              1457.9536              1487.8607
 Red. masses --      1.2373                 1.0778                 1.0516
 Frc consts  --      1.4632                 1.3498                 1.3716
 IR Inten    --      2.8812                11.5394                 1.7803

                     37                     38                     39
                      A                      A                      A
 Frequencies --   1493.2187              1493.8850              1500.4669
 Red. masses --      1.0382                 1.0440                 1.0549
 Frc consts  --      1.3639                 1.3727                 1.3993
 IR Inten    --      5.2554                 3.6540                 9.7962

                     40                     41                     42
                      A                      A                      A
 Frequencies --   1812.9332              2245.6997              3044.1429
 Red. masses --     11.6343                 5.9004                 1.0611
 Frc consts  --     22.5295                17.5322                 5.7934
 IR Inten    --    197.8521                 1.0275                11.5339

                     43                     44                     45
                      A                      A                      A
 Frequencies --   3052.7583              3053.0437              3071.1418
 Red. masses --      1.0351                 1.0339                 1.0820
 Frc consts  --      5.6837                 5.6779                 6.0129
 IR Inten    --     23.4145                 8.4027                 6.0646

                     46                     47                     48
                      A                      A                      A
 Frequencies --   3073.5897              3124.5456              3129.6817
 Red. masses --      1.0995                 1.1020                 1.1020
 Frc consts  --      6.1200                 6.3386                 6.3599
 IR Inten    --      3.9657                21.0102                19.5325

                     49                     50                     51
                      A                      A                      A
 Frequencies --   3132.8766              3140.5561              3503.6096
 Red. masses --      1.1021                 1.1039                 1.1636
 Frc consts  --      6.3731                 6.4147                 8.4157
 IR Inten    --     16.3743                11.3528                66.2362

 - Thermochemistry -
 -------------------
 Temperature   298.150 Kelvin.  Pressure   1.00000 Atm.
 Atom     1 has atomic number  6 and mass  12.00000

 Molecular mass:   126.06808 amu.
 Principal axes and moments of inertia in atomic units:
                           1         2         3
     Eigenvalues --   496.726632211.768012451.45988
           X            0.99979   0.02023  -0.00168
           Y           -0.02016   0.99921   0.03433
           Z            0.00237  -0.03429   0.99941
 This molecule is an asymmetric top.
 Rotational symmetry number  1.
 Warning -- assumption of classical behavior for rotation
           may cause significant error
 Rotational temperatures (Kelvin)      0.17437     0.03916     0.03533
 Rotational constants (GHZ):           3.63327     0.81597     0.73619
 Zero-point vibrational energy     407348.9 (Joules/Mol)
                                   97.35872 (Kcal/Mol)
 Warning -- explicit consideration of  14 degrees of freedom as
           vibrations may cause significant error
 Vibrational temperatures:     44.40    70.21   116.94   191.74   256.61
          (Kelvin)            293.58   327.24   366.27   468.02   520.35
                              591.83   777.48   804.52   845.13   898.61
                              954.41   973.69  1164.54  1199.62  1273.62
                             1342.74  1467.76  1503.49  1581.82  1593.21
                             1596.54  1638.02  1734.46  1838.58  1934.66
                             1955.50  1998.40  2017.72  2038.36  2097.67
                             2140.70  2148.41  2149.36  2158.83  2608.40
                             3231.06  4379.84  4392.23  4392.64  4418.68
                             4422.20  4495.52  4502.91  4507.50  4518.55
                             5040.91

 Zero-point correction=                           0.155151 (Hartree/Particle)
 Thermal correction to Energy=                    0.165776
 Thermal correction to Enthalpy=                  0.166720
 Thermal correction to Gibbs Free Energy=         0.118025
 Sum of electronic and zero-point Energies=           -423.036161
 Sum of electronic and thermal Energies=              -423.025536
 Sum of electronic and thermal Enthalpies=            -423.024592
 Sum of electronic and thermal Free Energies=         -423.073287

                     E (Thermal)             CV                S
                      KCal/Mol        Cal/Mol-Kelvin    Cal/Mol-Kelvin
 Total                  104.026             37.096            102.488
 Electronic               0.000              0.000              0.000
 Translational            0.889              2.981             40.409
 Rotational               0.889              2.981             29.378
 Vibrational            102.249             31.134             32.702
 Vibration     1          0.594              1.984              5.773
 Vibration     2          0.595              1.978              4.866
 Vibration     3          0.600              1.962              3.860
 Vibration     4          0.613              1.920              2.898
 Vibration     5          0.629              1.869              2.346
 Vibration     6          0.640              1.834              2.096
 Vibration     7          0.651              1.799              1.899
 Vibration     8          0.665              1.755              1.699
 Vibration     9          0.709              1.625              1.283
 Vibration    10          0.736              1.551              1.115
 Vibration    11          0.775              1.446              0.922
 Vibration    12          0.895              1.161              0.564
 Vibration    13          0.915              1.120              0.525
 Vibration    14          0.945              1.059              0.472

 Optimization completed.
    -- Stationary point found.
 Normal termination of Gaussian 09 at Tue Jan 28 09:45:47 2020.
