 Gaussian 09, Revision D.01,
 Gaussian 09:  ES64L-G09RevD.01 24-Apr-2013

 -----------------------------
 # b3lyp 6-31G(2df,p) opt Freq
 -----------------------------

 -----
 titel
 -----
 Symbolic Z-matrix:
 Charge =  0 Multiplicity = 1

 SCF Done:  E(RB3LYP) =  -423.169570737     A.U. after   14 cycles
 Optimization completed.
    -- Stationary point found.
 Normal termination of Gaussian 09 at Mon Jan 27 22:00:14 2020.

 ----------------------------------------------------------------------
 #N Geom=AllCheck Guess=TCheck SCRF=Check GenChk RB3LYP/6-31G(2df,p) Fr
 eq
 ----------------------------------------------------------------------

 Structure from the checkpoint file:  "/scratch/puck/g09_d728405a-3485-4dfe-9361-c821bcee3ba5/Gau-192402.chk"
 -----
 titel
 -----
 Charge =  0 Multiplicity = 1

                         Standard orientation:
 ---------------------------------------------------------------------
 Center     Atomic      Atomic             Coordinates (Angstroms)
 Number     Number       Type             X           Y           Z
 ---------------------------------------------------------------------
      1          8           0       -1.885918   -1.684338    0.339604
      2          6           0       -1.352956   -0.413415    0.572898
      3          6           0       -1.271149    0.494774   -0.600193
      4          8           0       -1.646286    1.822934   -0.392242
      5          6           0        0.020332   -0.043893    0.031700
      6          6           0        0.979512    0.867765    0.809934
      7          6           0        2.405396    0.471651    0.321951
      8          6           0        2.171136   -0.746924   -0.539669
      9          6           0        0.873788   -1.016302   -0.694439
     10          1           0       -1.403571   -2.311403    0.889313
     11          1           0       -1.634813    0.057608    1.516544
     12          1           0       -1.559176    0.060720   -1.557737
     13          1           0       -1.142182    2.372888   -1.001647
     14          1           0        0.757567    1.924495    0.638404
     15          1           0        0.879552    0.701573    1.887460
     16          1           0        2.879867    1.276752   -0.255166
     17          1           0        3.083696    0.264391    1.158317
     18          1           0        2.982264   -1.309073   -0.988907
     19          1           0        0.458076   -1.828655   -1.278572
 ---------------------------------------------------------------------

 SCF Done:  E(RB3LYP) =  -423.169570737     A.U. after    1 cycles

 The electronic state is 1-A.
 Alpha  occ. eigenvalues --  -19.14672 -19.14357 -10.22924 -10.22828 -10.19027
 Alpha  occ. eigenvalues --  -10.18409 -10.18233 -10.17795 -10.17651  -1.03558
 Alpha  occ. eigenvalues --   -1.02194  -0.85904  -0.79795  -0.70895  -0.65973
 Alpha  occ. eigenvalues --   -0.59086  -0.56768  -0.54547  -0.51943  -0.50709
 Alpha  occ. eigenvalues --   -0.46040  -0.45452  -0.43106  -0.40854  -0.39370
 Alpha  occ. eigenvalues --   -0.36523  -0.36282  -0.34898  -0.33900  -0.32936
 Alpha  occ. eigenvalues --   -0.29513  -0.27894  -0.26912  -0.21057
 Alpha virt. eigenvalues --    0.02186   0.07038   0.08437   0.11030   0.12129
 Alpha virt. eigenvalues --    0.12278   0.14460   0.15369   0.16892   0.17258
 Alpha virt. eigenvalues --    0.18403   0.19696   0.21362   0.23159   0.23668

 Mulliken charges:
               1
     1  O   -0.421923
     2  C    0.008603
     3  C    0.009531
     4  O   -0.415531
     5  C    0.242363
     6  C   -0.303188
     7  C   -0.264016
     8  C   -0.086307
     9  C   -0.142877
    10  H    0.288660
    11  H    0.092809
    12  H    0.095028
    13  H    0.289796
    14  H    0.099486
    15  H    0.104440
    16  H    0.104838
    17  H    0.105344
    18  H    0.091451
    19  H    0.101494
 Sum of Mulliken charges =   0.00000

 Dipole moment (field-independent basis, Debye):
    X=              2.0222    Y=              0.0236    Z=             -0.0186  Tot=              2.0224
 Quadrupole moment (field-independent basis, Debye-Ang):
   XX=            -58.9675   YY=            -49.6307   ZZ=            -49.7954
   XY=              0.5765   XZ=             -0.0070   YZ=             -3.8692

  Exact polarizability:  96.459   0.985  74.929   0.828   3.375  63.967
 Approx polarizability: 141.820   2.506 108.856   2.546   3.289  96.559

                      1                      2                      3
                      A                      A                      A
 Frequencies --     43.9697               145.3913               189.2317
 Red. masses --      2.1978                 3.4568                 3.4910
 Frc consts  --      0.0025                 0.0431                 0.0737
 IR Inten    --      0.2112                 0.2732                 3.5283

                      4                      5                      6
                      A                      A                      A
 Frequencies --    231.9524               251.0869               295.8399
 Red. masses --      3.0316                 2.7810                 1.3733
 Frc consts  --      0.0961                 0.1033                 0.0708
 IR Inten    --      9.9492                20.1507                48.6564

                      7                      8                      9
                      A                      A                      A
 Frequencies --    342.9805               352.7033               429.1945
 Red. masses --      1.3962                 1.8406                 3.2275
 Frc consts  --      0.0968                 0.1349                 0.3503
 IR Inten    --    117.4193                69.1125                11.5375

                     10                     11                     12
                      A                      A                      A
 Frequencies --    492.4215               549.9359               597.2954
 Red. masses --      5.7443                 3.1244                 2.5464
 Frc consts  --      0.8207                 0.5567                 0.5352
 IR Inten    --      1.5907                12.1350                13.0857

                     13                     14                     15
                      A                      A                      A
 Frequencies --    746.7511               758.0609               797.2781
 Red. masses --      1.8700                 4.8117                 1.7949
 Frc consts  --      0.6144                 1.6291                 0.6722
 IR Inten    --     11.9883                 0.9402                16.2967

                     16                     17                     18
                      A                      A                      A
 Frequencies --    822.7029               854.9123               921.9807
 Red. masses --      3.9753                 1.7968                 2.8816
 Frc consts  --      1.5853                 0.7737                 1.4432
 IR Inten    --      9.0413                 3.7964                 4.8081

                     19                     20                     21
                      A                      A                      A
 Frequencies --    967.4704               980.1114               987.4408
 Red. masses --      1.3984                 2.1397                 2.0425
 Frc consts  --      0.7712                 1.2110                 1.1734
 IR Inten    --      3.3071                 6.2395                 4.9730

                     22                     23                     24
                      A                      A                      A
 Frequencies --   1015.2195              1055.0484              1058.7281
 Red. masses --      1.4747                 1.7791                 1.6223
 Frc consts  --      0.8955                 1.1668                 1.0714
 IR Inten    --     37.4466                 3.6273                 4.0856

                     25                     26                     27
                      A                      A                      A
 Frequencies --   1114.7492              1138.3079              1168.7855
 Red. masses --      1.3695                 3.2674                 2.7977
 Frc consts  --      1.0027                 2.4944                 2.2517
 IR Inten    --     26.8993               110.0403                 6.5537

                     28                     29                     30
                      A                      A                      A
 Frequencies --   1176.4011              1224.7622              1240.9993
 Red. masses --      1.2252                 1.9466                 1.3444
 Frc consts  --      0.9990                 1.7204                 1.2199
 IR Inten    --      7.9088                 9.7213                 2.3501

                     31                     32                     33
                      A                      A                      A
 Frequencies --   1260.8609              1276.9301              1292.0007
 Red. masses --      1.4431                 1.2388                 1.4778
 Frc consts  --      1.3517                 1.1901                 1.4534
 IR Inten    --      4.6912                81.4626                 2.0497

                     34                     35                     36
                      A                      A                      A
 Frequencies --   1309.5632              1320.5839              1378.3419
 Red. masses --      1.3484                 1.5569                 1.4183
 Frc consts  --      1.3625                 1.5997                 1.5876
 IR Inten    --     99.3504                 4.6517                 3.9978

                     37                     38                     39
                      A                      A                      A
 Frequencies --   1395.4900              1484.4921              1494.2367
 Red. masses --      1.7617                 1.1041                 2.3786
 Frc consts  --      2.0213                 1.4335                 3.1290
 IR Inten    --      1.9935                 0.8294                 7.4270

                     40                     41                     42
                      A                      A                      A
 Frequencies --   1506.4399              1675.1347              3014.5414
 Red. masses --      1.1181                 6.3734                 1.0647
 Frc consts  --      1.4949                10.5371                 5.7006
 IR Inten    --      1.4584                 3.1266                45.6196

                     43                     44                     45
                      A                      A                      A
 Frequencies --   3039.6656              3052.3878              3087.6004
 Red. masses --      1.0896                 1.0706                 1.0887
 Frc consts  --      5.9313                 5.8770                 6.1152
 IR Inten    --      9.5781                42.0212                20.0421

                     46                     47                     48
                      A                      A                      A
 Frequencies --   3090.0007              3106.4446              3187.6697
 Red. masses --      1.1005                 1.0867                 1.0852
 Frc consts  --      6.1907                 6.1788                 6.4970
 IR Inten    --     25.0887                29.0707                 4.6166

                     49                     50                     51
                      A                      A                      A
 Frequencies --   3214.3673              3801.4687              3802.6523
 Red. masses --      1.1028                 1.0661                 1.0662
 Frc consts  --      6.7133                 9.0771                 9.0834
 IR Inten    --     16.2797                10.2141                28.9662

 - Thermochemistry -
 -------------------
 Temperature   298.150 Kelvin.  Pressure   1.00000 Atm.
 Atom     1 has atomic number  8 and mass  15.99491

 Molecular mass:   126.06808 amu.
 Principal axes and moments of inertia in atomic units:
                           1         2         3
     Eigenvalues --   721.312061323.320771719.24295
           X            0.99990   0.01295   0.00486
           Y           -0.01303   0.99979   0.01557
           Z           -0.00465  -0.01563   0.99987
 This molecule is an asymmetric top.
 Rotational symmetry number  1.
 Warning -- assumption of classical behavior for rotation
           may cause significant error
 Rotational temperatures (Kelvin)      0.12008     0.06545     0.05038
 Rotational constants (GHZ):           2.50203     1.36380     1.04973
 Zero-point vibrational energy     417153.3 (Joules/Mol)
                                   99.70203 (Kcal/Mol)
 Warning -- explicit consideration of  12 degrees of freedom as
           vibrations may cause significant error
 Vibrational temperatures:     63.26   209.19   272.26   333.73   361.26
          (Kelvin)            425.65   493.47   507.46   617.51   708.48
                              791.23   859.37  1074.41  1090.68  1147.10
                             1183.68  1230.03  1326.52  1391.97  1410.16
                             1420.71  1460.67  1517.98  1523.27  1603.87
                             1637.77  1681.62  1692.58  1762.16  1785.52
                             1814.10  1837.22  1858.90  1884.17  1900.02
                             1983.12  2007.80  2135.85  2149.87  2167.43
                             2410.14  4337.25  4373.40  4391.70  4442.36
                             4445.82  4469.48  4586.34  4624.75  5469.46
                             5471.16

 Zero-point correction=                           0.158885 (Hartree/Particle)
 Thermal correction to Energy=                    0.167676
 Thermal correction to Enthalpy=                  0.168620
 Thermal correction to Gibbs Free Energy=         0.125153
 Sum of electronic and zero-point Energies=           -423.010685
 Sum of electronic and thermal Energies=              -423.001895
 Sum of electronic and thermal Enthalpies=            -423.000950
 Sum of electronic and thermal Free Energies=         -423.044418

                     E (Thermal)             CV                S
                      KCal/Mol        Cal/Mol-Kelvin    Cal/Mol-Kelvin
 Total                  105.218             33.507             91.485
 Electronic               0.000              0.000              0.000
 Translational            0.889              2.981             40.409
 Rotational               0.889              2.981             28.886
 Vibrational            103.441             27.545             22.190
 Vibration     1          0.595              1.980              5.072
 Vibration     2          0.617              1.908              2.732
 Vibration     3          0.633              1.855              2.235
 Vibration     4          0.653              1.792              1.864
 Vibration     5          0.663              1.761              1.723
 Vibration     6          0.690              1.681              1.440
 Vibration     7          0.722              1.590              1.198
 Vibration     8          0.729              1.570              1.154
 Vibration     9          0.791              1.407              0.861
 Vibration    10          0.848              1.267              0.677
 Vibration    11          0.905              1.140              0.544
 Vibration    12          0.955              1.038              0.454

 Optimization completed.
    -- Stationary point found.
 Normal termination of Gaussian 09 at Mon Jan 27 22:40:17 2020.
