 Gaussian 09, Revision D.01,
 Gaussian 09:  ES64L-G09RevD.01 24-Apr-2013

 -----------------------------
 # b3lyp 6-31G(2df,p) opt Freq
 -----------------------------

 -----
 titel
 -----
 Symbolic Z-matrix:
 Charge =  0 Multiplicity = 1

 SCF Done:  E(RB3LYP) =  -423.153216481     A.U. after   14 cycles
 Optimization completed.
    -- Stationary point found.
 Normal termination of Gaussian 09 at Tue Jan 28 12:07:56 2020.

 ----------------------------------------------------------------------
 #N Geom=AllCheck Guess=TCheck SCRF=Check GenChk RB3LYP/6-31G(2df,p) Fr
 eq
 ----------------------------------------------------------------------

 Structure from the checkpoint file:  "/scratch/puck/g09_d8b3417b-9dbd-42d0-9eea-eed8e1558fea/Gau-138511.chk"
 -----
 titel
 -----
 Charge =  0 Multiplicity = 1

                         Standard orientation:
 ---------------------------------------------------------------------
 Center     Atomic      Atomic             Coordinates (Angstroms)
 Number     Number       Type             X           Y           Z
 ---------------------------------------------------------------------
      1          6           0        0.841503    2.485256    0.350474
      2          6           0        0.456897    1.412293   -0.677191
      3          6           0       -0.403624    0.328182   -0.092566
      4          6           0       -1.891539    0.455258    0.256772
      5          8           0       -2.138825   -0.924169   -0.144937
      6          6           0       -0.780453   -1.047245   -0.520525
      7          6           0        0.124297   -0.880817    0.711892
      8          6           0        1.521357   -1.311170    0.525172
      9          8           0        2.155740   -1.198848   -0.503405
     10          1           0        1.451612    3.266149   -0.112558
     11          1           0       -0.043112    2.966603    0.782265
     12          1           0        1.419100    2.052163    1.173651
     13          1           0       -0.088950    1.876186   -1.509039
     14          1           0        1.355378    0.959426   -1.103232
     15          1           0       -2.172484    0.642028    1.298764
     16          1           0       -2.423693    1.145221   -0.407195
     17          1           0       -0.500762   -1.675337   -1.357783
     18          1           0       -0.316394   -1.099898    1.681031
     19          1           0        1.973362   -1.798955    1.416668
 ---------------------------------------------------------------------

 SCF Done:  E(RB3LYP) =  -423.153216481     A.U. after    1 cycles

 The electronic state is 1-A.
 Alpha  occ. eigenvalues --  -19.15377 -19.13411 -10.27115 -10.25633 -10.24730
 Alpha  occ. eigenvalues --  -10.21899 -10.20561 -10.19081 -10.18157  -1.07003
 Alpha  occ. eigenvalues --   -1.04034  -0.85513  -0.77115  -0.71255  -0.67541
 Alpha  occ. eigenvalues --   -0.63352  -0.56986  -0.54435  -0.51278  -0.48784
 Alpha  occ. eigenvalues --   -0.47290  -0.45054  -0.44137  -0.41945  -0.40910
 Alpha  occ. eigenvalues --   -0.39940  -0.38823  -0.38096  -0.35400  -0.33658
 Alpha  occ. eigenvalues --   -0.32563  -0.28507  -0.25817  -0.24131
 Alpha virt. eigenvalues --   -0.02793   0.06441   0.09322   0.10500   0.11983
 Alpha virt. eigenvalues --    0.13180   0.14160   0.14996   0.15083   0.15884
 Alpha virt. eigenvalues --    0.16280   0.18268   0.19006   0.19310   0.21570

 Mulliken charges:
               1
     1  C   -0.377681
     2  C   -0.307098
     3  C    0.265732
     4  C   -0.135093
     5  O   -0.289360
     6  C    0.062091
     7  C   -0.204039
     8  C    0.123878
     9  O   -0.283446
    10  H    0.119060
    11  H    0.113725
    12  H    0.121014
    13  H    0.100910
    14  H    0.146182
    15  H    0.113782
    16  H    0.119933
    17  H    0.132900
    18  H    0.095690
    19  H    0.081819
 Sum of Mulliken charges =   0.00000

 Dipole moment (field-independent basis, Debye):
    X=             -0.8864    Y=              1.5148    Z=              1.3224  Tot=              2.1975
 Quadrupole moment (field-independent basis, Debye-Ang):
   XX=            -61.0349   YY=            -52.3478   ZZ=            -51.4548
   XY=             -1.5337   XZ=              2.4715   YZ=             -1.9042

  Exact polarizability:  85.367  -6.684  77.902   0.886  -2.896  68.701
 Approx polarizability: 128.363  -8.486 107.498  -2.265  -2.814 110.124

                      1                      2                      3
                      A                      A                      A
 Frequencies --     66.5254               120.7934               170.7369
 Red. masses --      2.7607                 3.7710                 3.0364
 Frc consts  --      0.0072                 0.0324                 0.0522
 IR Inten    --      0.3431                 9.0945                 1.6292

                      4                      5                      6
                      A                      A                      A
 Frequencies --    195.3024               204.5499               233.1940
 Red. masses --      3.0572                 1.6326                 1.6982
 Frc consts  --      0.0687                 0.0402                 0.0544
 IR Inten    --      6.6982                 3.2176                 4.8076

                      7                      8                      9
                      A                      A                      A
 Frequencies --    310.3697               353.3377               377.6438
 Red. masses --      2.6456                 2.7573                 3.2473
 Frc consts  --      0.1502                 0.2028                 0.2729
 IR Inten    --      2.9219                 2.1554                 3.3079

                     10                     11                     12
                      A                      A                      A
 Frequencies --    436.2968               637.5134               716.3932
 Red. masses --      3.0023                 3.5498                 4.3460
 Frc consts  --      0.3367                 0.8500                 1.3142
 IR Inten    --      2.8119                 5.5151                 3.9061

                     13                     14                     15
                      A                      A                      A
 Frequencies --    721.5505               793.0861               885.3372
 Red. masses --      3.2806                 1.2379                 3.4478
 Frc consts  --      1.0063                 0.4588                 1.5922
 IR Inten    --      5.4475                 4.5266                40.5254

                     16                     17                     18
                      A                      A                      A
 Frequencies --    922.7343               934.3174               974.1649
 Red. masses --      2.8775                 1.9265                 3.2081
 Frc consts  --      1.4435                 0.9908                 1.7937
 IR Inten    --     49.3487                39.4979                65.1113

                     19                     20                     21
                      A                      A                      A
 Frequencies --    985.5606              1000.9756              1029.4874
 Red. masses --      2.0044                 1.7874                 1.7098
 Frc consts  --      1.1471                 1.0552                 1.0677
 IR Inten    --      7.4106                 8.7526                 3.8002

                     22                     23                     24
                      A                      A                      A
 Frequencies --   1043.9989              1051.6980              1076.6459
 Red. masses --      1.9404                 2.0757                 1.9298
 Frc consts  --      1.2461                 1.3527                 1.3180
 IR Inten    --      1.3828                66.2029                 1.1998

                     25                     26                     27
                      A                      A                      A
 Frequencies --   1081.0457              1123.8168              1153.1273
 Red. masses --      1.8518                 1.9317                 1.2444
 Frc consts  --      1.2750                 1.4374                 0.9749
 IR Inten    --     29.7755                 2.7911                 6.3845

                     28                     29                     30
                      A                      A                      A
 Frequencies --   1204.1378              1241.3115              1289.8038
 Red. masses --      1.8942                 1.5544                 1.5529
 Frc consts  --      1.6182                 1.4112                 1.5221
 IR Inten    --      1.7896                14.4925                 2.4129

                     31                     32                     33
                      A                      A                      A
 Frequencies --   1312.2257              1348.3652              1363.8139
 Red. masses --      1.2402                 1.6379                 1.5563
 Frc consts  --      1.2582                 1.7545                 1.7055
 IR Inten    --      6.4547                25.1952                29.9118

                     34                     35                     36
                      A                      A                      A
 Frequencies --   1412.4800              1428.4007              1449.5086
 Red. masses --      1.2421                 1.3706                 2.8354
 Frc consts  --      1.4600                 1.6477                 3.5101
 IR Inten    --      3.2046                23.7801                20.9990

                     37                     38                     39
                      A                      A                      A
 Frequencies --   1487.5503              1500.3252              1505.3092
 Red. masses --      1.0620                 1.0398                 1.1066
 Frc consts  --      1.3846                 1.3790                 1.4773
 IR Inten    --      4.8961                 4.7600                 3.1797

                     40                     41                     42
                      A                      A                      A
 Frequencies --   1509.3312              1782.5769              2887.1678
 Red. masses --      1.0980                 9.0702                 1.0829
 Frc consts  --      1.4737                16.9811                 5.3186
 IR Inten    --      2.1727               156.0485               139.3196

                     43                     44                     45
                      A                      A                      A
 Frequencies --   3025.7360              3032.4883              3033.9015
 Red. masses --      1.0678                 1.0466                 1.0460
 Frc consts  --      5.7596                 5.6708                 5.6725
 IR Inten    --     17.7039                20.7401                57.3340

                     46                     47                     48
                      A                      A                      A
 Frequencies --   3087.5285              3090.0583              3110.6878
 Red. masses --      1.1113                 1.0964                 1.1018
 Frc consts  --      6.2417                 6.1684                 6.2818
 IR Inten    --     27.1842                11.9630                28.6232

                     49                     50                     51
                      A                      A                      A
 Frequencies --   3112.4219              3145.2941              3195.3694
 Red. masses --      1.0958                 1.0896                 1.0940
 Frc consts  --      6.2545                 6.3510                 6.5812
 IR Inten    --     19.3009                11.1074                 6.1294

 - Thermochemistry -
 -------------------
 Temperature   298.150 Kelvin.  Pressure   1.00000 Atm.
 Atom     1 has atomic number  6 and mass  12.00000

 Molecular mass:   126.06808 amu.
 Principal axes and moments of inertia in atomic units:
                           1         2         3
     Eigenvalues --   918.909781066.840441707.22741
           X            0.99863   0.05212   0.00543
           Y           -0.05208   0.99862  -0.00634
           Z           -0.00576   0.00605   0.99997
 This molecule is an asymmetric top.
 Rotational symmetry number  1.
 Warning -- assumption of classical behavior for rotation
           may cause significant error
 Rotational temperatures (Kelvin)      0.09426     0.08119     0.05073
 Rotational constants (GHZ):           1.96400     1.69167     1.05712
 Zero-point vibrational energy     413644.7 (Joules/Mol)
                                   98.86346 (Kcal/Mol)
 Warning -- explicit consideration of  10 degrees of freedom as
           vibrations may cause significant error
 Vibrational temperatures:     95.72   173.79   245.65   281.00   294.30
          (Kelvin)            335.51   446.55   508.37   543.34   627.73
                              917.24  1030.73  1038.15  1141.07  1273.80
                             1327.61  1344.27  1401.60  1418.00  1440.18
                             1481.20  1502.08  1513.16  1549.05  1555.38
                             1616.92  1659.09  1732.48  1785.97  1855.74
                             1888.00  1939.99  1962.22  2032.24  2055.15
                             2085.52  2140.25  2158.63  2165.80  2171.59
                             2564.73  4153.99  4353.35  4363.07  4365.10
                             4442.26  4445.90  4475.58  4478.08  4525.37
                             4597.42

 Zero-point correction=                           0.157549 (Hartree/Particle)
 Thermal correction to Energy=                    0.166495
 Thermal correction to Enthalpy=                  0.167439
 Thermal correction to Gibbs Free Energy=         0.123623
 Sum of electronic and zero-point Energies=           -422.995668
 Sum of electronic and thermal Energies=              -422.986721
 Sum of electronic and thermal Enthalpies=            -422.985777
 Sum of electronic and thermal Free Energies=         -423.029594

                     E (Thermal)             CV                S
                      KCal/Mol        Cal/Mol-Kelvin    Cal/Mol-Kelvin
 Total                  104.477             32.800             92.220
 Electronic               0.000              0.000              0.000
 Translational            0.889              2.981             40.409
 Rotational               0.889              2.981             28.905
 Vibrational            102.700             26.838             22.906
 Vibration     1          0.598              1.970              4.254
 Vibration     2          0.609              1.932              3.088
 Vibration     3          0.626              1.879              2.427
 Vibration     4          0.636              1.846              2.177
 Vibration     5          0.640              1.833              2.092
 Vibration     6          0.654              1.790              1.854
 Vibration     7          0.699              1.654              1.360
 Vibration     8          0.730              1.568              1.151
 Vibration     9          0.748              1.518              1.049
 Vibration    10          0.797              1.391              0.838

 Normal termination of Gaussian 09 at Tue Jan 28 12:48:28 2020.
