 Gaussian 09, Revision D.01,
 Gaussian 09:  ES64L-G09RevD.01 24-Apr-2013

 -----------------------------
 # b3lyp 6-31G(2df,p) opt Freq
 -----------------------------

 -----
 titel
 -----
 Symbolic Z-matrix:
 Charge =  0 Multiplicity = 1

 SCF Done:  E(RB3LYP) =  -423.152737793     A.U. after   13 cycles
 Optimization completed.
    -- Stationary point found.
 Normal termination of Gaussian 09 at Tue Jan 28 11:48:42 2020.

 ----------------------------------------------------------------------
 #N Geom=AllCheck Guess=TCheck SCRF=Check GenChk RB3LYP/6-31G(2df,p) Fr
 eq
 ----------------------------------------------------------------------

 Structure from the checkpoint file:  "/scratch/puck/g09_f1ce0d92-b40e-4e8c-ad6e-77335bc5bfe4/Gau-89669.chk"
 -----
 titel
 -----
 Charge =  0 Multiplicity = 1

                         Standard orientation:
 ---------------------------------------------------------------------
 Center     Atomic      Atomic             Coordinates (Angstroms)
 Number     Number       Type             X           Y           Z
 ---------------------------------------------------------------------
      1          6           0        2.610155   -1.348651   -0.145638
      2          8           0        2.015019   -0.096684   -0.439811
      3          6           0        1.092913    0.327590    0.530724
      4          6           0        0.585081    1.723688    0.114438
      5          6           0       -0.900597    1.499471   -0.231840
      6          6           0       -0.983701   -0.036029   -0.373657
      7          8           0       -0.040378   -0.517947    0.595011
      8          6           0       -2.299094   -0.603180   -0.120967
      9          6           0       -3.400490   -1.046905    0.060205
     10          1           0        1.861356   -2.146482   -0.084508
     11          1           0        3.310668   -1.567094   -0.954503
     12          1           0        3.162791   -1.312574    0.805610
     13          1           0        1.553266    0.283237    1.527616
     14          1           0        0.712970    2.449257    0.919839
     15          1           0        1.166769    2.062208   -0.744856
     16          1           0       -1.552268    1.817083    0.585433
     17          1           0       -1.217542    2.013032   -1.141605
     18          1           0       -0.650286   -0.331133   -1.379875
     19          1           0       -4.370450   -1.446388    0.225662
 ---------------------------------------------------------------------

 SCF Done:  E(RB3LYP) =  -423.152737793     A.U. after    1 cycles

 The electronic state is 1-A.
 Alpha  occ. eigenvalues --  -19.14494 -19.14333 -10.27487 -10.25440 -10.22105
 Alpha  occ. eigenvalues --  -10.19160 -10.18707 -10.18233 -10.17704  -1.07053
 Alpha  occ. eigenvalues --   -1.00991  -0.79388  -0.77331  -0.72186  -0.67863
 Alpha  occ. eigenvalues --   -0.61117  -0.59412  -0.53983  -0.51022  -0.49899
 Alpha  occ. eigenvalues --   -0.49272  -0.45621  -0.44583  -0.42235  -0.40804
 Alpha  occ. eigenvalues --   -0.37535  -0.35723  -0.35503  -0.34589  -0.31251
 Alpha  occ. eigenvalues --   -0.28335  -0.27734  -0.26524  -0.25987
 Alpha virt. eigenvalues --    0.03555   0.05404   0.09364   0.10497   0.11522
 Alpha virt. eigenvalues --    0.12680   0.14024   0.15496   0.15960   0.16558
 Alpha virt. eigenvalues --    0.17166   0.18026   0.19150   0.20369   0.20917

 Mulliken charges:
               1
     1  C   -0.244404
     2  O   -0.243921
     3  C    0.228632
     4  C   -0.275614
     5  C   -0.226628
     6  C   -0.042525
     7  O   -0.265108
     8  C    0.292089
     9  C   -0.431577
    10  H    0.128592
    11  H    0.125286
    12  H    0.105529
    13  H    0.073058
    14  H    0.113014
    15  H    0.125541
    16  H    0.119166
    17  H    0.113947
    18  H    0.107181
    19  H    0.197742
 Sum of Mulliken charges =   0.00000

 Dipole moment (field-independent basis, Debye):
    X=              0.1607    Y=              0.6976    Z=             -0.0236  Tot=              0.7162
 Quadrupole moment (field-independent basis, Debye-Ang):
   XX=            -48.2279   YY=            -51.1225   ZZ=            -53.3578
   XY=             -0.9083   XZ=              1.3806   YZ=              1.0216

  Exact polarizability: 102.371   6.410  72.777  -0.924   0.301  60.104
 Approx polarizability: 137.553  14.984 100.139  -5.113  -2.452  93.123

                      1                      2                      3
                      A                      A                      A
 Frequencies --     59.1373                93.2672               121.8683
 Red. masses --      2.9812                 2.9644                 2.4281
 Frc consts  --      0.0061                 0.0152                 0.0212
 IR Inten    --      1.1744                 0.2039                 2.3100

                      4                      5                      6
                      A                      A                      A
 Frequencies --    159.3795               193.4066               254.4610
 Red. masses --      2.2278                 1.5383                 3.4848
 Frc consts  --      0.0333                 0.0339                 0.1329
 IR Inten    --      2.2584                 4.3286                 3.3565

                      7                      8                      9
                      A                      A                      A
 Frequencies --    284.6534               423.8997               475.9383
 Red. masses --      2.8790                 3.8404                 6.2301
 Frc consts  --      0.1374                 0.4066                 0.8315
 IR Inten    --      3.1345                 0.6679                 2.6677

                     10                     11                     12
                      A                      A                      A
 Frequencies --    505.8002               573.6756               605.9072
 Red. masses --      5.3726                 2.6202                 5.2085
 Frc consts  --      0.8098                 0.5081                 1.1266
 IR Inten    --      1.0895                 1.7008                 3.1681

                     13                     14                     15
                      A                      A                      A
 Frequencies --    620.1607               669.1622               751.1975
 Red. masses --      1.2341                 1.2464                 2.6204
 Frc consts  --      0.2797                 0.3288                 0.8712
 IR Inten    --     47.9067                33.7433                 3.7029

                     16                     17                     18
                      A                      A                      A
 Frequencies --    824.1416               863.9929               916.2503
 Red. masses --      2.6820                 2.7272                 2.0527
 Frc consts  --      1.0733                 1.1994                 1.0153
 IR Inten    --      0.9640                16.8528                14.7029

                     19                     20                     21
                      A                      A                      A
 Frequencies --    966.9815               984.6103              1032.1868
 Red. masses --      3.3179                 3.4956                 3.3092
 Frc consts  --      1.8279                 1.9966                 2.0773
 IR Inten    --     36.1538                61.0972                10.0113

                     22                     23                     24
                      A                      A                      A
 Frequencies --   1048.7814              1064.7242              1107.9138
 Red. masses --      2.8986                 4.1425                 2.4199
 Frc consts  --      1.8785                 2.7669                 1.7501
 IR Inten    --    102.7253               197.2984                16.6003

                     25                     26                     27
                      A                      A                      A
 Frequencies --   1131.7922              1179.9248              1182.5384
 Red. masses --      5.0353                 1.2896                 1.3093
 Frc consts  --      3.8003                 1.0578                 1.0787
 IR Inten    --    115.7577                 1.4639                 5.2465

                     28                     29                     30
                      A                      A                      A
 Frequencies --   1220.3826              1243.0297              1293.3982
 Red. masses --      1.4195                 1.4811                 1.2346
 Frc consts  --      1.2456                 1.3484                 1.2169
 IR Inten    --     24.9797                19.6021                13.4441

                     31                     32                     33
                      A                      A                      A
 Frequencies --   1311.6940              1338.9486              1361.7543
 Red. masses --      1.3170                 1.1989                 1.5280
 Frc consts  --      1.3351                 1.2664                 1.6694
 IR Inten    --      0.4236                 6.7571                18.8442

                     34                     35                     36
                      A                      A                      A
 Frequencies --   1378.8226              1396.3127              1475.9152
 Red. masses --      1.4881                 1.2010                 1.1564
 Frc consts  --      1.6668                 1.3796                 1.4842
 IR Inten    --     27.5577                22.4337                 1.1997

                     37                     38                     39
                      A                      A                      A
 Frequencies --   1482.6328              1484.1798              1501.0228
 Red. masses --      1.0799                 1.0547                 1.1033
 Frc consts  --      1.3986                 1.3688                 1.4646
 IR Inten    --      1.9698                 2.8898                 8.2176

                     40                     41                     42
                      A                      A                      A
 Frequencies --   1514.7540              2245.4405              2990.2273
 Red. masses --      1.0559                 5.9199                 1.0553
 Frc consts  --      1.4275                17.5859                 5.5596
 IR Inten    --      4.8150                 0.5795                34.2859

                     43                     44                     45
                      A                      A                      A
 Frequencies --   2990.8123              3011.2770              3067.0470
 Red. masses --      1.0702                 1.0848                 1.0914
 Frc consts  --      5.6402                 5.7958                 6.0488
 IR Inten    --     35.9105                62.9227                33.1608

                     46                     47                     48
                      A                      A                      A
 Frequencies --   3073.0003              3083.3978              3118.7962
 Red. masses --      1.0595                 1.0611                 1.1060
 Frc consts  --      5.8949                 5.9439                 6.3385
 IR Inten    --     17.1807                20.7830                 4.5175

                     49                     50                     51
                      A                      A                      A
 Frequencies --   3125.4557              3137.0033              3504.2759
 Red. masses --      1.1012                 1.1062                 1.1632
 Frc consts  --      6.3377                 6.4135                 8.4161
 IR Inten    --     25.4320                23.5056                66.6622

 - Thermochemistry -
 -------------------
 Temperature   298.150 Kelvin.  Pressure   1.00000 Atm.
 Atom     1 has atomic number  6 and mass  12.00000

 Molecular mass:   126.06808 amu.
 Principal axes and moments of inertia in atomic units:
                           1         2         3
     Eigenvalues --   573.044981661.781182063.06477
           X            0.99970  -0.02419   0.00411
           Y            0.02417   0.99969   0.00556
           Z           -0.00425  -0.00545   0.99998
 This molecule is an asymmetric top.
 Rotational symmetry number  1.
 Warning -- assumption of classical behavior for rotation
           may cause significant error
 Rotational temperatures (Kelvin)      0.15115     0.05212     0.04198
 Rotational constants (GHZ):           3.14939     1.08603     0.87479
 Zero-point vibrational energy     415375.3 (Joules/Mol)
                                   99.27709 (Kcal/Mol)
 Warning -- explicit consideration of  13 degrees of freedom as
           vibrations may cause significant error
 Vibrational temperatures:     85.09   134.19   175.34   229.31   278.27
          (Kelvin)            366.11   409.55   609.90   684.77   727.73
                              825.39   871.76   892.27   962.77  1080.80
                             1185.75  1243.09  1318.28  1391.27  1416.63
                             1485.08  1508.96  1531.90  1594.04  1628.39
                             1697.65  1701.41  1755.86  1788.44  1860.91
                             1887.23  1926.45  1959.26  1983.82  2008.98
                             2123.51  2133.18  2135.40  2159.63  2179.39
                             3230.68  4302.26  4303.11  4332.55  4412.79
                             4421.36  4436.32  4487.25  4496.83  4513.44
                             5041.87

 Zero-point correction=                           0.158208 (Hartree/Particle)
 Thermal correction to Energy=                    0.167416
 Thermal correction to Enthalpy=                  0.168360
 Thermal correction to Gibbs Free Energy=         0.123621
 Sum of electronic and zero-point Energies=           -422.994530
 Sum of electronic and thermal Energies=              -422.985322
 Sum of electronic and thermal Enthalpies=            -422.984378
 Sum of electronic and thermal Free Energies=         -423.029117

                     E (Thermal)             CV                S
                      KCal/Mol        Cal/Mol-Kelvin    Cal/Mol-Kelvin
 Total                  105.055             33.620             94.162
 Electronic               0.000              0.000              0.000
 Translational            0.889              2.981             40.409
 Rotational               0.889              2.981             29.065
 Vibrational            103.278             27.658             24.689
 Vibration     1          0.597              1.974              4.486
 Vibration     2          0.602              1.954              3.590
 Vibration     3          0.609              1.931              3.071
 Vibration     4          0.621              1.892              2.557
 Vibration     5          0.635              1.849              2.195
 Vibration     6          0.665              1.755              1.699
 Vibration     7          0.683              1.702              1.506
 Vibration     8          0.786              1.418              0.879
 Vibration     9          0.833              1.303              0.721
 Vibration    10          0.861              1.237              0.644
 Vibration    11          0.930              1.088              0.497
 Vibration    12          0.965              1.019              0.440
 Vibration    13          0.980              0.989              0.416

 Optimization completed.
    -- Stationary point found.
 Normal termination of Gaussian 09 at Tue Jan 28 13:19:28 2020.
