 Gaussian 09, Revision D.01,
 Gaussian 09:  ES64L-G09RevD.01 24-Apr-2013

 -----------------------------
 # b3lyp 6-31G(2df,p) opt Freq
 -----------------------------

 -----
 titel
 -----
 Symbolic Z-matrix:
 Charge =  0 Multiplicity = 1

 SCF Done:  E(RB3LYP) =  -423.090043445     A.U. after   13 cycles
 Optimization completed.
    -- Stationary point found.
 Normal termination of Gaussian 09 at Tue Jan 28 14:09:04 2020.

 ----------------------------------------------------------------------
 #N Geom=AllCheck Guess=TCheck SCRF=Check GenChk RB3LYP/6-31G(2df,p) Fr
 eq
 ----------------------------------------------------------------------

 Structure from the checkpoint file:  "/scratch/puck/g09_0acdba16-e8b5-486d-bfcc-43c6594615e5/Gau-3961.chk"
 -----
 titel
 -----
 Charge =  0 Multiplicity = 1

                         Standard orientation:
 ---------------------------------------------------------------------
 Center     Atomic      Atomic             Coordinates (Angstroms)
 Number     Number       Type             X           Y           Z
 ---------------------------------------------------------------------
      1          6           0        3.457902   -0.242073   -0.162978
      2          6           0        2.078342   -0.226583    0.469713
      3          8           0        1.134116    0.158879   -0.530519
      4          6           0       -0.160427    0.197625   -0.078102
      5          6           0       -0.744980    1.303262    0.758897
      6          6           0       -1.304569    1.018611   -0.625397
      7          6           0       -2.189582   -0.268750   -0.620798
      8          8           0       -2.255222   -0.811064    0.710118
      9          6           0       -1.095790   -1.071899   -0.091169
     10          1           0        4.211171   -0.530906    0.576000
     11          1           0        3.494030   -0.954063   -0.992378
     12          1           0        3.713189    0.748172   -0.550862
     13          1           0        1.819226   -1.219635    0.867026
     14          1           0        2.034659    0.482581    1.308973
     15          1           0       -1.332111    1.103489    1.646370
     16          1           0       -0.121713    2.191680    0.791947
     17          1           0       -1.296347    1.746420   -1.425008
     18          1           0       -2.997911   -0.510495   -1.299659
     19          1           0       -0.800725   -2.100922   -0.260189
 ---------------------------------------------------------------------

 SCF Done:  E(RB3LYP) =  -423.090043445     A.U. after    1 cycles

 The electronic state is 1-A.
 Alpha  occ. eigenvalues --  -19.15384 -19.15133 -10.24100 -10.23953 -10.23623
 Alpha  occ. eigenvalues --  -10.23188 -10.19313 -10.18622 -10.17892  -1.07982
 Alpha  occ. eigenvalues --   -1.04436  -0.86425  -0.75590  -0.69350  -0.64557
 Alpha  occ. eigenvalues --   -0.62294  -0.56930  -0.54608  -0.54046  -0.49186
 Alpha  occ. eigenvalues --   -0.47178  -0.46223  -0.42833  -0.40586  -0.39706
 Alpha  occ. eigenvalues --   -0.38347  -0.37612  -0.36439  -0.35181  -0.33305
 Alpha  occ. eigenvalues --   -0.31381  -0.27115  -0.24708  -0.23004
 Alpha virt. eigenvalues --    0.06376   0.09266   0.09828   0.11087   0.12864
 Alpha virt. eigenvalues --    0.14030   0.14360   0.15474   0.16051   0.16714
 Alpha virt. eigenvalues --    0.17249   0.17632   0.19150   0.19461   0.20400

 Mulliken charges:
               1
     1  C   -0.388189
     2  C   -0.060836
     3  O   -0.286318
     4  C    0.415293
     5  C   -0.347038
     6  C   -0.200141
     7  C    0.027072
     8  O   -0.236784
     9  C   -0.063215
    10  H    0.117368
    11  H    0.127546
    12  H    0.128115
    13  H    0.094910
    14  H    0.098898
    15  H    0.134812
    16  H    0.115796
    17  H    0.103986
    18  H    0.110073
    19  H    0.108653
 Sum of Mulliken charges =   0.00000

 Dipole moment (field-independent basis, Debye):
    X=              1.1420    Y=              0.0078    Z=             -0.5119  Tot=              1.2515
 Quadrupole moment (field-independent basis, Debye-Ang):
   XX=            -52.8555   YY=            -50.9834   ZZ=            -53.6888
   XY=             -1.6178   XZ=              5.8547   YZ=              1.0780

  Exact polarizability:  89.485  -1.308  72.024   4.523   0.413  64.835
 Approx polarizability: 115.087  -3.512 106.308   3.908  -2.558 103.912

                      1                      2                      3
                      A                      A                      A
 Frequencies --     58.5664                89.0721               131.6115
 Red. masses --      2.6812                 2.1290                 3.6651
 Frc consts  --      0.0054                 0.0100                 0.0374
 IR Inten    --      0.0023                 1.8814                 1.8532

                      4                      5                      6
                      A                      A                      A
 Frequencies --    244.4679               310.3137               330.6561
 Red. masses --      1.1550                 3.2979                 4.0650
 Frc consts  --      0.0407                 0.1871                 0.2619
 IR Inten    --      0.0225                 3.1234                 3.6771

                      7                      8                      9
                      A                      A                      A
 Frequencies --    363.0372               412.6134               461.6498
 Red. masses --      4.3665                 3.0792                 2.9101
 Frc consts  --      0.3391                 0.3089                 0.3654
 IR Inten    --     10.4363                 1.8571                 0.6388

                     10                     11                     12
                      A                      A                      A
 Frequencies --    565.7685               685.2414               746.0056
 Red. masses --      3.4064                 3.3505                 2.9306
 Frc consts  --      0.6424                 0.9269                 0.9609
 IR Inten    --      5.4158                14.4326                 3.9376

                     13                     14                     15
                      A                      A                      A
 Frequencies --    795.4131               812.3068               817.2708
 Red. masses --      4.4933                 2.2445                 1.0873
 Frc consts  --      1.6749                 0.8726                 0.4279
 IR Inten    --      9.2647                14.9339                 0.4538

                     16                     17                     18
                      A                      A                      A
 Frequencies --    852.3784               884.9629               907.5584
 Red. masses --      2.0238                 2.4489                 1.8085
 Frc consts  --      0.8663                 1.1300                 0.8776
 IR Inten    --      6.2588                15.1909                12.3633

                     19                     20                     21
                      A                      A                      A
 Frequencies --    927.3594               971.0750               994.0608
 Red. masses --      2.1613                 2.9844                 1.9533
 Frc consts  --      1.0951                 1.6581                 1.1372
 IR Inten    --      1.2542                24.9955                 6.9529

                     22                     23                     24
                      A                      A                      A
 Frequencies --   1011.3109              1023.4468              1063.7718
 Red. masses --      1.7685                 1.5630                 2.0890
 Frc consts  --      1.0657                 0.9646                 1.3928
 IR Inten    --      8.6185                 4.9460                24.7224

                     25                     26                     27
                      A                      A                      A
 Frequencies --   1076.9560              1089.7000              1143.2916
 Red. masses --      2.3727                 1.3857                 2.2832
 Frc consts  --      1.6214                 0.9695                 1.7584
 IR Inten    --     22.3553                17.8597                34.5558

                     28                     29                     30
                      A                      A                      A
 Frequencies --   1171.7955              1186.2603              1204.8888
 Red. masses --      1.6991                 1.5438                 1.4511
 Frc consts  --      1.3746                 1.2799                 1.2412
 IR Inten    --     24.0854                 8.5304                16.7911

                     31                     32                     33
                      A                      A                      A
 Frequencies --   1254.5942              1264.2710              1292.7587
 Red. masses --      1.5834                 2.3011                 1.1115
 Frc consts  --      1.4684                 2.1671                 1.0945
 IR Inten    --      5.9247                 4.8576                 2.1766

                     34                     35                     36
                      A                      A                      A
 Frequencies --   1351.4872              1388.9286              1402.7052
 Red. masses --      3.4659                 2.3067                 1.3100
 Frc consts  --      3.7298                 2.6218                 1.5186
 IR Inten    --    176.7496                18.4687                 8.1434

                     37                     38                     39
                      A                      A                      A
 Frequencies --   1426.2781              1475.9556              1483.6557
 Red. masses --      1.3293                 1.8158                 1.0403
 Frc consts  --      1.5933                 2.3306                 1.3492
 IR Inten    --      9.2325                25.1550                 4.5054

                     40                     41                     42
                      A                      A                      A
 Frequencies --   1499.2515              1526.1634              2986.4637
 Red. masses --      1.0471                 1.0975                 1.0567
 Frc consts  --      1.3867                 1.5062                 5.5531
 IR Inten    --      2.3959                 0.8623                39.4645

                     43                     44                     45
                      A                      A                      A
 Frequencies --   3020.5516              3045.5097              3120.3922
 Red. masses --      1.1049                 1.0347                 1.1014
 Frc consts  --      5.9395                 5.6545                 6.3188
 IR Inten    --     33.5536                17.7419                23.0615

                     46                     47                     48
                      A                      A                      A
 Frequencies --   3122.2970              3136.8701              3182.8150
 Red. masses --      1.1028                 1.0533                 1.0879
 Frc consts  --      6.3344                 6.1063                 6.4934
 IR Inten    --     24.9042                10.0289                12.4157

                     49                     50                     51
                      A                      A                      A
 Frequencies --   3199.0702              3214.8756              3232.3433
 Red. masses --      1.1004                 1.0961                 1.1151
 Frc consts  --      6.6354                 6.6745                 6.8645
 IR Inten    --     17.1675                 5.7871                 3.4480

 - Thermochemistry -
 -------------------
 Temperature   298.150 Kelvin.  Pressure   1.00000 Atm.
 Atom     1 has atomic number  6 and mass  12.00000

 Molecular mass:   126.06808 amu.
 Principal axes and moments of inertia in atomic units:
                           1         2         3
     Eigenvalues --   430.895211799.580191922.94908
           X            0.99986  -0.01298   0.01084
           Y            0.01233   0.99823   0.05821
           Z           -0.01158  -0.05807   0.99825
 This molecule is an asymmetric top.
 Rotational symmetry number  1.
 Rotational temperatures (Kelvin)      0.20101     0.04813     0.04504
 Rotational constants (GHZ):           4.18835     1.00287     0.93853
 Zero-point vibrational energy     412472.7 (Joules/Mol)
                                   98.58334 (Kcal/Mol)
 Warning -- explicit consideration of  10 degrees of freedom as
           vibrations may cause significant error
 Vibrational temperatures:     84.26   128.15   189.36   351.73   446.47
          (Kelvin)            475.74   522.33   593.66   664.21   814.01
                              985.91  1073.33  1144.42  1168.73  1175.87
                             1226.38  1273.26  1305.77  1334.26  1397.16
                             1430.23  1455.05  1472.51  1530.53  1549.50
                             1567.83  1644.94  1685.95  1706.76  1733.56
                             1805.08  1819.00  1859.99  1944.49  1998.36
                             2018.18  2052.09  2123.57  2134.65  2157.09
                             2195.81  4296.85  4345.89  4381.80  4489.54
                             4492.28  4513.25  4579.36  4602.74  4625.48
                             4650.62

 Zero-point correction=                           0.157103 (Hartree/Particle)
 Thermal correction to Energy=                    0.165605
 Thermal correction to Enthalpy=                  0.166549
 Thermal correction to Gibbs Free Energy=         0.123438
 Sum of electronic and zero-point Energies=           -422.932941
 Sum of electronic and thermal Energies=              -422.924439
 Sum of electronic and thermal Enthalpies=            -422.923494
 Sum of electronic and thermal Free Energies=         -422.966605

                     E (Thermal)             CV                S
                      KCal/Mol        Cal/Mol-Kelvin    Cal/Mol-Kelvin
 Total                  103.919             32.371             90.734
 Electronic               0.000              0.000              0.000
 Translational            0.889              2.981             40.409
 Rotational               0.889              2.981             28.791
 Vibrational            102.141             26.410             21.535
 Vibration     1          0.596              1.974              4.505
 Vibration     2          0.602              1.957              3.680
 Vibration     3          0.612              1.922              2.922
 Vibration     4          0.660              1.772              1.770
 Vibration     5          0.699              1.654              1.361
 Vibration     6          0.713              1.614              1.257
 Vibration     7          0.737              1.548              1.109
 Vibration     8          0.776              1.443              0.917
 Vibration     9          0.819              1.335              0.761
 Vibration    10          0.922              1.105              0.512

 Normal termination of Gaussian 09 at Tue Jan 28 14:55:23 2020.
