 Gaussian 09, Revision D.01,
 Gaussian 09:  ES64L-G09RevD.01 24-Apr-2013

 -----------------------------
 # b3lyp 6-31G(2df,p) opt Freq
 -----------------------------

 -----
 titel
 -----
 Symbolic Z-matrix:
 Charge =  0 Multiplicity = 1

 SCF Done:  E(RB3LYP) =  -423.171738225     A.U. after   14 cycles
 Optimization completed.
    -- Stationary point found.
 Normal termination of Gaussian 09 at Tue Jan 28 08:13:28 2020.

 ----------------------------------------------------------------------
 #N Geom=AllCheck Guess=TCheck SCRF=Check GenChk RB3LYP/6-31G(2df,p) Fr
 eq
 ----------------------------------------------------------------------

 Structure from the checkpoint file:  "/scratch/puck/g09_a7678964-99b4-4a76-8ef5-5427fa3710ec/Gau-81088.chk"
 -----
 titel
 -----
 Charge =  0 Multiplicity = 1

                         Standard orientation:
 ---------------------------------------------------------------------
 Center     Atomic      Atomic             Coordinates (Angstroms)
 Number     Number       Type             X           Y           Z
 ---------------------------------------------------------------------
      1          6           0        2.951735   -0.008701    0.469094
      2          6           0        1.671960   -0.041293   -0.362233
      3          8           0        0.899075   -1.133639    0.115848
      4          6           0       -0.399948   -1.180133   -0.440928
      5          6           0       -1.205087    0.051710   -0.075877
      6          6           0       -2.660022    0.062839   -0.291945
      7          8           0       -2.134201   -0.076581    1.024059
      8          6           0       -0.411965    1.300929   -0.111149
      9          6           0        0.908537    1.258854   -0.283139
     10          1           0        3.464145   -0.971548    0.401033
     11          1           0        3.625311    0.773564    0.106945
     12          1           0        2.715395    0.187531    1.518538
     13          1           0        1.943726   -0.227317   -1.420156
     14          1           0       -0.344473   -1.266593   -1.540163
     15          1           0       -0.886506   -2.074150   -0.042941
     16          1           0       -3.166488    1.004453   -0.504197
     17          1           0       -3.147471   -0.822683   -0.701822
     18          1           0       -0.945675    2.240393   -0.000709
     19          1           0        1.491791    2.172878   -0.358718
 ---------------------------------------------------------------------

 SCF Done:  E(RB3LYP) =  -423.171738225     A.U. after    1 cycles

 The electronic state is 1-A.
 Alpha  occ. eigenvalues --  -19.14972 -19.14081 -10.24325 -10.24069 -10.23555
 Alpha  occ. eigenvalues --  -10.23149 -10.19105 -10.18980 -10.17825  -1.07027
 Alpha  occ. eigenvalues --   -1.03684  -0.80270  -0.77649  -0.69965  -0.66078
 Alpha  occ. eigenvalues --   -0.63555  -0.60596  -0.52993  -0.51111  -0.50536
 Alpha  occ. eigenvalues --   -0.46531  -0.46258  -0.43128  -0.42707  -0.39427
 Alpha  occ. eigenvalues --   -0.39197  -0.38502  -0.36469  -0.36122  -0.33622
 Alpha  occ. eigenvalues --   -0.30050  -0.28031  -0.25875  -0.24269
 Alpha virt. eigenvalues --    0.00106   0.08714   0.10572   0.11274   0.12102
 Alpha virt. eigenvalues --    0.12416   0.13969   0.15507   0.15901   0.16410
 Alpha virt. eigenvalues --    0.17448   0.18139   0.19729   0.20339   0.20550

 Mulliken charges:
               1
     1  C   -0.400364
     2  C    0.085095
     3  O   -0.258912
     4  C   -0.166703
     5  C    0.393694
     6  C   -0.241582
     7  O   -0.276238
     8  C   -0.133215
     9  C   -0.081366
    10  H    0.127705
    11  H    0.114268
    12  H    0.132869
    13  H    0.074332
    14  H    0.090014
    15  H    0.119794
    16  H    0.112163
    17  H    0.111905
    18  H    0.097456
    19  H    0.099086
 Sum of Mulliken charges =   0.00000

 Dipole moment (field-independent basis, Debye):
    X=              0.3402    Y=              0.9823    Z=             -2.2930  Tot=              2.5176
 Quadrupole moment (field-independent basis, Debye-Ang):
   XX=            -49.5869   YY=            -51.6537   ZZ=            -55.9187
   XY=              1.7291   XZ=              3.3910   YZ=              1.0087

  Exact polarizability: 108.941   2.744  72.024   0.340   0.958  57.252
 Approx polarizability: 148.827   4.173 102.612  -5.297  -1.320  94.213

                      1                      2                      3
                      A                      A                      A
 Frequencies --     69.2406               194.2052               218.5366
 Red. masses --      3.6464                 3.7450                 1.3868
 Frc consts  --      0.0103                 0.0832                 0.0390
 IR Inten    --      0.5542                 0.7807                 1.3317

                      4                      5                      6
                      A                      A                      A
 Frequencies --    255.3887               295.5927               333.6716
 Red. masses --      1.7984                 3.0613                 2.3791
 Frc consts  --      0.0691                 0.1576                 0.1561
 IR Inten    --      1.9178                 1.3844                 0.5711

                      7                      8                      9
                      A                      A                      A
 Frequencies --    363.0553               415.8470               446.4987
 Red. masses --      3.1996                 2.6648                 3.1708
 Frc consts  --      0.2485                 0.2715                 0.3724
 IR Inten    --      1.7606                 8.2521                 3.9247

                     10                     11                     12
                      A                      A                      A
 Frequencies --    555.2477               590.2177               684.8122
 Red. masses --      4.5838                 3.3019                 4.9292
 Frc consts  --      0.8326                 0.6777                 1.3620
 IR Inten    --      5.7242                 3.6758                 0.2927

                     13                     14                     15
                      A                      A                      A
 Frequencies --    745.2333               786.6696               817.2733
 Red. masses --      2.1603                 3.2990                 1.9837
 Frc consts  --      0.7069                 1.2029                 0.7807
 IR Inten    --     10.9874                30.2365                10.1821

                     16                     17                     18
                      A                      A                      A
 Frequencies --    883.2881               902.5273               938.2148
 Red. masses --      2.8505                 1.7589                 1.5155
 Frc consts  --      1.3103                 0.8441                 0.7860
 IR Inten    --     19.3800                 0.5359                 6.5927

                     19                     20                     21
                      A                      A                      A
 Frequencies --    982.4369               990.4823              1037.2380
 Red. masses --      4.1455                 1.3975                 2.3730
 Frc consts  --      2.3574                 0.8078                 1.5042
 IR Inten    --     34.0625                 4.5243                 2.3768

                     22                     23                     24
                      A                      A                      A
 Frequencies --   1050.8159              1101.3283              1128.1047
 Red. masses --      1.8277                 2.1985                 1.5992
 Frc consts  --      1.1891                 1.5711                 1.1991
 IR Inten    --      9.0388                19.6596                30.4305

                     25                     26                     27
                      A                      A                      A
 Frequencies --   1131.2416              1148.9691              1165.0067
 Red. masses --      1.6877                 2.1012                 1.3686
 Frc consts  --      1.2725                 1.6343                 1.0944
 IR Inten    --     53.0187                 9.5421                 2.9519

                     28                     29                     30
                      A                      A                      A
 Frequencies --   1200.0331              1282.1125              1311.3028
 Red. masses --      1.4784                 1.4332                 1.5402
 Frc consts  --      1.2544                 1.3881                 1.5604
 IR Inten    --     18.5307                 2.5692                22.0216

                     31                     32                     33
                      A                      A                      A
 Frequencies --   1339.2531              1339.6759              1365.0381
 Red. masses --      1.5598                 1.6960                 1.4551
 Frc consts  --      1.6483                 1.7934                 1.5975
 IR Inten    --      8.2808                12.5809                 9.2229

                     34                     35                     36
                      A                      A                      A
 Frequencies --   1398.8116              1406.4254              1447.7657
 Red. masses --      1.7011                 1.3140                 1.8188
 Frc consts  --      1.9611                 1.5314                 2.2462
 IR Inten    --     14.2718                 2.7776                 2.8611

                     37                     38                     39
                      A                      A                      A
 Frequencies --   1479.7676              1484.3642              1500.0455
 Red. masses --      1.0934                 1.0579                 1.0555
 Frc consts  --      1.4106                 1.3734                 1.3993
 IR Inten    --      2.7173                 2.1192                 2.1836

                     40                     41                     42
                      A                      A                      A
 Frequencies --   1527.2981              1711.4431              2904.0186
 Red. masses --      1.3155                 7.5648                 1.0797
 Frc consts  --      1.8079                13.0549                 5.3645
 IR Inten    --      1.5395                 0.3679                55.4057

                     43                     44                     45
                      A                      A                      A
 Frequencies --   2955.5133              3046.2635              3068.4267
 Red. masses --      1.0704                 1.0343                 1.0503
 Frc consts  --      5.5089                 5.6549                 5.8261
 IR Inten    --     54.7050                18.5737                33.2989

                     46                     47                     48
                      A                      A                      A
 Frequencies --   3100.9766              3122.3278              3129.3026
 Red. masses --      1.0922                 1.1018                 1.1028
 Frc consts  --      6.1880                 6.3289                 6.3629
 IR Inten    --     17.4708                17.5136                17.9963

                     49                     50                     51
                      A                      A                      A
 Frequencies --   3152.3503              3156.8757              3179.0435
 Red. masses --      1.1175                 1.0858                 1.0981
 Frc consts  --      6.5427                 6.3753                 6.5388
 IR Inten    --     22.6531                 5.1165                18.6202

 - Thermochemistry -
 -------------------
 Temperature   298.150 Kelvin.  Pressure   1.00000 Atm.
 Atom     1 has atomic number  6 and mass  12.00000

 Molecular mass:   126.06808 amu.
 Principal axes and moments of inertia in atomic units:
                           1         2         3
     Eigenvalues --   461.525921550.177881773.69987
           X            0.99980   0.00705   0.01873
           Y           -0.00754   0.99963   0.02620
           Z           -0.01853  -0.02634   0.99948
 This molecule is an asymmetric top.
 Rotational symmetry number  1.
 Warning -- assumption of classical behavior for rotation
           may cause significant error
 Rotational temperatures (Kelvin)      0.18767     0.05587     0.04883
 Rotational constants (GHZ):           3.91038     1.16422     1.01750
 Zero-point vibrational energy     417733.4 (Joules/Mol)
                                   99.84069 (Kcal/Mol)
 Warning -- explicit consideration of  11 degrees of freedom as
           vibrations may cause significant error
 Vibrational temperatures:     99.62   279.42   314.42   367.45   425.29
          (Kelvin)            480.08   522.36   598.31   642.41   798.88
                              849.19   985.29  1072.22  1131.84  1175.87
                             1270.85  1298.53  1349.88  1413.51  1425.08
                             1492.35  1511.89  1584.56  1623.09  1627.60
                             1653.11  1676.18  1726.58  1844.67  1886.67
                             1926.88  1927.49  1963.98  2012.58  2023.53
                             2083.01  2129.05  2135.67  2158.23  2197.44
                             2462.38  4178.23  4252.32  4382.89  4414.78
                             4461.61  4492.33  4502.36  4535.52  4542.03
                             4573.93

 Zero-point correction=                           0.159106 (Hartree/Particle)
 Thermal correction to Energy=                    0.167267
 Thermal correction to Enthalpy=                  0.168212
 Thermal correction to Gibbs Free Energy=         0.126464
 Sum of electronic and zero-point Energies=           -423.012632
 Sum of electronic and thermal Energies=              -423.004471
 Sum of electronic and thermal Enthalpies=            -423.003527
 Sum of electronic and thermal Free Energies=         -423.045274

                     E (Thermal)             CV                S
                      KCal/Mol        Cal/Mol-Kelvin    Cal/Mol-Kelvin
 Total                  104.962             31.767             87.864
 Electronic               0.000              0.000              0.000
 Translational            0.889              2.981             40.409
 Rotational               0.889              2.981             28.630
 Vibrational            103.184             25.806             18.825
 Vibration     1          0.598              1.969              4.175
 Vibration     2          0.635              1.848              2.187
 Vibration     3          0.646              1.813              1.971
 Vibration     4          0.666              1.754              1.693
 Vibration     5          0.690              1.682              1.442
 Vibration     6          0.715              1.608              1.242
 Vibration     7          0.737              1.548              1.109
 Vibration     8          0.779              1.436              0.906
 Vibration     9          0.806              1.369              0.806
 Vibration    10          0.911              1.128              0.533
 Vibration    11          0.948              1.053              0.467

 Optimization completed.
    -- Stationary point found.
 Normal termination of Gaussian 09 at Tue Jan 28 08:58:46 2020.
