 Gaussian 09, Revision D.01,
 Gaussian 09:  ES64L-G09RevD.01 24-Apr-2013

 -----------------------------
 # b3lyp 6-31G(2df,p) opt Freq
 -----------------------------

 -----
 titel
 -----
 Symbolic Z-matrix:
 Charge =  0 Multiplicity = 1

 SCF Done:  E(RB3LYP) =  -423.224508146     A.U. after   14 cycles
 Optimization completed.
    -- Stationary point found.
 Normal termination of Gaussian 09 at Mon Jan 27 10:22:07 2020.

 ----------------------------------------------------------------------
 #N Geom=AllCheck Guess=TCheck SCRF=Check GenChk RB3LYP/6-31G(2df,p) Fr
 eq
 ----------------------------------------------------------------------

 Structure from the checkpoint file:  "/scratch/puck/g09_a552f377-72f6-4f61-90d5-62c92dbe9ea7/Gau-19564.chk"
 -----
 titel
 -----
 Charge =  0 Multiplicity = 1

                         Standard orientation:
 ---------------------------------------------------------------------
 Center     Atomic      Atomic             Coordinates (Angstroms)
 Number     Number       Type             X           Y           Z
 ---------------------------------------------------------------------
      1          6           0        1.856064    1.904418    0.005696
      2          6           0        1.016008    0.678941   -0.054136
      3          6           0        1.281453   -0.656278    0.034433
      4          6           0        2.608563   -1.322292    0.230660
      5          6           0        0.008794   -1.316596   -0.096574
      6          6           0       -0.928305   -0.349623   -0.260791
      7          6           0       -2.407361   -0.343500   -0.426402
      8          8           0       -3.098450    0.212721    0.688820
      9          8           0       -0.326153    0.878947   -0.239139
     10          1           0        1.563977    2.552864    0.840157
     11          1           0        2.906669    1.638085    0.138090
     12          1           0        1.769137    2.496263   -0.912883
     13          1           0        3.420739   -0.594098    0.302187
     14          1           0        2.623142   -1.923534    1.147113
     15          1           0        2.844098   -1.998585   -0.599280
     16          1           0       -0.173837   -2.380476   -0.068222
     17          1           0       -2.678116    0.188396   -1.352561
     18          1           0       -2.756434   -1.374847   -0.523229
     19          1           0       -2.733848    1.092170    0.833868
 ---------------------------------------------------------------------

 SCF Done:  E(RB3LYP) =  -423.224508146     A.U. after    1 cycles

 The electronic state is 1-A.
 Alpha  occ. eigenvalues --  -19.19301 -19.13106 -10.23299 -10.22629 -10.22216
 Alpha  occ. eigenvalues --  -10.19088 -10.18432 -10.18072 -10.17261  -1.09687
 Alpha  occ. eigenvalues --   -1.01116  -0.80578  -0.78178  -0.72218  -0.70056
 Alpha  occ. eigenvalues --   -0.64041  -0.58338  -0.52905  -0.51080  -0.47885
 Alpha  occ. eigenvalues --   -0.45667  -0.44093  -0.42914  -0.40910  -0.40895
 Alpha  occ. eigenvalues --   -0.39922  -0.39283  -0.38389  -0.37048  -0.34828
 Alpha  occ. eigenvalues --   -0.33535  -0.26839  -0.26124  -0.20811
 Alpha virt. eigenvalues --    0.01697   0.06962   0.09253   0.10126   0.12167
 Alpha virt. eigenvalues --    0.13336   0.14238   0.14557   0.16663   0.17176
 Alpha virt. eigenvalues --    0.18919   0.19705   0.21378   0.22127   0.23629

 Mulliken charges:
               1
     1  C   -0.495197
     2  C    0.255343
     3  C    0.189426
     4  C   -0.505745
     5  C   -0.374168
     6  C    0.343283
     7  C   -0.175838
     8  O   -0.413511
     9  O   -0.230859
    10  H    0.135818
    11  H    0.134611
    12  H    0.136934
    13  H    0.122320
    14  H    0.130666
    15  H    0.129563
    16  H    0.108047
    17  H    0.099635
    18  H    0.122475
    19  H    0.287198
 Sum of Mulliken charges =   0.00000

 Dipole moment (field-independent basis, Debye):
    X=              1.8972    Y=              0.3784    Z=             -0.5777  Tot=              2.0190
 Quadrupole moment (field-independent basis, Debye-Ang):
   XX=            -55.6525   YY=            -48.2405   ZZ=            -54.5564
   XY=             -0.2349   XZ=              3.1961   YZ=              1.3140

  Exact polarizability: 100.965   0.862  88.385   3.904   0.141  53.587
 Approx polarizability: 135.816  -2.245 139.055   4.697  -0.976  81.982

                      1                      2                      3
                      A                      A                      A
 Frequencies --     56.7932                90.0332               112.3401
 Red. masses --      3.4869                 1.0275                 4.3914
 Frc consts  --      0.0066                 0.0049                 0.0327
 IR Inten    --      1.6964                 0.1112                 0.4586

                      4                      5                      6
                      A                      A                      A
 Frequencies --    124.9400               214.8688               230.4291
 Red. masses --      1.0392                 2.4651                 2.5350
 Frc consts  --      0.0096                 0.0671                 0.0793
 IR Inten    --      0.0018                 4.7415                 4.8512

                      7                      8                      9
                      A                      A                      A
 Frequencies --    262.8637               285.2057               317.5838
 Red. masses --      2.6035                 3.1892                 1.2716
 Frc consts  --      0.1060                 0.1528                 0.0756
 IR Inten    --      0.7200                 3.4500               118.5172

                     10                     11                     12
                      A                      A                      A
 Frequencies --    411.6521               458.6146               598.7148
 Red. masses --      3.6670                 3.0942                 4.5824
 Frc consts  --      0.3661                 0.3834                 0.9678
 IR Inten    --     11.5068                 0.4239                 2.3822

                     13                     14                     15
                      A                      A                      A
 Frequencies --    633.9221               650.0645               710.4581
 Red. masses --      4.4234                 3.6560                 4.6965
 Frc consts  --      1.0473                 0.9103                 1.3967
 IR Inten    --      6.8875                 1.4324                 2.9181

                     16                     17                     18
                      A                      A                      A
 Frequencies --    790.5501               818.2108               930.5321
 Red. masses --      2.8081                 1.4660                 2.1428
 Frc consts  --      1.0340                 0.5783                 1.0932
 IR Inten    --     14.6293                12.6655                32.9828

                     19                     20                     21
                      A                      A                      A
 Frequencies --    987.3674               998.9709              1015.3208
 Red. masses --      1.4872                 1.8560                 3.4583
 Frc consts  --      0.8542                 1.0913                 2.1005
 IR Inten    --      1.9300                 3.8304                34.4573

                     22                     23                     24
                      A                      A                      A
 Frequencies --   1043.8007              1057.5771              1066.8719
 Red. masses --      5.1623                 1.4110                 1.5126
 Frc consts  --      3.3138                 0.9298                 1.0144
 IR Inten    --     89.7660                 1.2568                 0.0813

                     25                     26                     27
                      A                      A                      A
 Frequencies --   1146.9485              1173.1422              1207.1527
 Red. masses --      2.9098                 1.4387                 1.4466
 Frc consts  --      2.2553                 1.1666                 1.2420
 IR Inten    --      3.2176                31.7960                11.8434

                     28                     29                     30
                      A                      A                      A
 Frequencies --   1241.7729              1295.6937              1368.4447
 Red. masses --      4.9673                 3.3708                 1.2331
 Frc consts  --      4.5129                 3.3342                 1.3605
 IR Inten    --     10.4772                25.1394                 5.2125

                     31                     32                     33
                      A                      A                      A
 Frequencies --   1396.1756              1417.6374              1425.7697
 Red. masses --      1.6226                 1.2912                 1.2517
 Frc consts  --      1.8635                 1.5289                 1.4992
 IR Inten    --      5.4547                69.6557                 3.8421

                     34                     35                     36
                      A                      A                      A
 Frequencies --   1432.9988              1471.9458              1483.1671
 Red. masses --      2.3930                 1.0426                 1.0424
 Frc consts  --      2.8952                 1.3309                 1.3510
 IR Inten    --      7.6375                 3.4915                 4.8878

                     37                     38                     39
                      A                      A                      A
 Frequencies --   1489.8554              1491.1410              1497.4556
 Red. masses --      1.0900                 1.0878                 1.0745
 Frc consts  --      1.4255                 1.4250                 1.4196
 IR Inten    --      1.8130                 1.6996                 3.5041

                     40                     41                     42
                      A                      A                      A
 Frequencies --   1614.0807              1683.0460              2975.9258
 Red. masses --      7.5464                 6.8829                 1.0713
 Frc consts  --     11.5836                11.4872                 5.5900
 IR Inten    --     15.1658                 4.2993                60.8292

                     43                     44                     45
                      A                      A                      A
 Frequencies --   3027.0146              3028.7528              3075.3273
 Red. masses --      1.0383                 1.0388                 1.1002
 Frc consts  --      5.6054                 5.6143                 6.1304
 IR Inten    --     44.4035                27.1246                 8.4914

                     46                     47                     48
                      A                      A                      A
 Frequencies --   3075.9455              3099.5421              3111.3388
 Red. masses --      1.0999                 1.0908                 1.0983
 Frc consts  --      6.1315                 6.1742                 6.2645
 IR Inten    --     27.5548                17.4977                20.4353

                     49                     50                     51
                      A                      A                      A
 Frequencies --   3131.2472              3245.6899              3815.5152
 Red. masses --      1.0964                 1.0968                 1.0662
 Frc consts  --      6.3337                 6.8078                 9.1449
 IR Inten    --     12.6905                 3.5018                19.1574

 - Thermochemistry -
 -------------------
 Temperature   298.150 Kelvin.  Pressure   1.00000 Atm.
 Atom     1 has atomic number  6 and mass  12.00000

 Molecular mass:   126.06808 amu.
 Principal axes and moments of inertia in atomic units:
                           1         2         3
     Eigenvalues --   581.710881684.892852135.08653
           X            0.99992   0.00347   0.01190
           Y           -0.00352   0.99999   0.00358
           Z           -0.01189  -0.00362   0.99992
 This molecule is an asymmetric top.
 Rotational symmetry number  1.
 Warning -- assumption of classical behavior for rotation
           may cause significant error
 Rotational temperatures (Kelvin)      0.14889     0.05141     0.04057
 Rotational constants (GHZ):           3.10247     1.07113     0.84528
 Zero-point vibrational energy     414448.7 (Joules/Mol)
                                   99.05562 (Kcal/Mol)
 Warning -- explicit consideration of  12 degrees of freedom as
           vibrations may cause significant error
 Vibrational temperatures:     81.71   129.54   161.63   179.76   309.15
          (Kelvin)            331.54   378.20   410.35   456.93   592.27
                              659.84   861.42   912.07   935.30  1022.19
                             1137.42  1177.22  1338.83  1420.60  1437.29
                             1460.82  1501.79  1521.62  1534.99  1650.20
                             1687.89  1736.82  1786.63  1864.21  1968.88
                             2008.78  2039.66  2051.36  2061.76  2117.80
                             2133.94  2143.57  2145.42  2154.50  2322.30
                             2421.52  4281.69  4355.19  4357.69  4424.70
                             4425.59  4459.54  4476.52  4505.16  4669.82
                             5489.67

 Zero-point correction=                           0.157855 (Hartree/Particle)
 Thermal correction to Energy=                    0.167671
 Thermal correction to Enthalpy=                  0.168616
 Thermal correction to Gibbs Free Energy=         0.122548
 Sum of electronic and zero-point Energies=           -423.066653
 Sum of electronic and thermal Energies=              -423.056837
 Sum of electronic and thermal Enthalpies=            -423.055893
 Sum of electronic and thermal Free Energies=         -423.101960

                     E (Thermal)             CV                S
                      KCal/Mol        Cal/Mol-Kelvin    Cal/Mol-Kelvin
 Total                  105.215             34.805             96.958
 Electronic               0.000              0.000              0.000
 Translational            0.889              2.981             40.409
 Rotational               0.889              2.981             29.127
 Vibrational            103.438             28.843             27.422
 Vibration     1          0.596              1.975              4.566
 Vibration     2          0.602              1.956              3.659
 Vibration     3          0.607              1.939              3.228
 Vibration     4          0.610              1.928              3.023
 Vibration     5          0.645              1.818              2.002
 Vibration     6          0.652              1.795              1.876
 Vibration     7          0.670              1.741              1.643
 Vibration     8          0.683              1.701              1.502
 Vibration     9          0.704              1.640              1.323
 Vibration    10          0.776              1.445              0.921
 Vibration    11          0.817              1.342              0.770
 Vibration    12          0.957              1.035              0.452

 Optimization completed.
    -- Stationary point found.
 Normal termination of Gaussian 09 at Mon Jan 27 11:04:08 2020.
