 Gaussian 09, Revision D.01,
 Gaussian 09:  ES64L-G09RevD.01 24-Apr-2013

 -----------------------------
 # b3lyp 6-31G(2df,p) opt Freq
 -----------------------------

 -----
 titel
 -----
 Symbolic Z-matrix:
 Charge =  0 Multiplicity = 1

 SCF Done:  E(RB3LYP) =  -423.154634609     A.U. after   14 cycles
 Optimization completed.
    -- Stationary point found.
 Normal termination of Gaussian 09 at Mon Jan 27 12:05:26 2020.

 ----------------------------------------------------------------------
 #N Geom=AllCheck Guess=TCheck SCRF=Check GenChk RB3LYP/6-31G(2df,p) Fr
 eq
 ----------------------------------------------------------------------

 Structure from the checkpoint file:  "/scratch/puck/g09_ef45ecff-5c84-4cda-8c3a-49bdeb75a1db/Gau-24915.chk"
 -----
 titel
 -----
 Charge =  0 Multiplicity = 1

                         Standard orientation:
 ---------------------------------------------------------------------
 Center     Atomic      Atomic             Coordinates (Angstroms)
 Number     Number       Type             X           Y           Z
 ---------------------------------------------------------------------
      1          6           0       -2.319868    0.001218   -0.638299
      2          6           0       -2.030064   -0.145000    0.831838
      3          6           0       -0.896394    0.068800   -0.141757
      4          6           0       -0.181542    1.408040   -0.189126
      5          8           0        1.053741    1.370574    0.504641
      6          6           0        1.999352    0.541414   -0.136543
      7          6           0        1.477113   -0.854500   -0.408454
      8          8           0        0.851036   -1.517259    0.684398
      9          6           0        0.023568   -1.086961   -0.410276
     10          1           0       -2.623414   -0.879880   -1.194906
     11          1           0       -2.777982    0.921985   -0.985796
     12          1           0       -2.286161    0.677295    1.491822
     13          1           0       -2.128891   -1.126005    1.283150
     14          1           0       -0.009681    1.701508   -1.239956
     15          1           0       -0.781332    2.190679    0.285223
     16          1           0        2.322145    0.981618   -1.097534
     17          1           0        2.870388    0.498381    0.525270
     18          1           0        2.125517   -1.479421   -1.025239
     19          1           0       -0.381803   -1.910741   -0.998650
 ---------------------------------------------------------------------

 SCF Done:  E(RB3LYP) =  -423.154634609     A.U. after    1 cycles

 The electronic state is 1-A.
 Alpha  occ. eigenvalues --  -19.14581 -19.14168 -10.23853 -10.23677 -10.23306
 Alpha  occ. eigenvalues --  -10.23138 -10.20051 -10.19298 -10.18856  -1.07287
 Alpha  occ. eigenvalues --   -1.03239  -0.86945  -0.74466  -0.70810  -0.65724
 Alpha  occ. eigenvalues --   -0.60789  -0.60305  -0.54372  -0.51652  -0.50616
 Alpha  occ. eigenvalues --   -0.47626  -0.46341  -0.45945  -0.41958  -0.39868
 Alpha  occ. eigenvalues --   -0.39442  -0.38276  -0.36390  -0.33674  -0.31700
 Alpha  occ. eigenvalues --   -0.28939  -0.27589  -0.26350  -0.25484
 Alpha virt. eigenvalues --    0.08423   0.09364   0.09823   0.10746   0.12526
 Alpha virt. eigenvalues --    0.12882   0.13036   0.14064   0.15969   0.16613
 Alpha virt. eigenvalues --    0.17599   0.18840   0.19479   0.19962   0.22222

 Mulliken charges:
               1
     1  C   -0.323719
     2  C   -0.287378
     3  C    0.350339
     4  C   -0.165715
     5  O   -0.235666
     6  C   -0.117698
     7  C    0.035353
     8  O   -0.249920
     9  C   -0.055666
    10  H    0.114261
    11  H    0.112747
    12  H    0.117559
    13  H    0.124981
    14  H    0.084973
    15  H    0.106393
    16  H    0.088562
    17  H    0.120865
    18  H    0.090402
    19  H    0.089325
 Sum of Mulliken charges =   0.00000

 Dipole moment (field-independent basis, Debye):
    X=             -0.6156    Y=              0.2177    Z=             -2.2467  Tot=              2.3396
 Quadrupole moment (field-independent basis, Debye-Ang):
   XX=            -49.5560   YY=            -54.6253   ZZ=            -54.2353
   XY=             -0.8579   XZ=             -2.4431   YZ=              1.4550

  Exact polarizability:  90.669  -0.547  70.262  -1.709   0.358  64.641
 Approx polarizability: 120.112  -0.648 100.506  -0.083  -1.424 104.661

                      1                      2                      3
                      A                      A                      A
 Frequencies --     90.4474               209.5130               268.0361
 Red. masses --      3.0877                 3.1347                 4.3969
 Frc consts  --      0.0149                 0.0811                 0.1861
 IR Inten    --      1.2795                 1.1647                 2.4687

                      4                      5                      6
                      A                      A                      A
 Frequencies --    277.2984               328.5433               403.0869
 Red. masses --      2.5078                 2.6181                 2.1495
 Frc consts  --      0.1136                 0.1665                 0.2058
 IR Inten    --      0.7081                 1.1774                 4.7000

                      7                      8                      9
                      A                      A                      A
 Frequencies --    433.9562               468.9848               534.9169
 Red. masses --      2.6237                 5.3965                 4.9555
 Frc consts  --      0.2911                 0.6993                 0.8354
 IR Inten    --      0.6988                 7.4667                 7.3829

                     10                     11                     12
                      A                      A                      A
 Frequencies --    695.1023               771.4000               776.6057
 Red. masses --      4.4068                 1.7463                 1.4872
 Frc consts  --      1.2545                 0.6123                 0.5285
 IR Inten    --     13.7777                 6.9495                 4.5743

                     13                     14                     15
                      A                      A                      A
 Frequencies --    816.5736               874.6315               904.7001
 Red. masses --      3.4467                 2.6888                 2.1276
 Frc consts  --      1.3541                 1.2119                 1.0260
 IR Inten    --     13.7784                18.1585                 7.1076

                     16                     17                     18
                      A                      A                      A
 Frequencies --    925.5600               946.1015               962.6185
 Red. masses --      3.1242                 2.4557                 1.4051
 Frc consts  --      1.5769                 1.2951                 0.7671
 IR Inten    --     23.8683                 6.0219                 6.1868

                     19                     20                     21
                      A                      A                      A
 Frequencies --    973.6962               998.0594              1034.2139
 Red. masses --      3.0729                 2.5273                 1.6927
 Frc consts  --      1.7165                 1.4833                 1.0667
 IR Inten    --     10.5688                 8.0428                11.9232

                     22                     23                     24
                      A                      A                      A
 Frequencies --   1058.0875              1074.2471              1084.8642
 Red. masses --      1.4142                 1.6608                 1.7194
 Frc consts  --      0.9328                 1.1292                 1.1923
 IR Inten    --      1.4196                11.6891                10.0608

                     25                     26                     27
                      A                      A                      A
 Frequencies --   1094.7519              1144.9808              1162.7765
 Red. masses --      1.7844                 1.5794                 3.3905
 Frc consts  --      1.2600                 1.2200                 2.7009
 IR Inten    --      6.1389                 5.1817                80.4845

                     28                     29                     30
                      A                      A                      A
 Frequencies --   1187.9013              1254.8317              1273.5214
 Red. masses --      1.3190                 1.2081                 1.5516
 Frc consts  --      1.0967                 1.1208                 1.4827
 IR Inten    --      0.5552                16.3039                 9.6613

                     31                     32                     33
                      A                      A                      A
 Frequencies --   1305.5630              1331.7480              1336.3706
 Red. masses --      1.5850                 1.4904                 1.6748
 Frc consts  --      1.5917                 1.5574                 1.7622
 IR Inten    --      4.4897                 2.0040                 5.7165

                     34                     35                     36
                      A                      A                      A
 Frequencies --   1367.5797              1388.1985              1425.8432
 Red. masses --      1.4539                 1.7340                 1.4202
 Frc consts  --      1.6021                 1.9688                 1.7012
 IR Inten    --      2.4318                 7.0968                16.6677

                     37                     38                     39
                      A                      A                      A
 Frequencies --   1468.2832              1471.0095              1482.9161
 Red. masses --      1.3593                 1.5710                 1.1600
 Frc consts  --      1.7266                 2.0029                 1.5030
 IR Inten    --      3.7047                13.7013                 4.2238

                     40                     41                     42
                      A                      A                      A
 Frequencies --   1494.7922              1505.6693              2945.3362
 Red. masses --      1.2218                 1.3217                 1.0708
 Frc consts  --      1.6085                 1.7655                 5.4732
 IR Inten    --      5.8827                 0.2584                18.8761

                     43                     44                     45
                      A                      A                      A
 Frequencies --   2950.4895              3075.9902              3079.1776
 Red. masses --      1.0705                 1.0898                 1.0925
 Frc consts  --      5.4907                 6.0755                 6.1030
 IR Inten    --    104.3850                27.3448                25.1547

                     46                     47                     48
                      A                      A                      A
 Frequencies --   3092.4196              3105.7275              3123.5369
 Red. masses --      1.0852                 1.0915                 1.0530
 Frc consts  --      6.1145                 6.2031                 6.0530
 IR Inten    --     27.5665                42.4420                17.6033

                     49                     50                     51
                      A                      A                      A
 Frequencies --   3133.3619              3202.4075              3221.4341
 Red. masses --      1.0561                 1.1174                 1.1160
 Frc consts  --      6.1092                 6.7519                 6.8235
 IR Inten    --     10.5513                 2.9946                12.2573

 - Thermochemistry -
 -------------------
 Temperature   298.150 Kelvin.  Pressure   1.00000 Atm.
 Atom     1 has atomic number  6 and mass  12.00000

 Molecular mass:   126.06808 amu.
 Principal axes and moments of inertia in atomic units:
                           1         2         3
     Eigenvalues --   631.056451114.821301452.59669
           X            0.99990   0.00106  -0.01392
           Y           -0.00095   0.99997   0.00831
           Z            0.01393  -0.00830   0.99987
 This molecule is an asymmetric top.
 Rotational symmetry number  1.
 Warning -- assumption of classical behavior for rotation
           may cause significant error
 Rotational temperatures (Kelvin)      0.13725     0.07769     0.05963
 Rotational constants (GHZ):           2.85987     1.61886     1.24242
 Zero-point vibrational energy     421910.1 (Joules/Mol)
                                  100.83894 (Kcal/Mol)
 Warning -- explicit consideration of   9 degrees of freedom as
           vibrations may cause significant error
 Vibrational temperatures:    130.13   301.44   385.64   398.97   472.70
          (Kelvin)            579.95   624.37   674.76   769.63  1000.10
                             1109.87  1117.36  1174.87  1258.40  1301.66
                             1331.67  1361.23  1384.99  1400.93  1435.98
                             1488.00  1522.35  1545.60  1560.88  1575.10
                             1647.37  1672.97  1709.12  1805.42  1832.31
                             1878.41  1916.09  1922.74  1967.64  1997.31
                             2051.47  2112.53  2116.45  2133.58  2150.67
                             2166.32  4237.68  4245.09  4425.66  4430.24
                             4449.30  4468.44  4494.07  4508.20  4607.54
                             4634.92

 Zero-point correction=                           0.160697 (Hartree/Particle)
 Thermal correction to Energy=                    0.168150
 Thermal correction to Enthalpy=                  0.169094
 Thermal correction to Gibbs Free Energy=         0.128887
 Sum of electronic and zero-point Energies=           -422.993938
 Sum of electronic and thermal Energies=              -422.986485
 Sum of electronic and thermal Enthalpies=            -422.985541
 Sum of electronic and thermal Free Energies=         -423.025748

                     E (Thermal)             CV                S
                      KCal/Mol        Cal/Mol-Kelvin    Cal/Mol-Kelvin
 Total                  105.516             29.846             84.623
 Electronic               0.000              0.000              0.000
 Translational            0.889              2.981             40.409
 Rotational               0.889              2.981             28.415
 Vibrational            103.738             23.884             15.799
 Vibration     1          0.602              1.956              3.650
 Vibration     2          0.642              1.826              2.048
 Vibration     3          0.673              1.732              1.609
 Vibration     4          0.678              1.715              1.550
 Vibration     5          0.712              1.618              1.267
 Vibration     6          0.768              1.463              0.951
 Vibration     7          0.795              1.396              0.846
 Vibration     8          0.826              1.319              0.740
 Vibration     9          0.890              1.173              0.576

 Optimization completed.
    -- Stationary point found.
 Normal termination of Gaussian 09 at Mon Jan 27 12:56:04 2020.
