 Gaussian 09, Revision D.01,
 Gaussian 09:  ES64L-G09RevD.01 24-Apr-2013

 -----------------------------
 # b3lyp 6-31G(2df,p) opt Freq
 -----------------------------

 -----
 titel
 -----
 Symbolic Z-matrix:
 Charge =  0 Multiplicity = 1

 SCF Done:  E(RB3LYP) =  -423.183784367     A.U. after   14 cycles
 Optimization completed.
    -- Stationary point found.
 Normal termination of Gaussian 09 at Mon Jan 27 13:50:39 2020.

 ----------------------------------------------------------------------
 #N Geom=AllCheck Guess=TCheck SCRF=Check GenChk RB3LYP/6-31G(2df,p) Fr
 eq
 ----------------------------------------------------------------------

 Structure from the checkpoint file:  "/scratch/puck/g09_ce12260e-aff6-490f-8b69-8d190061132e/Gau-76144.chk"
 -----
 titel
 -----
 Charge =  0 Multiplicity = 1

                         Standard orientation:
 ---------------------------------------------------------------------
 Center     Atomic      Atomic             Coordinates (Angstroms)
 Number     Number       Type             X           Y           Z
 ---------------------------------------------------------------------
      1          8           0        2.662520    0.985327    0.013936
      2          6           0        2.582049   -0.151547   -0.367337
      3          8           0        1.639058   -1.043393   -0.043947
      4          6           0        0.585457   -0.587584    0.853826
      5          6           0       -0.616377   -0.127105    0.099065
      6          6           0       -0.715730    1.256326   -0.490377
      7          6           0       -1.711362    0.849780    0.556799
      8          6           0       -2.792817   -0.045834   -0.060769
      9          6           0       -1.680026   -1.038264   -0.534271
     10          1           0        3.300022   -0.634771   -1.048684
     11          1           0        0.362428   -1.463052    1.469861
     12          1           0        0.986276    0.211021    1.481981
     13          1           0        0.059035    1.944172   -0.169832
     14          1           0       -1.031903    1.384107   -1.523737
     15          1           0       -1.790996    1.378082    1.499781
     16          1           0       -3.457728   -0.494323    0.680338
     17          1           0       -3.404551    0.419636   -0.840270
     18          1           0       -1.755275   -2.009925   -0.039013
     19          1           0       -1.587095   -1.205045   -1.611952
 ---------------------------------------------------------------------

 SCF Done:  E(RB3LYP) =  -423.183784367     A.U. after    1 cycles

 The electronic state is 1-A.
 Alpha  occ. eigenvalues --  -19.18557 -19.13155 -10.30648 -10.24226 -10.20048
 Alpha  occ. eigenvalues --  -10.19588 -10.18775 -10.18721 -10.18569  -1.10040
 Alpha  occ. eigenvalues --   -1.01816  -0.89992  -0.75134  -0.72755  -0.64970
 Alpha  occ. eigenvalues --   -0.60691  -0.57213  -0.52981  -0.52701  -0.50490
 Alpha  occ. eigenvalues --   -0.47199  -0.45606  -0.45009  -0.42507  -0.41384
 Alpha  occ. eigenvalues --   -0.38465  -0.37425  -0.35926  -0.33572  -0.33185
 Alpha  occ. eigenvalues --   -0.30417  -0.28425  -0.27731  -0.25878
 Alpha virt. eigenvalues --    0.01107   0.08328   0.09231   0.11567   0.12174
 Alpha virt. eigenvalues --    0.12837   0.13715   0.14775   0.15531   0.15993
 Alpha virt. eigenvalues --    0.17146   0.18293   0.19594   0.20873   0.23225

 Mulliken charges:
               1
     1  O   -0.310027
     2  C    0.193556
     3  O   -0.205919
     4  C   -0.206346
     5  C    0.366529
     6  C   -0.316347
     7  C   -0.105658
     8  C   -0.218940
     9  C   -0.290340
    10  H    0.109039
    11  H    0.112868
    12  H    0.134344
    13  H    0.136732
    14  H    0.104816
    15  H    0.089614
    16  H    0.104827
    17  H    0.099399
    18  H    0.102520
    19  H    0.099331
 Sum of Mulliken charges =   0.00000

 Dipole moment (field-independent basis, Debye):
    X=             -1.4056    Y=             -1.3011    Z=              0.2259  Tot=              1.9286
 Quadrupole moment (field-independent basis, Debye-Ang):
   XX=            -54.7537   YY=            -55.7037   ZZ=            -50.5224
   XY=             -3.6327   XZ=             -1.7280   YZ=             -0.5190

  Exact polarizability:  89.751   1.855  73.208  -4.151   0.671  65.678
 Approx polarizability: 113.191   4.071 119.324  -6.415   2.846  99.787

                      1                      2                      3
                      A                      A                      A
 Frequencies --     49.9278                75.4590               141.5201
 Red. masses --      5.0294                 4.9757                 2.8902
 Frc consts  --      0.0074                 0.0167                 0.0341
 IR Inten    --      1.0667                 1.5137                 1.1300

                      4                      5                      6
                      A                      A                      A
 Frequencies --    210.6101               272.3404               330.6184
 Red. masses --      3.1547                 2.7348                 2.3292
 Frc consts  --      0.0824                 0.1195                 0.1500
 IR Inten    --      2.7298                 6.0641                 8.5563

                      7                      8                      9
                      A                      A                      A
 Frequencies --    367.8882               401.0100               448.3052
 Red. masses --      2.3432                 2.7328                 2.3177
 Frc consts  --      0.1868                 0.2589                 0.2744
 IR Inten    --     10.5647                 4.9604                 3.5436

                     10                     11                     12
                      A                      A                      A
 Frequencies --    684.9048               735.9351               761.2642
 Red. masses --      3.3433                 3.3022                 4.0785
 Frc consts  --      0.9240                 1.0537                 1.3926
 IR Inten    --      3.9173                 4.0956                 7.0966

                     13                     14                     15
                      A                      A                      A
 Frequencies --    785.8547               842.9886               898.4833
 Red. masses --      1.2485                 2.3280                 2.3829
 Frc consts  --      0.4543                 0.9747                 1.1334
 IR Inten    --      0.6773                 2.9070                27.9008

                     16                     17                     18
                      A                      A                      A
 Frequencies --    907.9180               940.0834               950.9955
 Red. masses --      4.4212                 2.0544                 2.3648
 Frc consts  --      2.1473                 1.0697                 1.2601
 IR Inten    --     21.4622                 1.7303                 4.4466

                     19                     20                     21
                      A                      A                      A
 Frequencies --    968.0697               978.3639              1033.1506
 Red. masses --      1.7017                 1.5305                 1.3651
 Frc consts  --      0.9396                 0.8631                 0.8585
 IR Inten    --      1.5502                 0.2874                 3.1130

                     22                     23                     24
                      A                      A                      A
 Frequencies --   1040.2132              1046.7526              1086.2518
 Red. masses --      1.5737                 1.6151                 1.4759
 Frc consts  --      1.0033                 1.0426                 1.0261
 IR Inten    --     18.6670                 0.9885                 5.8376

                     25                     26                     27
                      A                      A                      A
 Frequencies --   1117.8650              1151.7807              1186.9865
 Red. masses --      1.7162                 1.7315                 3.3959
 Frc consts  --      1.2635                 1.3533                 2.8190
 IR Inten    --      0.5893                42.3916               278.9697

                     28                     29                     30
                      A                      A                      A
 Frequencies --   1223.1742              1233.7422              1244.7561
 Red. masses --      1.1787                 1.9214                 1.4834
 Frc consts  --      1.0391                 1.7231                 1.3542
 IR Inten    --      6.9338                36.8751                 1.2108

                     31                     32                     33
                      A                      A                      A
 Frequencies --   1271.9114              1293.8212              1339.3006
 Red. masses --      1.6854                 1.5909                 1.7031
 Frc consts  --      1.6064                 1.5690                 1.7999
 IR Inten    --      5.6509                 9.9298                 8.7108

                     34                     35                     36
                      A                      A                      A
 Frequencies --   1387.7619              1408.4947              1416.3489
 Red. masses --      1.4716                 1.2700                 1.6698
 Frc consts  --      1.6698                 1.4844                 1.9736
 IR Inten    --      3.0265                 3.9479                 6.5310

                     37                     38                     39
                      A                      A                      A
 Frequencies --   1480.3066              1484.6327              1488.4359
 Red. masses --      1.1413                 1.1217                 1.1484
 Frc consts  --      1.4735                 1.4567                 1.4990
 IR Inten    --      7.8576                 2.7581                 1.8078

                     40                     41                     42
                      A                      A                      A
 Frequencies --   1512.8655              1813.9401              3024.6532
 Red. masses --      1.2220                 9.1709                 1.0898
 Frc consts  --      1.6479                17.7791                 5.8743
 IR Inten    --      0.5879               236.5747                73.3364

                     43                     44                     45
                      A                      A                      A
 Frequencies --   3045.7337              3053.3427              3062.7529
 Red. masses --      1.0589                 1.0623                 1.0582
 Frc consts  --      5.7876                 5.8349                 5.8487
 IR Inten    --     43.8576                57.6535                25.3695

                     46                     47                     48
                      A                      A                      A
 Frequencies --   3093.5367              3106.5244              3113.3909
 Red. masses --      1.1060                 1.0598                 1.1041
 Frc consts  --      6.2363                 6.0260                 6.3058
 IR Inten    --      3.0124                12.0580                43.1353

                     49                     50                     51
                      A                      A                      A
 Frequencies --   3121.4696              3178.8127              3211.8721
 Red. masses --      1.1069                 1.0930                 1.1104
 Frc consts  --      6.3542                 6.5071                 6.7492
 IR Inten    --      9.1508                16.3510                 6.2710

 - Thermochemistry -
 -------------------
 Temperature   298.150 Kelvin.  Pressure   1.00000 Atm.
 Atom     1 has atomic number  8 and mass  15.99491

 Molecular mass:   126.06808 amu.
 Principal axes and moments of inertia in atomic units:
                           1         2         3
     Eigenvalues --   460.195271762.525271976.12591
           X            1.00000  -0.00120   0.00129
           Y            0.00120   0.99999  -0.00352
           Z           -0.00129   0.00352   0.99999
 This molecule is an asymmetric top.
 Rotational symmetry number  1.
 Warning -- assumption of classical behavior for rotation
           may cause significant error
 Rotational temperatures (Kelvin)      0.18821     0.04914     0.04383
 Rotational constants (GHZ):           3.92169     1.02395     0.91327
 Zero-point vibrational energy     418855.2 (Joules/Mol)
                                  100.10880 (Kcal/Mol)
 Warning -- explicit consideration of   9 degrees of freedom as
           vibrations may cause significant error
 Vibrational temperatures:     71.83   108.57   203.62   303.02   391.84
          (Kelvin)            475.69   529.31   576.96   645.01   985.42
                             1058.85  1095.29  1130.67  1212.87  1292.72
                             1306.29  1352.57  1368.27  1392.83  1407.65
                             1486.47  1496.63  1506.04  1562.87  1608.36
                             1657.15  1707.81  1759.87  1775.08  1790.92
                             1829.99  1861.52  1926.95  1996.68  2026.51
                             2037.81  2129.83  2136.05  2141.52  2176.67
                             2609.85  4351.80  4382.13  4393.07  4406.61
                             4450.90  4469.59  4479.47  4491.09  4573.60
                             4621.16

 Zero-point correction=                           0.159534 (Hartree/Particle)
 Thermal correction to Energy=                    0.167981
 Thermal correction to Enthalpy=                  0.168925
 Thermal correction to Gibbs Free Energy=         0.125546
 Sum of electronic and zero-point Energies=           -423.024251
 Sum of electronic and thermal Energies=              -423.015803
 Sum of electronic and thermal Enthalpies=            -423.014859
 Sum of electronic and thermal Free Energies=         -423.058239

                     E (Thermal)             CV                S
                      KCal/Mol        Cal/Mol-Kelvin    Cal/Mol-Kelvin
 Total                  105.410             31.290             91.300
 Electronic               0.000              0.000              0.000
 Translational            0.889              2.981             40.409
 Rotational               0.889              2.981             28.862
 Vibrational            103.632             25.329             22.029
 Vibration     1          0.595              1.978              4.820
 Vibration     2          0.599              1.965              4.006
 Vibration     3          0.615              1.912              2.783
 Vibration     4          0.643              1.825              2.038
 Vibration     5          0.675              1.724              1.581
 Vibration     6          0.713              1.614              1.257
 Vibration     7          0.740              1.538              1.089
 Vibration     8          0.767              1.468              0.959
 Vibration     9          0.807              1.365              0.801

 Normal termination of Gaussian 09 at Mon Jan 27 14:31:02 2020.
