 Gaussian 09, Revision D.01,
 Gaussian 09:  ES64L-G09RevD.01 24-Apr-2013

 -----------------------------
 # b3lyp 6-31G(2df,p) opt Freq
 -----------------------------

 -----
 titel
 -----
 Symbolic Z-matrix:
 Charge =  0 Multiplicity = 1

 SCF Done:  E(RB3LYP) =  -423.157549674     A.U. after   14 cycles
 Optimization completed.
    -- Stationary point found.
 Normal termination of Gaussian 09 at Mon Jan 27 13:23:39 2020.

 ----------------------------------------------------------------------
 #N Geom=AllCheck Guess=TCheck SCRF=Check GenChk RB3LYP/6-31G(2df,p) Fr
 eq
 ----------------------------------------------------------------------

 Structure from the checkpoint file:  "/scratch/puck/g09_b8c939fb-3728-49ad-9aea-c926c6681ce4/Gau-75841.chk"
 -----
 titel
 -----
 Charge =  0 Multiplicity = 1

                         Standard orientation:
 ---------------------------------------------------------------------
 Center     Atomic      Atomic             Coordinates (Angstroms)
 Number     Number       Type             X           Y           Z
 ---------------------------------------------------------------------
      1          8           0       -2.058633   -1.727914    0.126074
      2          6           0       -1.997846   -0.549833   -0.120166
      3          6           0       -0.993546    0.385064    0.518216
      4          8           0       -1.081013    1.720099   -0.005153
      5          6           0        0.281169    1.673446   -0.484522
      6          6           0        0.480110    0.237588    0.049802
      7          6           0        1.008366   -0.879441   -0.883362
      8          6           0        2.367767   -0.812956   -0.135384
      9          6           0        1.646300   -0.066202    1.019873
     10          1           0       -2.666340   -0.055156   -0.860866
     11          1           0       -1.117420    0.350186    1.610201
     12          1           0        0.330757    1.786136   -1.575322
     13          1           0        0.904294    2.444037   -0.013487
     14          1           0        0.486875   -1.823288   -0.703804
     15          1           0        1.000050   -0.673407   -1.957416
     16          1           0        2.854087   -1.759831    0.106082
     17          1           0        3.089754   -0.172432   -0.649045
     18          1           0        1.332550   -0.751121    1.813365
     19          1           0        2.148649    0.791404    1.476187
 ---------------------------------------------------------------------

 SCF Done:  E(RB3LYP) =  -423.157549674     A.U. after    1 cycles

 The electronic state is 1-A.
 Alpha  occ. eigenvalues --  -19.14602 -19.14475 -10.27273 -10.24300 -10.23804
 Alpha  occ. eigenvalues --  -10.21130 -10.19181 -10.19047 -10.18916  -1.05763
 Alpha  occ. eigenvalues --   -1.04551  -0.85374  -0.73301  -0.71072  -0.67115
 Alpha  occ. eigenvalues --   -0.61903  -0.58458  -0.53893  -0.50454  -0.49478
 Alpha  occ. eigenvalues --   -0.48283  -0.46145  -0.43402  -0.42492  -0.40122
 Alpha  occ. eigenvalues --   -0.38933  -0.38573  -0.35755  -0.35557  -0.31928
 Alpha  occ. eigenvalues --   -0.31559  -0.29174  -0.27777  -0.24418
 Alpha virt. eigenvalues --   -0.03365   0.06199   0.08284   0.09993   0.11207
 Alpha virt. eigenvalues --    0.11807   0.13201   0.14230   0.14849   0.16561
 Alpha virt. eigenvalues --    0.17251   0.18758   0.19577   0.20546   0.21264

 Mulliken charges:
               1
     1  O   -0.245536
     2  C    0.124441
     3  C   -0.028986
     4  O   -0.292990
     5  C   -0.123663
     6  C    0.289066
     7  C   -0.293477
     8  C   -0.215304
     9  C   -0.284384
    10  H    0.092870
    11  H    0.104885
    12  H    0.105439
    13  H    0.105675
    14  H    0.132212
    15  H    0.100751
    16  H    0.106210
    17  H    0.106329
    18  H    0.114170
    19  H    0.102290
 Sum of Mulliken charges =   0.00000

 Dipole moment (field-independent basis, Debye):
    X=              2.1761    Y=              0.9665    Z=             -0.2223  Tot=              2.3914
 Quadrupole moment (field-independent basis, Debye-Ang):
   XX=            -54.8149   YY=            -59.7287   ZZ=            -51.1339
   XY=             -1.2866   XZ=              0.1058   YZ=             -0.1798

  Exact polarizability:  81.505   2.047  76.291   1.839  -2.064  67.843
 Approx polarizability: 106.988   4.391 117.325   0.998  -5.287 101.089

                      1                      2                      3
                      A                      A                      A
 Frequencies --     58.2589                74.5147               116.6876
 Red. masses --      3.2586                 3.7988                 2.1809
 Frc consts  --      0.0065                 0.0124                 0.0175
 IR Inten    --      1.5523                11.2467                 2.2440

                      4                      5                      6
                      A                      A                      A
 Frequencies --    172.1318               208.2794               327.5798
 Red. masses --      2.6241                 3.1578                 2.3756
 Frc consts  --      0.0458                 0.0807                 0.1502
 IR Inten    --      0.8573                 5.7002                 3.9630

                      7                      8                      9
                      A                      A                      A
 Frequencies --    371.4145               435.5938               454.2323
 Red. masses --      2.2654                 3.8580                 4.1895
 Frc consts  --      0.1841                 0.4313                 0.5093
 IR Inten    --      4.0698                 2.4594                 5.7765

                     10                     11                     12
                      A                      A                      A
 Frequencies --    561.2361               693.2498               784.1647
 Red. masses --      4.7821                 1.5338                 1.2697
 Frc consts  --      0.8875                 0.4343                 0.4600
 IR Inten    --      5.6422                 2.2383                 2.8733

                     13                     14                     15
                      A                      A                      A
 Frequencies --    806.9137               875.7302               897.3470
 Red. masses --      3.0832                 2.1725                 2.1898
 Frc consts  --      1.1828                 0.9816                 1.0389
 IR Inten    --     11.6715                 1.7536                 3.3110

                     16                     17                     18
                      A                      A                      A
 Frequencies --    905.1169               937.4850               953.5789
 Red. masses --      2.0135                 2.4161                 2.2626
 Frc consts  --      0.9719                 1.2511                 1.2122
 IR Inten    --      0.4419                 1.2657                 0.0680

                     19                     20                     21
                      A                      A                      A
 Frequencies --    978.4293              1008.5692              1039.7470
 Red. masses --      1.5413                 4.5075                 2.9424
 Frc consts  --      0.8694                 2.7014                 1.8742
 IR Inten    --      2.7231                18.0790                68.6840

                     22                     23                     24
                      A                      A                      A
 Frequencies --   1061.9651              1088.0837              1145.8828
 Red. masses --      2.5847                 2.0831                 1.8174
 Frc consts  --      1.7174                 1.4531                 1.4060
 IR Inten    --     47.9598                10.2101                 1.9076

                     25                     26                     27
                      A                      A                      A
 Frequencies --   1168.4889              1180.6546              1190.3283
 Red. masses --      1.3404                 2.3477                 1.8973
 Frc consts  --      1.0782                 1.9281                 1.5839
 IR Inten    --      2.5468                 3.7683                 2.5347

                     28                     29                     30
                      A                      A                      A
 Frequencies --   1206.9879              1239.3590              1258.7089
 Red. masses --      1.5637                 1.4334                 1.2326
 Frc consts  --      1.3422                 1.2972                 1.1506
 IR Inten    --      7.2374                 7.7433                 0.7958

                     31                     32                     33
                      A                      A                      A
 Frequencies --   1275.2194              1278.5823              1303.8611
 Red. masses --      1.4423                 1.4360                 1.8792
 Frc consts  --      1.3819                 1.3832                 1.8822
 IR Inten    --      0.6396                 0.1595                 5.9375

                     34                     35                     36
                      A                      A                      A
 Frequencies --   1312.9262              1353.6645              1391.6873
 Red. masses --      1.4538                 1.5067                 1.2777
 Frc consts  --      1.4765                 1.6266                 1.4580
 IR Inten    --      2.3676                 1.9438                 8.2660

                     37                     38                     39
                      A                      A                      A
 Frequencies --   1472.8508              1485.0939              1505.1089
 Red. masses --      1.0870                 1.0837                 1.1273
 Frc consts  --      1.3892                 1.4081                 1.5047
 IR Inten    --      2.1042                 1.9710                 0.4084

                     40                     41                     42
                      A                      A                      A
 Frequencies --   1523.8351              1820.9782              2883.4263
 Red. masses --      1.1026                10.8402                 1.0842
 Frc consts  --      1.5085                21.1786                 5.3108
 IR Inten    --      0.5454               120.4643                98.3038

                     43                     44                     45
                      A                      A                      A
 Frequencies --   3002.8664              3010.3141              3049.6900
 Red. masses --      1.0691                 1.0689                 1.0617
 Frc consts  --      5.6799                 5.7073                 5.8177
 IR Inten    --     73.6312                12.5201                24.4444

                     46                     47                     48
                      A                      A                      A
 Frequencies --   3053.4056              3057.1239              3066.0586
 Red. masses --      1.1040                 1.0611                 1.0621
 Frc consts  --      6.0644                 5.8429                 5.8828
 IR Inten    --     46.2222                24.9880                32.1552

                     49                     50                     51
                      A                      A                      A
 Frequencies --   3099.5036              3109.0938              3125.8546
 Red. masses --      1.1064                 1.1069                 1.1070
 Frc consts  --      6.2626                 6.3041                 6.3728
 IR Inten    --     14.2702                 8.1826                40.2540

 - Thermochemistry -
 -------------------
 Temperature   298.150 Kelvin.  Pressure   1.00000 Atm.
 Atom     1 has atomic number  8 and mass  15.99491

 Molecular mass:   126.06808 amu.
 Principal axes and moments of inertia in atomic units:
                           1         2         3
     Eigenvalues --   764.771571218.127931663.51978
           X            0.99953  -0.03005   0.00590
           Y            0.03005   0.99955   0.00058
           Z           -0.00591  -0.00040   0.99998
 This molecule is an asymmetric top.
 Rotational symmetry number  1.
 Warning -- assumption of classical behavior for rotation
           may cause significant error
 Rotational temperatures (Kelvin)      0.11325     0.07110     0.05207
 Rotational constants (GHZ):           2.35984     1.48157     1.08489
 Zero-point vibrational energy     414995.7 (Joules/Mol)
                                   99.18635 (Kcal/Mol)
 Warning -- explicit consideration of  10 degrees of freedom as
           vibrations may cause significant error
 Vibrational temperatures:     83.82   107.21   167.89   247.66   299.67
          (Kelvin)            471.31   534.38   626.72   653.54   807.49
                              997.43  1128.24  1160.97  1259.98  1291.08
                             1302.26  1348.83  1371.99  1407.74  1451.10
                             1495.96  1527.93  1565.51  1648.67  1681.19
                             1698.70  1712.61  1736.58  1783.16  1811.00
                             1834.75  1839.59  1875.96  1889.01  1947.62
                             2002.33  2119.10  2136.72  2165.51  2192.46
                             2619.98  4148.60  4320.45  4331.17  4387.82
                             4393.16  4398.51  4411.37  4459.49  4473.29
                             4497.40

 Zero-point correction=                           0.158064 (Hartree/Particle)
 Thermal correction to Energy=                    0.166697
 Thermal correction to Enthalpy=                  0.167642
 Thermal correction to Gibbs Free Energy=         0.123830
 Sum of electronic and zero-point Energies=           -422.999486
 Sum of electronic and thermal Energies=              -422.990852
 Sum of electronic and thermal Enthalpies=            -422.989908
 Sum of electronic and thermal Free Energies=         -423.033720

                     E (Thermal)             CV                S
                      KCal/Mol        Cal/Mol-Kelvin    Cal/Mol-Kelvin
 Total                  104.604             31.452             92.210
 Electronic               0.000              0.000              0.000
 Translational            0.889              2.981             40.409
 Rotational               0.889              2.981             28.829
 Vibrational            102.827             25.490             22.972
 Vibration     1          0.596              1.974              4.515
 Vibration     2          0.599              1.966              4.030
 Vibration     3          0.608              1.936              3.155
 Vibration     4          0.626              1.877              2.412
 Vibration     5          0.642              1.828              2.059
 Vibration     6          0.711              1.620              1.272
 Vibration     7          0.743              1.531              1.074
 Vibration     8          0.796              1.393              0.841
 Vibration     9          0.813              1.352              0.783
 Vibration    10          0.917              1.115              0.521

 Normal termination of Gaussian 09 at Mon Jan 27 14:10:06 2020.
