 Gaussian 09, Revision D.01,
 Gaussian 09:  ES64L-G09RevD.01 24-Apr-2013

 -----------------------------
 # b3lyp 6-31G(2df,p) opt Freq
 -----------------------------

 -----
 titel
 -----
 Symbolic Z-matrix:
 Charge =  0 Multiplicity = 1

 SCF Done:  E(RB3LYP) =  -423.139418408     A.U. after   13 cycles
 Optimization completed.
    -- Stationary point found.
 Normal termination of Gaussian 09 at Tue Jan 28 14:00:35 2020.

 ----------------------------------------------------------------------
 #N Geom=AllCheck Guess=TCheck SCRF=Check GenChk RB3LYP/6-31G(2df,p) Fr
 eq
 ----------------------------------------------------------------------

 Structure from the checkpoint file:  "/scratch/puck/g09_93452295-7728-42a6-bc6e-bf999a5b3950/Gau-9653.chk"
 -----
 titel
 -----
 Charge =  0 Multiplicity = 1

                         Standard orientation:
 ---------------------------------------------------------------------
 Center     Atomic      Atomic             Coordinates (Angstroms)
 Number     Number       Type             X           Y           Z
 ---------------------------------------------------------------------
      1          6           0        2.650375   -0.747861    0.195957
      2          8           0        1.604700   -0.083320   -0.491124
      3          6           0        0.337492   -0.673097   -0.290237
      4          6           0       -0.811589    0.092974   -1.021285
      5          6           0       -1.989573   -0.755305   -0.578303
      6          6           0       -1.764175   -0.957101    0.731078
      7          6           0       -0.467855   -0.218789    0.992408
      8          6           0       -0.771097    1.127003    0.189469
      9          8           0        0.186981    2.130366    0.178150
     10          1           0        2.714401   -1.800918   -0.112652
     11          1           0        3.582216   -0.242049   -0.065334
     12          1           0        2.513886   -0.710052    1.285250
     13          1           0        0.392471   -1.756737   -0.461846
     14          1           0       -0.721446    0.405369   -2.061030
     15          1           0       -2.815678   -1.077954   -1.195755
     16          1           0       -2.358343   -1.492495    1.458170
     17          1           0       -0.035173   -0.215305    1.992547
     18          1           0       -1.731078    1.590560    0.427888
     19          1           0        1.023834    1.716274   -0.077961
 ---------------------------------------------------------------------

 SCF Done:  E(RB3LYP) =  -423.139418408     A.U. after    1 cycles

 The electronic state is 1-A.
 Alpha  occ. eigenvalues --  -19.16152 -19.12522 -10.24051 -10.23685 -10.23155
 Alpha  occ. eigenvalues --  -10.19034 -10.18967 -10.18136 -10.18052  -1.05418
 Alpha  occ. eigenvalues --   -1.01322  -0.88545  -0.72998  -0.68684  -0.67628
 Alpha  occ. eigenvalues --   -0.63514  -0.56940  -0.52776  -0.51577  -0.51075
 Alpha  occ. eigenvalues --   -0.47091  -0.45771  -0.44050  -0.42880  -0.38357
 Alpha  occ. eigenvalues --   -0.38055  -0.36641  -0.35453  -0.35224  -0.34164
 Alpha  occ. eigenvalues --   -0.29967  -0.26727  -0.24469  -0.23162
 Alpha virt. eigenvalues --    0.01476   0.08326   0.10214   0.12585   0.12721
 Alpha virt. eigenvalues --    0.13923   0.14469   0.15121   0.16217   0.17033
 Alpha virt. eigenvalues --    0.17918   0.18145   0.19471   0.20854   0.21814

 Mulliken charges:
               1
     1  C   -0.252445
     2  O   -0.275778
     3  C    0.168382
     4  C   -0.168387
     5  C   -0.096378
     6  C   -0.092836
     7  C   -0.175665
     8  C    0.192741
     9  O   -0.449418
    10  H    0.118325
    11  H    0.134276
    12  H    0.119515
    13  H    0.069888
    14  H    0.068810
    15  H    0.102523
    16  H    0.101346
    17  H    0.063272
    18  H    0.084436
    19  H    0.287393
 Sum of Mulliken charges =   0.00000

 Dipole moment (field-independent basis, Debye):
    X=              0.8096    Y=             -2.2702    Z=              0.3084  Tot=              2.4298
 Quadrupole moment (field-independent basis, Debye-Ang):
   XX=            -47.4664   YY=            -58.2511   ZZ=            -52.1499
   XY=             -0.6118   XZ=              1.5076   YZ=             -1.1843

  Exact polarizability:  87.897   3.783  70.547   2.091  -1.627  71.452
 Approx polarizability: 117.474   7.587 108.420   3.723  -4.162 120.563

                      1                      2                      3
                      A                      A                      A
 Frequencies --     95.2996               168.5997               187.3452
 Red. masses --      2.7129                 1.2628                 2.3966
 Frc consts  --      0.0145                 0.0211                 0.0496
 IR Inten    --      2.0706                 0.6088                 0.6123

                      4                      5                      6
                      A                      A                      A
 Frequencies --    292.1567               307.8355               351.8555
 Red. masses --      4.6651                 3.5074                 3.2409
 Frc consts  --      0.2346                 0.1958                 0.2364
 IR Inten    --      8.0422                 1.4027                 0.1878

                      7                      8                      9
                      A                      A                      A
 Frequencies --    405.9982               469.5468               552.3161
 Red. masses --      4.2752                 3.6702                 2.9734
 Frc consts  --      0.4152                 0.4768                 0.5344
 IR Inten    --      1.0214                 3.4686                 0.4862

                     10                     11                     12
                      A                      A                      A
 Frequencies --    589.1745               608.3056               688.6419
 Red. masses --      5.0289                 1.1081                 2.0737
 Frc consts  --      1.0285                 0.2416                 0.5794
 IR Inten    --      5.6212                66.7306                30.8992

                     13                     14                     15
                      A                      A                      A
 Frequencies --    699.0026               846.1296               883.4773
 Red. masses --      2.4185                 2.1875                 2.7850
 Frc consts  --      0.6962                 0.9227                 1.2808
 IR Inten    --     19.3097                 0.8750                 0.4994

                     16                     17                     18
                      A                      A                      A
 Frequencies --    914.0850               916.1507               921.8318
 Red. masses --      1.4349                 3.3884                 2.1275
 Frc consts  --      0.7064                 1.6757                 1.0652
 IR Inten    --      2.8407                23.3476                 2.0125

                     19                     20                     21
                      A                      A                      A
 Frequencies --    947.7883               978.7295              1002.8562
 Red. masses --      2.4206                 2.7133                 3.7802
 Frc consts  --      1.2811                 1.5314                 2.2400
 IR Inten    --      2.3998                 2.3717                19.4731

                     22                     23                     24
                      A                      A                      A
 Frequencies --   1016.4503              1085.3086              1107.6686
 Red. masses --      1.8215                 1.2998                 4.4367
 Frc consts  --      1.1088                 0.9021                 3.2073
 IR Inten    --      8.8519                 1.2615               108.4599

                     25                     26                     27
                      A                      A                      A
 Frequencies --   1137.0967              1158.1697              1183.4758
 Red. masses --      1.6285                 4.1849                 1.3188
 Frc consts  --      1.2406                 3.3073                 1.0883
 IR Inten    --     12.1149               165.9064                 9.3639

                     28                     29                     30
                      A                      A                      A
 Frequencies --   1199.3560              1210.0447              1216.4496
 Red. masses --      1.3900                 1.4367                 1.4920
 Frc consts  --      1.1780                 1.2394                 1.3008
 IR Inten    --      0.6642                11.4425                22.7796

                     31                     32                     33
                      A                      A                      A
 Frequencies --   1225.1812              1236.6940              1243.1759
 Red. masses --      1.6040                 1.5068                 1.6762
 Frc consts  --      1.4186                 1.3578                 1.5263
 IR Inten    --    116.1064                16.0523                25.9455

                     34                     35                     36
                      A                      A                      A
 Frequencies --   1317.0092              1332.8675              1384.7624
 Red. masses --      1.3614                 1.7814                 1.2584
 Frc consts  --      1.3913                 1.8646                 1.4218
 IR Inten    --      1.0886                 3.5342                42.9277

                     37                     38                     39
                      A                      A                      A
 Frequencies --   1466.4119              1485.0923              1487.5651
 Red. masses --      1.2028                 1.1363                 1.0671
 Frc consts  --      1.5239                 1.4766                 1.3912
 IR Inten    --     78.0608                26.9859                 3.8278

                     40                     41                     42
                      A                      A                      A
 Frequencies --   1508.2387              1605.3519              2994.5934
 Red. masses --      1.0616                 5.3317                 1.0362
 Frc consts  --      1.4228                 8.0957                 5.4746
 IR Inten    --     12.2377                 0.7558                42.7758

                     43                     44                     45
                      A                      A                      A
 Frequencies --   3015.8438              3050.5468              3092.2421
 Red. masses --      1.0844                 1.1040                 1.0879
 Frc consts  --      5.8110                 6.0528                 6.1287
 IR Inten    --     70.0731                36.6892                46.0469

                     46                     47                     48
                      A                      A                      A
 Frequencies --   3122.0264              3125.6659              3129.4538
 Red. masses --      1.0900                 1.0986                 1.0908
 Frc consts  --      6.2594                 6.3237                 6.2938
 IR Inten    --     37.4071                22.4500                20.1682

                     49                     50                     51
                      A                      A                      A
 Frequencies --   3217.9212              3243.0709              3721.2442
 Red. masses --      1.0867                 1.1084                 1.0643
 Frc consts  --      6.6302                 6.8685                 8.6837
 IR Inten    --      4.8763                11.7205               122.6935

 - Thermochemistry -
 -------------------
 Temperature   298.150 Kelvin.  Pressure   1.00000 Atm.
 Atom     1 has atomic number  6 and mass  12.00000

 Molecular mass:   126.06808 amu.
 Principal axes and moments of inertia in atomic units:
                           1         2         3
     Eigenvalues --   676.610951178.296091462.79913
           X            0.99968  -0.02096   0.01403
           Y            0.02123   0.99959  -0.01943
           Z           -0.01362   0.01972   0.99971
 This molecule is an asymmetric top.
 Rotational symmetry number  1.
 Warning -- assumption of classical behavior for rotation
           may cause significant error
 Rotational temperatures (Kelvin)      0.12801     0.07351     0.05921
 Rotational constants (GHZ):           2.66732     1.53165     1.23376
 Zero-point vibrational energy     419566.9 (Joules/Mol)
                                  100.27889 (Kcal/Mol)
 Warning -- explicit consideration of  11 degrees of freedom as
           vibrations may cause significant error
 Vibrational temperatures:    137.11   242.58   269.55   420.35   442.91
          (Kelvin)            506.24   584.14   675.57   794.66   847.69
                              875.21   990.80  1005.71  1217.39  1271.13
                             1315.16  1318.13  1326.31  1363.65  1408.17
                             1442.88  1462.44  1561.52  1593.69  1636.03
                             1666.35  1702.76  1725.60  1740.98  1750.20
                             1762.76  1779.32  1788.65  1894.88  1917.70
                             1992.36  2109.84  2136.71  2140.27  2170.02
                             2309.74  4308.55  4339.12  4389.05  4449.04
                             4491.89  4497.13  4502.58  4629.87  4666.05
                             5354.03

 Zero-point correction=                           0.159805 (Hartree/Particle)
 Thermal correction to Energy=                    0.167750
 Thermal correction to Enthalpy=                  0.168694
 Thermal correction to Gibbs Free Energy=         0.127505
 Sum of electronic and zero-point Energies=           -422.979614
 Sum of electronic and thermal Energies=              -422.971669
 Sum of electronic and thermal Enthalpies=            -422.970724
 Sum of electronic and thermal Free Energies=         -423.011913

                     E (Thermal)             CV                S
                      KCal/Mol        Cal/Mol-Kelvin    Cal/Mol-Kelvin
 Total                  105.265             31.500             86.689
 Electronic               0.000              0.000              0.000
 Translational            0.889              2.981             40.409
 Rotational               0.889              2.981             28.546
 Vibrational            103.487             25.538             17.734
 Vibration     1          0.603              1.953              3.548
 Vibration     2          0.625              1.881              2.451
 Vibration     3          0.632              1.857              2.254
 Vibration     4          0.688              1.688              1.461
 Vibration     5          0.698              1.659              1.374
 Vibration     6          0.728              1.571              1.158
 Vibration     7          0.771              1.457              0.941
 Vibration     8          0.827              1.318              0.739
 Vibration     9          0.908              1.135              0.539
 Vibration    10          0.946              1.055              0.469
 Vibration    11          0.967              1.014              0.436

 Optimization completed.
    -- Stationary point found.
 Normal termination of Gaussian 09 at Tue Jan 28 14:50:45 2020.
