 Gaussian 09, Revision D.01,
 Gaussian 09:  ES64L-G09RevD.01 24-Apr-2013

 -----------------------------
 # b3lyp 6-31G(2df,p) opt Freq
 -----------------------------

 -----
 titel
 -----
 Symbolic Z-matrix:
 Charge =  0 Multiplicity = 1

 SCF Done:  E(RB3LYP) =  -423.181689961     A.U. after   14 cycles
 SCF Done:  E(RB3LYP) =  -423.181689794     A.U. after    7 cycles
 Optimization completed.
    -- Stationary point found.
 Normal termination of Gaussian 09 at Mon Jan 27 23:02:00 2020.

 ----------------------------------------------------------------------
 #N Geom=AllCheck Guess=TCheck SCRF=Check GenChk RB3LYP/6-31G(2df,p) Fr
 eq
 ----------------------------------------------------------------------

 Structure from the checkpoint file:  "/scratch/puck/g09_f36b4b75-bbce-4338-b484-717dfa80d0a8/Gau-183464.chk"
 -----
 titel
 -----
 Charge =  0 Multiplicity = 1

                         Standard orientation:
 ---------------------------------------------------------------------
 Center     Atomic      Atomic             Coordinates (Angstroms)
 Number     Number       Type             X           Y           Z
 ---------------------------------------------------------------------
      1          6           0       -0.296415    2.305889   -0.150349
      2          6           0       -0.556573    0.921390    0.440917
      3          6           0        0.695630    0.214616    1.003375
      4          8           0        0.251105   -1.176286    1.137472
      5          6           0        0.149199   -1.191789   -0.327453
      6          6           0       -0.990935   -0.185070   -0.597916
      7          6           0       -2.380601   -0.765512   -0.347324
      8          6           0        1.403577   -0.292417   -0.274143
      9          8           0        2.456416   -0.189216   -0.819290
     10          1           0        0.468796    2.270194   -0.933534
     11          1           0       -1.208483    2.717603   -0.593753
     12          1           0        0.045690    3.008192    0.617225
     13          1           0       -1.304445    0.991403    1.237761
     14          1           0        1.205840    0.613949    1.878273
     15          1           0        0.120574   -2.186371   -0.769540
     16          1           0       -0.923196    0.200211   -1.622010
     17          1           0       -2.425776   -1.232996    0.640653
     18          1           0       -3.143117    0.019838   -0.386096
     19          1           0       -2.639352   -1.520656   -1.097071
 ---------------------------------------------------------------------

 SCF Done:  E(RB3LYP) =  -423.181689794     A.U. after    1 cycles

 The electronic state is 1-A.
 Alpha  occ. eigenvalues --  -19.16051 -19.14958 -10.27906 -10.24616 -10.24610
 Alpha  occ. eigenvalues --  -10.20382 -10.20362 -10.18775 -10.18310  -1.07800
 Alpha  occ. eigenvalues --   -1.04825  -0.82519  -0.75931  -0.71644  -0.68880
 Alpha  occ. eigenvalues --   -0.63731  -0.56696  -0.54756  -0.50492  -0.46842
 Alpha  occ. eigenvalues --   -0.46261  -0.45678  -0.42826  -0.41274  -0.40002
 Alpha  occ. eigenvalues --   -0.39961  -0.39472  -0.37471  -0.35253  -0.34799
 Alpha  occ. eigenvalues --   -0.34197  -0.32698  -0.27106  -0.24834
 Alpha virt. eigenvalues --   -0.01421   0.07575   0.09062   0.11325   0.11749
 Alpha virt. eigenvalues --    0.12528   0.13980   0.15026   0.15456   0.15835
 Alpha virt. eigenvalues --    0.16555   0.17594   0.18180   0.19738   0.20771

 Mulliken charges:
               1
     1  C   -0.423656
     2  C   -0.002675
     3  C   -0.054061
     4  O   -0.295657
     5  C   -0.063833
     6  C    0.007604
     7  C   -0.418035
     8  C    0.453889
     9  O   -0.319431
    10  H    0.131974
    11  H    0.123991
    12  H    0.121643
    13  H    0.086357
    14  H    0.100718
    15  H    0.099800
    16  H    0.083757
    17  H    0.134475
    18  H    0.117477
    19  H    0.115662
 Sum of Mulliken charges =   0.00000

 Dipole moment (field-independent basis, Debye):
    X=             -2.4701    Y=              1.0414    Z=              0.0019  Tot=              2.6807
 Quadrupole moment (field-independent basis, Debye-Ang):
   XX=            -59.6141   YY=            -52.0112   ZZ=            -53.7778
   XY=              0.5360   XZ=              3.6945   YZ=              3.2010

  Exact polarizability:  81.383   2.546  75.479  -0.248   3.963  67.433
 Approx polarizability: 116.823   4.628 107.699  -6.644   1.593 111.046

                      1                      2                      3
                      A                      A                      A
 Frequencies --    114.6307               129.4780               222.7544
 Red. masses --      3.5186                 5.7533                 1.1529
 Frc consts  --      0.0272                 0.0568                 0.0337
 IR Inten    --      0.4704                 3.6110                 0.0226

                      4                      5                      6
                      A                      A                      A
 Frequencies --    232.6071               241.5805               279.3168
 Red. masses --      1.7672                 1.2113                 3.1345
 Frc consts  --      0.0563                 0.0417                 0.1441
 IR Inten    --      0.1752                 0.4366                 4.2303

                      7                      8                      9
                      A                      A                      A
 Frequencies --    316.5984               434.2901               502.3223
 Red. masses --      2.5656                 3.8067                 6.0844
 Frc consts  --      0.1515                 0.4230                 0.9046
 IR Inten    --      1.1697                 2.2865                 5.8160

                     10                     11                     12
                      A                      A                      A
 Frequencies --    529.6591               626.5024               673.7891
 Red. masses --      3.4602                 4.6001                 3.4947
 Frc consts  --      0.5719                 1.0638                 0.9348
 IR Inten    --      3.3494                 1.1729                 1.8186

                     13                     14                     15
                      A                      A                      A
 Frequencies --    762.5233               793.0736               860.2286
 Red. masses --      4.1376                 2.1695                 2.4933
 Frc consts  --      1.4174                 0.8040                 1.0871
 IR Inten    --      1.5637                 2.8591                10.5386

                     16                     17                     18
                      A                      A                      A
 Frequencies --    870.2926               876.3271               923.2872
 Red. masses --      5.0016                 4.1404                 2.3416
 Frc consts  --      2.2320                 1.8734                 1.1761
 IR Inten    --     22.9829                37.4254                24.1569

                     19                     20                     21
                      A                      A                      A
 Frequencies --    985.0217              1015.6463              1042.9927
 Red. masses --      1.6895                 1.4932                 1.8249
 Frc consts  --      0.9658                 0.9075                 1.1696
 IR Inten    --      0.6355                 7.0811                 5.6198

                     22                     23                     24
                      A                      A                      A
 Frequencies --   1055.4627              1058.3022              1085.3611
 Red. masses --      2.4539                 2.4676                 1.6243
 Frc consts  --      1.6106                 1.6283                 1.1273
 IR Inten    --      3.5982                 2.1402                 5.8939

                     25                     26                     27
                      A                      A                      A
 Frequencies --   1107.1096              1163.2044              1189.8640
 Red. masses --      2.1908                 2.2569                 2.0344
 Frc consts  --      1.5821                 1.7992                 1.6970
 IR Inten    --      2.3713                 0.9173                 0.1914

                     28                     29                     30
                      A                      A                      A
 Frequencies --   1205.1723              1230.6970              1253.0134
 Red. masses --      1.4823                 1.4194                 1.5804
 Frc consts  --      1.2685                 1.2667                 1.4619
 IR Inten    --      0.3565                 0.6831                 3.8566

                     31                     32                     33
                      A                      A                      A
 Frequencies --   1290.7561              1315.9093              1345.3651
 Red. masses --      1.3917                 1.4062                 1.5144
 Frc consts  --      1.3661                 1.4347                 1.6150
 IR Inten    --      1.4394                 2.7318                 2.0859

                     34                     35                     36
                      A                      A                      A
 Frequencies --   1376.8638              1406.1460              1417.9949
 Red. masses --      1.5563                 1.2381                 1.2269
 Frc consts  --      1.7383                 1.4423                 1.4534
 IR Inten    --      2.5640                 3.9085                 2.4380

                     37                     38                     39
                      A                      A                      A
 Frequencies --   1494.0159              1498.5730              1499.6226
 Red. masses --      1.0422                 1.0491                 1.0436
 Frc consts  --      1.3706                 1.3881                 1.3828
 IR Inten    --      5.5656                 2.5744                 6.0766

                     40                     41                     42
                      A                      A                      A
 Frequencies --   1504.4770              1922.2396              3031.5380
 Red. masses --      1.0506                12.3244                 1.0362
 Frc consts  --      1.4011                26.8305                 5.6109
 IR Inten    --      2.7381               319.2998                19.6189

                     43                     44                     45
                      A                      A                      A
 Frequencies --   3031.8802              3040.6175              3049.8207
 Red. masses --      1.0380                 1.0804                 1.0851
 Frc consts  --      5.6216                 5.8851                 5.9465
 IR Inten    --     20.4254                16.4636                17.5028

                     46                     47                     48
                      A                      A                      A
 Frequencies --   3097.2980              3099.7101              3104.1340
 Red. masses --      1.1015                 1.1012                 1.1013
 Frc consts  --      6.2259                 6.2340                 6.2525
 IR Inten    --     14.9468                26.2777                24.0518

                     49                     50                     51
                      A                      A                      A
 Frequencies --   3115.1565              3144.2195              3147.4784
 Red. masses --      1.1012                 1.0889                 1.0944
 Frc consts  --      6.2961                 6.3424                 6.3878
 IR Inten    --     20.2076                34.9785                 7.5065

 - Thermochemistry -
 -------------------
 Temperature   298.150 Kelvin.  Pressure   1.00000 Atm.
 Atom     1 has atomic number  6 and mass  12.00000

 Molecular mass:   126.06808 amu.
 Principal axes and moments of inertia in atomic units:
                           1         2         3
     Eigenvalues --   785.382451091.069901408.28476
           X            0.99884   0.03853   0.02901
           Y           -0.03943   0.99874   0.03110
           Z           -0.02777  -0.03221   0.99910
 This molecule is an asymmetric top.
 Rotational symmetry number  1.
 Warning -- assumption of classical behavior for rotation
           may cause significant error
 Rotational temperatures (Kelvin)      0.11028     0.07938     0.06150
 Rotational constants (GHZ):           2.29791     1.65410     1.28152
 Zero-point vibrational energy     416987.8 (Joules/Mol)
                                   99.66249 (Kcal/Mol)
 Warning -- explicit consideration of  10 degrees of freedom as
           vibrations may cause significant error
 Vibrational temperatures:    164.93   186.29   320.49   334.67   347.58
          (Kelvin)            401.87   455.51   624.85   722.73   762.06
                              901.40   969.43  1097.10  1141.05  1237.68
                             1252.16  1260.84  1328.40  1417.22  1461.29
                             1500.63  1518.57  1522.66  1561.59  1592.88
                             1673.59  1711.95  1733.97  1770.70  1802.80
                             1857.11  1893.30  1935.68  1981.00  2023.13
                             2040.18  2149.55  2156.11  2157.62  2164.60
                             2765.67  4361.70  4362.19  4374.76  4388.01
                             4456.32  4459.79  4466.15  4482.01  4523.82
                             4528.51

 Zero-point correction=                           0.158822 (Hartree/Particle)
 Thermal correction to Energy=                    0.167169
 Thermal correction to Enthalpy=                  0.168113
 Thermal correction to Gibbs Free Energy=         0.126116
 Sum of electronic and zero-point Energies=           -423.022868
 Sum of electronic and thermal Energies=              -423.014521
 Sum of electronic and thermal Enthalpies=            -423.013577
 Sum of electronic and thermal Free Energies=         -423.055574

                     E (Thermal)             CV                S
                      KCal/Mol        Cal/Mol-Kelvin    Cal/Mol-Kelvin
 Total                  104.900             32.058             88.390
 Electronic               0.000              0.000              0.000
 Translational            0.889              2.981             40.409
 Rotational               0.889              2.981             28.580
 Vibrational            103.123             26.096             19.401
 Vibration     1          0.608              1.937              3.189
 Vibration     2          0.612              1.924              2.954
 Vibration     3          0.648              1.806              1.937
 Vibration     4          0.653              1.791              1.859
 Vibration     5          0.658              1.777              1.791
 Vibration     6          0.680              1.712              1.538
 Vibration     7          0.703              1.642              1.328
 Vibration     8          0.795              1.395              0.845
 Vibration     9          0.858              1.245              0.652
 Vibration    10          0.885              1.184              0.588

 Optimization completed.
    -- Stationary point found.
 Normal termination of Gaussian 09 at Mon Jan 27 23:45:59 2020.
