 Gaussian 09, Revision D.01,
 Gaussian 09:  ES64L-G09RevD.01 24-Apr-2013

 -----------------------------
 # b3lyp 6-31G(2df,p) opt Freq
 -----------------------------

 -----
 titel
 -----
 Symbolic Z-matrix:
 Charge =  0 Multiplicity = 1

 SCF Done:  E(RB3LYP) =  -423.130324626     A.U. after   14 cycles
 Optimization completed.
    -- Stationary point found.
 Normal termination of Gaussian 09 at Tue Jan 28 12:03:31 2020.

 ----------------------------------------------------------------------
 #N Geom=AllCheck Guess=TCheck SCRF=Check GenChk RB3LYP/6-31G(2df,p) Fr
 eq
 ----------------------------------------------------------------------

 Structure from the checkpoint file:  "/scratch/puck/g09_cd1badee-6b16-47d6-b216-8ac3bc09c207/Gau-139578.chk"
 -----
 titel
 -----
 Charge =  0 Multiplicity = 1

                         Standard orientation:
 ---------------------------------------------------------------------
 Center     Atomic      Atomic             Coordinates (Angstroms)
 Number     Number       Type             X           Y           Z
 ---------------------------------------------------------------------
      1          6           0        2.733435    1.346029   -0.439188
      2          6           0        1.979160    0.084072   -0.073677
      3          6           0        2.508105   -1.237691   -0.472298
      4          8           0        2.655698   -0.777642    0.866131
      5          6           0        0.557670    0.236826    0.135760
      6          6           0       -0.620918    0.416002    0.312360
      7          6           0       -2.057096    0.572576    0.496588
      8          6           0       -2.876414   -0.417797   -0.356776
      9          8           0       -4.266882   -0.283693   -0.135775
     10          1           0        3.796322    1.125731   -0.565140
     11          1           0        2.343413    1.771322   -1.368870
     12          1           0        2.622858    2.095594    0.349769
     13          1           0        1.819396   -2.069090   -0.611248
     14          1           0        3.424234   -1.282639   -1.061141
     15          1           0       -2.325587    0.427404    1.549929
     16          1           0       -2.355079    1.598919    0.239858
     17          1           0       -2.613201   -0.295109   -1.417369
     18          1           0       -2.618222   -1.441723   -0.072010
     19          1           0       -4.548313    0.560170   -0.503246
 ---------------------------------------------------------------------

 SCF Done:  E(RB3LYP) =  -423.130324626     A.U. after    1 cycles

 The electronic state is 1-A.
 Alpha  occ. eigenvalues --  -19.15231 -19.14266 -10.26311 -10.23678 -10.23645
 Alpha  occ. eigenvalues --  -10.20987 -10.18685 -10.18313 -10.17568  -1.07325
 Alpha  occ. eigenvalues --   -1.02449  -0.79892  -0.76690  -0.71546  -0.66431
 Alpha  occ. eigenvalues --   -0.64637  -0.61264  -0.52094  -0.51471  -0.48341
 Alpha  occ. eigenvalues --   -0.47413  -0.45754  -0.43425  -0.41114  -0.40708
 Alpha  occ. eigenvalues --   -0.39624  -0.39198  -0.37896  -0.33612  -0.32491
 Alpha  occ. eigenvalues --   -0.28417  -0.27552  -0.26078  -0.24647
 Alpha virt. eigenvalues --    0.03030   0.04450   0.06998   0.10516   0.11346
 Alpha virt. eigenvalues --    0.12469   0.13575   0.14048   0.14704   0.14894
 Alpha virt. eigenvalues --    0.16094   0.18467   0.19210   0.20098   0.21447

 Mulliken charges:
               1
     1  C   -0.466469
     2  C    0.224717
     3  C   -0.210068
     4  O   -0.258084
     5  C    0.053530
     6  C    0.083131
     7  C   -0.364360
     8  C   -0.054851
     9  O   -0.407179
    10  H    0.127564
    11  H    0.129101
    12  H    0.136754
    13  H    0.118156
    14  H    0.113089
    15  H    0.144104
    16  H    0.119137
    17  H    0.100220
    18  H    0.126969
    19  H    0.284539
 Sum of Mulliken charges =   0.00000

 Dipole moment (field-independent basis, Debye):
    X=             -0.2762    Y=              1.5308    Z=             -2.2528  Tot=              2.7377
 Quadrupole moment (field-independent basis, Debye-Ang):
   XX=            -54.2587   YY=            -50.6462   ZZ=            -54.0708
   XY=             -5.1200   XZ=             -2.7779   YZ=              1.0943

  Exact polarizability: 116.068  -7.074  72.096  -5.940   2.391  59.499
 Approx polarizability: 156.583 -15.749 102.680  -7.938   2.086  92.078

                      1                      2                      3
                      A                      A                      A
 Frequencies --      9.8332                66.5253                75.9980
 Red. masses --      2.5270                 4.3511                 2.8526
 Frc consts  --      0.0001                 0.0113                 0.0097
 IR Inten    --      1.3880                 0.6012                 1.5496

                      4                      5                      6
                      A                      A                      A
 Frequencies --    136.2463               176.6589               209.6013
 Red. masses --      3.6028                 2.4837                 1.2955
 Frc consts  --      0.0394                 0.0457                 0.0335
 IR Inten    --      5.2697                 1.1902                 1.0450

                      7                      8                      9
                      A                      A                      A
 Frequencies --    290.4363               316.6325               335.6258
 Red. masses --      1.7213                 1.6438                 3.6796
 Frc consts  --      0.0855                 0.0971                 0.2442
 IR Inten    --     33.6992                73.6916                 6.8670

                     10                     11                     12
                      A                      A                      A
 Frequencies --    359.2117               397.4028               452.0663
 Red. masses --      2.6860                 3.7978                 4.4159
 Frc consts  --      0.2042                 0.3534                 0.5317
 IR Inten    --      5.3507                16.3633                 1.9227

                     13                     14                     15
                      A                      A                      A
 Frequencies --    555.6219               561.0222               646.9155
 Red. masses --      6.5716                 5.9059                 4.5443
 Frc consts  --      1.1953                 1.0952                 1.1205
 IR Inten    --      6.2374                 3.9043                 1.9545

                     16                     17                     18
                      A                      A                      A
 Frequencies --    778.8420               793.6734               872.2928
 Red. masses --      1.1593                 4.2201                 2.5071
 Frc consts  --      0.4143                 1.5662                 1.1240
 IR Inten    --      1.9910                23.0734                19.5491

                     19                     20                     21
                      A                      A                      A
 Frequencies --    923.9612              1007.6961              1027.0675
 Red. masses --      1.6264                 3.3067                 2.1504
 Frc consts  --      0.8180                 1.9784                 1.3365
 IR Inten    --      3.7984                 4.9670                 6.7895

                     22                     23                     24
                      A                      A                      A
 Frequencies --   1050.7821              1068.6263              1084.3728
 Red. masses --      1.8680                 2.2008                 4.2887
 Frc consts  --      1.2152                 1.4808                 2.9712
 IR Inten    --     76.6378                20.0891                82.6299

                     25                     26                     27
                      A                      A                      A
 Frequencies --   1097.8736              1137.0927              1166.3373
 Red. masses --      1.7019                 1.3268                 1.3314
 Frc consts  --      1.2086                 1.0108                 1.0671
 IR Inten    --     14.1423                 3.5533                 0.4810

                     28                     29                     30
                      A                      A                      A
 Frequencies --   1169.0666              1278.8816              1298.3866
 Red. masses --      1.1333                 1.8597                 1.8274
 Frc consts  --      0.9126                 1.7921                 1.8151
 IR Inten    --      9.7366                18.2084                 8.3198

                     31                     32                     33
                      A                      A                      A
 Frequencies --   1313.0548              1369.6554              1395.3565
 Red. masses --      1.2831                 3.2695                 1.2867
 Frc consts  --      1.3034                 3.6137                 1.4760
 IR Inten    --     25.4892                35.7583                18.0124

                     34                     35                     36
                      A                      A                      A
 Frequencies --   1410.7131              1412.2576              1470.2120
 Red. masses --      1.2993                 1.2489                 1.0866
 Frc consts  --      1.5235                 1.4676                 1.3838
 IR Inten    --     11.6787                34.7316                 2.2435

                     37                     38                     39
                      A                      A                      A
 Frequencies --   1478.4402              1494.7868              1509.3956
 Red. masses --      1.0468                 1.0618                 1.0889
 Frc consts  --      1.3481                 1.3978                 1.4617
 IR Inten    --      3.6739                 0.7060                 0.5217

                     40                     41                     42
                      A                      A                      A
 Frequencies --   1521.0231              2361.7256              3002.0118
 Red. masses --      1.2518                11.9279                 1.0686
 Frc consts  --      1.7063                39.1987                 5.6740
 IR Inten    --      2.2220                 9.8674                35.3815

                     43                     44                     45
                      A                      A                      A
 Frequencies --   3010.8024              3044.1212              3057.4477
 Red. masses --      1.0648                 1.0345                 1.0928
 Frc consts  --      5.6867                 5.6480                 6.0190
 IR Inten    --     31.4764                14.4137                 9.3831

                     46                     47                     48
                      A                      A                      A
 Frequencies --   3078.9380              3096.1126              3115.4136
 Red. masses --      1.0505                 1.0976                 1.1014
 Frc consts  --      5.8672                 6.1992                 6.2984
 IR Inten    --     27.8909                27.3647                13.8949

                     49                     50                     51
                      A                      A                      A
 Frequencies --   3128.9372              3171.1700              3817.3232
 Red. masses --      1.1027                 1.1193                 1.0662
 Frc consts  --      6.3609                 6.6321                 9.1540
 IR Inten    --     17.1835                23.3244                23.2728

 - Thermochemistry -
 -------------------
 Temperature   298.150 Kelvin.  Pressure   1.00000 Atm.
 Atom     1 has atomic number  6 and mass  12.00000

 Molecular mass:   126.06808 amu.
 Principal axes and moments of inertia in atomic units:
                           1         2         3
     Eigenvalues --   398.779993192.985683365.79136
           X            0.99996   0.00407  -0.00842
           Y           -0.00381   0.99953   0.03052
           Z            0.00854  -0.03048   0.99950
 This molecule is an asymmetric top.
 Rotational symmetry number  1.
 Rotational temperatures (Kelvin)      0.21720     0.02713     0.02573
 Rotational constants (GHZ):           4.52566     0.56522     0.53620
 Zero-point vibrational energy     410340.9 (Joules/Mol)
                                   98.07384 (Kcal/Mol)
 Warning -- explicit consideration of  14 degrees of freedom as
           vibrations may cause significant error
 Vibrational temperatures:     14.15    95.72   109.34   196.03   254.17
          (Kelvin)            301.57   417.87   455.56   482.89   516.82
                              571.77   650.42   799.42   807.18   930.77
                             1120.58  1141.92  1255.03  1329.37  1449.85
                             1477.72  1511.84  1537.51  1560.17  1579.59
                             1636.02  1678.10  1682.02  1840.02  1868.09
                             1889.19  1970.63  2007.60  2029.70  2031.92
                             2115.30  2127.14  2150.66  2171.68  2188.41
                             3397.99  4319.22  4331.87  4379.81  4398.98
                             4429.90  4454.61  4482.38  4501.84  4562.60
                             5492.27

 Zero-point correction=                           0.156291 (Hartree/Particle)
 Thermal correction to Energy=                    0.166681
 Thermal correction to Enthalpy=                  0.167625
 Thermal correction to Gibbs Free Energy=         0.118359
 Sum of electronic and zero-point Energies=           -422.974034
 Sum of electronic and thermal Energies=              -422.963644
 Sum of electronic and thermal Enthalpies=            -422.962699
 Sum of electronic and thermal Free Energies=         -423.011966

                     E (Thermal)             CV                S
                      KCal/Mol        Cal/Mol-Kelvin    Cal/Mol-Kelvin
 Total                  104.594             36.249            103.690
 Electronic               0.000              0.000              0.000
 Translational            0.889              2.981             40.409
 Rotational               0.889              2.981             29.840
 Vibrational            102.816             30.288             33.442
 Vibration     1          0.593              1.987              8.044
 Vibration     2          0.598              1.970              4.254
 Vibration     3          0.599              1.965              3.992
 Vibration     4          0.614              1.917              2.856
 Vibration     5          0.628              1.871              2.363
 Vibration     6          0.642              1.826              2.047
 Vibration     7          0.686              1.692              1.471
 Vibration     8          0.704              1.642              1.327
 Vibration     9          0.717              1.604              1.233
 Vibration    10          0.734              1.556              1.126
 Vibration    11          0.764              1.476              0.972
 Vibration    12          0.811              1.356              0.790
 Vibration    13          0.911              1.127              0.533
 Vibration    14          0.917              1.116              0.522

 Optimization completed on the basis of negligible forces.
    -- Stationary point found.
 Normal termination of Gaussian 09 at Tue Jan 28 12:34:59 2020.
