 Gaussian 09, Revision D.01,
 Gaussian 09:  ES64L-G09RevD.01 24-Apr-2013

 -----------------------------
 # b3lyp 6-31G(2df,p) opt Freq
 -----------------------------

 -----
 titel
 -----
 Symbolic Z-matrix:
 Charge =  0 Multiplicity = 1

 SCF Done:  E(RB3LYP) =  -423.116420416     A.U. after   14 cycles
 SCF Done:  E(RB3LYP) =  -423.116420336     A.U. after    8 cycles
 SCF Done:  E(RB3LYP) =  -423.116420554     A.U. after    7 cycles
 SCF Done:  E(RB3LYP) =  -423.116420581     A.U. after    7 cycles
 SCF Done:  E(RB3LYP) =  -423.116420630     A.U. after    7 cycles
 SCF Done:  E(RB3LYP) =  -423.116420667     A.U. after    7 cycles
 SCF Done:  E(RB3LYP) =  -423.116420758     A.U. after    7 cycles
 SCF Done:  E(RB3LYP) =  -423.116420913     A.U. after    8 cycles
 SCF Done:  E(RB3LYP) =  -423.116420984     A.U. after    7 cycles
 Optimization completed.
    -- Stationary point found.
 Normal termination of Gaussian 09 at Tue Jan 28 12:38:43 2020.

 ----------------------------------------------------------------------
 #N Geom=AllCheck Guess=TCheck SCRF=Check GenChk RB3LYP/6-31G(2df,p) Fr
 eq
 ----------------------------------------------------------------------

 Structure from the checkpoint file:  "/scratch/puck/g09_053a0c9e-5525-46c8-852c-8037df20cbbf/Gau-1154.chk"
 -----
 titel
 -----
 Charge =  0 Multiplicity = 1

                         Standard orientation:
 ---------------------------------------------------------------------
 Center     Atomic      Atomic             Coordinates (Angstroms)
 Number     Number       Type             X           Y           Z
 ---------------------------------------------------------------------
      1          6           0        4.190738   -0.127343   -0.284883
      2          8           0        2.801899   -0.117779   -0.518643
      3          6           0        2.066985    0.118542    0.667375
      4          6           0        0.638575    0.123855    0.391334
      5          6           0       -0.547808    0.123293    0.178785
      6          6           0       -1.966952    0.166307   -0.053930
      7          8           0       -2.497437    1.427744   -0.372097
      8          6           0       -2.867879   -0.793661    0.711432
      9          6           0       -2.646247   -0.973413   -0.768268
     10          1           0        4.678454   -0.314438   -1.243980
     11          1           0        4.546610    0.836315    0.114096
     12          1           0        4.482490   -0.919086    0.424064
     13          1           0        2.298267   -0.655071    1.421252
     14          1           0        2.361627    1.084740    1.114448
     15          1           0       -2.303118    2.018248    0.364486
     16          1           0       -2.405374   -1.493192    1.397666
     17          1           0       -3.820396   -0.384321    1.028149
     18          1           0       -2.029855   -1.795802   -1.109352
     19          1           0       -3.448868   -0.682595   -1.435985
 ---------------------------------------------------------------------

 SCF Done:  E(RB3LYP) =  -423.116420984     A.U. after    1 cycles

 The electronic state is 1-A.
 Alpha  occ. eigenvalues --  -19.14514 -19.14373 -10.25975 -10.25254 -10.22683
 Alpha  occ. eigenvalues --  -10.19084 -10.19045 -10.17801 -10.17552  -1.03751
 Alpha  occ. eigenvalues --   -1.03252  -0.85395  -0.77496  -0.71599  -0.65666
 Alpha  occ. eigenvalues --   -0.61608  -0.60781  -0.54919  -0.49931  -0.48838
 Alpha  occ. eigenvalues --   -0.48629  -0.48151  -0.44720  -0.40938  -0.40478
 Alpha  occ. eigenvalues --   -0.39614  -0.37202  -0.35116  -0.32754  -0.31494
 Alpha  occ. eigenvalues --   -0.28022  -0.27001  -0.25120  -0.23800
 Alpha virt. eigenvalues --    0.03077   0.04052   0.09325   0.09646   0.11990
 Alpha virt. eigenvalues --    0.12975   0.13983   0.14325   0.15647   0.16255
 Alpha virt. eigenvalues --    0.16677   0.18862   0.19058   0.19925   0.22538

 Mulliken charges:
               1
     1  C   -0.218435
     2  O   -0.225720
     3  C   -0.202934
     4  C   -0.067227
     5  C    0.174666
     6  C    0.223699
     7  O   -0.442718
     8  C   -0.312720
     9  C   -0.287458
    10  H    0.131779
    11  H    0.104122
    12  H    0.103693
    13  H    0.113829
    14  H    0.113682
    15  H    0.284020
    16  H    0.123026
    17  H    0.121823
    18  H    0.130819
    19  H    0.132051
 Sum of Mulliken charges =   0.00000

 Dipole moment (field-independent basis, Debye):
    X=              0.8767    Y=             -0.1358    Z=              2.1736  Tot=              2.3477
 Quadrupole moment (field-independent basis, Debye-Ang):
   XX=            -44.6417   YY=            -51.4498   ZZ=            -53.2781
   XY=              0.9208   XZ=             -0.0796   YZ=              2.7656

  Exact polarizability: 123.071   2.631  66.437   3.471   1.550  64.552
 Approx polarizability: 159.020   2.032  96.063   9.593   1.663  96.573

                      1                      2                      3
                      A                      A                      A
 Frequencies --     24.2546                70.1504                73.5898
 Red. masses --      2.8281                 2.5705                 4.2128
 Frc consts  --      0.0010                 0.0075                 0.0134
 IR Inten    --      0.5645                 4.6871                 0.8296

                      4                      5                      6
                      A                      A                      A
 Frequencies --    121.9226               193.5564               231.2738
 Red. masses --      3.5414                 3.0561                 1.1663
 Frc consts  --      0.0310                 0.0675                 0.0368
 IR Inten    --      0.2253                 5.1220                 2.8329

                      7                      8                      9
                      A                      A                      A
 Frequencies --    289.3383               299.2632               336.4890
 Red. masses --      2.4773                 1.8292                 2.1848
 Frc consts  --      0.1222                 0.0965                 0.1457
 IR Inten    --      7.4634                42.2077                56.3350

                     10                     11                     12
                      A                      A                      A
 Frequencies --    354.4575               398.6835               474.1586
 Red. masses --      2.7115                 3.3224                 4.5910
 Frc consts  --      0.2007                 0.3111                 0.6081
 IR Inten    --      4.4882                14.7724                 4.7956

                     13                     14                     15
                      A                      A                      A
 Frequencies --    552.2531               577.6339               664.7955
 Red. masses --      7.1663                 4.7840                 4.8624
 Frc consts  --      1.2877                 0.9405                 1.2661
 IR Inten    --     11.6871                 4.7558                 2.0526

                     16                     17                     18
                      A                      A                      A
 Frequencies --    776.7056               870.2442               887.9944
 Red. masses --      1.0557                 2.8620                 4.2238
 Frc consts  --      0.3752                 1.2770                 1.9624
 IR Inten    --      0.7967                 9.6025                14.0507

                     19                     20                     21
                      A                      A                      A
 Frequencies --    928.0868               973.9699               989.7475
 Red. masses --      1.2581                 4.0808                 2.4100
 Frc consts  --      0.6385                 2.2808                 1.3910
 IR Inten    --      7.4415                35.5252                15.9434

                     22                     23                     24
                      A                      A                      A
 Frequencies --   1024.0921              1054.8484              1075.9853
 Red. masses --      1.6320                 1.4077                 3.0455
 Frc consts  --      1.0084                 0.9228                 2.0774
 IR Inten    --      1.9658                19.1697                22.9170

                     25                     26                     27
                      A                      A                      A
 Frequencies --   1083.4343              1149.3035              1182.3676
 Red. masses --      1.3872                 6.2567                 1.2795
 Frc consts  --      0.9594                 4.8693                 1.0539
 IR Inten    --      2.9583               184.3523                 2.9002

                     28                     29                     30
                      A                      A                      A
 Frequencies --   1194.6174              1219.0805              1239.8884
 Red. masses --      1.2784                 1.5549                 2.2226
 Frc consts  --      1.0750                 1.3615                 2.0132
 IR Inten    --      0.2161                44.7021               121.6407

                     31                     32                     33
                      A                      A                      A
 Frequencies --   1255.1652              1311.9432              1381.0466
 Red. masses --      1.0807                 2.6877                 1.6343
 Frc consts  --      1.0032                 2.7255                 1.8365
 IR Inten    --      2.8631                19.1740                28.1224

                     34                     35                     36
                      A                      A                      A
 Frequencies --   1409.6313              1449.1403              1476.8230
 Red. masses --      1.4306                 1.0914                 1.1574
 Frc consts  --      1.6748                 1.3504                 1.4873
 IR Inten    --    137.5859                 2.2742                 0.2890

                     37                     38                     39
                      A                      A                      A
 Frequencies --   1484.5712              1486.6455              1493.0041
 Red. masses --      1.0478                 1.4187                 1.0753
 Frc consts  --      1.3606                 1.8474                 1.4122
 IR Inten    --      5.5036                 4.4811                 2.6505

                     40                     41                     42
                      A                      A                      A
 Frequencies --   1515.0882              2356.8217              2940.1299
 Red. masses --      1.0750                11.9267                 1.0532
 Frc consts  --      1.4540                39.0323                 5.3642
 IR Inten    --      3.5791                20.0737                29.8175

                     43                     44                     45
                      A                      A                      A
 Frequencies --   2956.6672              2966.8809              3008.8202
 Red. masses --      1.1023                 1.0383                 1.1030
 Frc consts  --      5.6776                 5.3847                 5.8832
 IR Inten    --     45.1625                80.8831                58.9887

                     46                     47                     48
                      A                      A                      A
 Frequencies --   3121.0214              3139.9364              3148.5656
 Red. masses --      1.0953                 1.0519                 1.0556
 Frc consts  --      6.2862                 6.1102                 6.1658
 IR Inten    --     25.3261                 9.8456                 4.4638

                     49                     50                     51
                      A                      A                      A
 Frequencies --   3231.0001              3246.6771              3798.0733
 Red. masses --      1.1196                 1.1171                 1.0661
 Frc consts  --      6.8863                 6.9379                 9.0606
 IR Inten    --      1.2607                 6.1021                21.1768

 - Thermochemistry -
 -------------------
 Temperature   298.150 Kelvin.  Pressure   1.00000 Atm.
 Atom     1 has atomic number  6 and mass  12.00000

 Molecular mass:   126.06808 amu.
 Principal axes and moments of inertia in atomic units:
                           1         2         3
     Eigenvalues --   378.430293144.878393240.13812
           X            0.99997   0.00701   0.00243
           Y           -0.00714   0.99826   0.05857
           Z           -0.00202  -0.05858   0.99828
 This molecule is an asymmetric top.
 Rotational symmetry number  1.
 Rotational temperatures (Kelvin)      0.22888     0.02754     0.02673
 Rotational constants (GHZ):           4.76902     0.57387     0.55700
 Zero-point vibrational energy     409660.2 (Joules/Mol)
                                   97.91114 (Kcal/Mol)
 Warning -- explicit consideration of  14 degrees of freedom as
           vibrations may cause significant error
 Vibrational temperatures:     34.90   100.93   105.88   175.42   278.48
          (Kelvin)            332.75   416.29   430.57   484.13   509.98
                              573.62   682.21   794.57   831.09   956.49
                             1117.50  1252.09  1277.62  1335.31  1401.32
                             1424.02  1473.44  1517.69  1548.10  1558.82
                             1653.59  1701.16  1718.79  1753.98  1783.92
                             1805.90  1887.59  1987.02  2028.14  2084.99
                             2124.82  2135.96  2138.95  2148.10  2179.87
                             3390.94  4230.19  4253.98  4268.67  4329.02
                             4490.45  4517.66  4530.08  4648.68  4671.24
                             5464.57

 Zero-point correction=                           0.156031 (Hartree/Particle)
 Thermal correction to Energy=                    0.166346
 Thermal correction to Enthalpy=                  0.167290
 Thermal correction to Gibbs Free Energy=         0.119010
 Sum of electronic and zero-point Energies=           -422.960390
 Sum of electronic and thermal Energies=              -422.950075
 Sum of electronic and thermal Enthalpies=            -422.949131
 Sum of electronic and thermal Free Energies=         -422.997411

                     E (Thermal)             CV                S
                      KCal/Mol        Cal/Mol-Kelvin    Cal/Mol-Kelvin
 Total                  104.384             36.207            101.613
 Electronic               0.000              0.000              0.000
 Translational            0.889              2.981             40.409
 Rotational               0.889              2.981             29.735
 Vibrational            102.606             30.245             31.470
 Vibration     1          0.593              1.985              6.251
 Vibration     2          0.598              1.968              4.149
 Vibration     3          0.599              1.966              4.055
 Vibration     4          0.609              1.931              3.070
 Vibration     5          0.635              1.849              2.194
 Vibration     6          0.653              1.793              1.869
 Vibration     7          0.686              1.694              1.478
 Vibration     8          0.692              1.675              1.421
 Vibration     9          0.717              1.603              1.229
 Vibration    10          0.730              1.566              1.146
 Vibration    11          0.765              1.473              0.968
 Vibration    12          0.831              1.307              0.726
 Vibration    13          0.908              1.135              0.540
 Vibration    14          0.934              1.080              0.490

 Optimization completed.
    -- Stationary point found.
 Normal termination of Gaussian 09 at Tue Jan 28 13:12:26 2020.
