 Gaussian 09, Revision D.01,
 Gaussian 09:  ES64L-G09RevD.01 24-Apr-2013

 -----------------------------
 # b3lyp 6-31G(2df,p) opt Freq
 -----------------------------

 -----
 titel
 -----
 Symbolic Z-matrix:
 Charge =  0 Multiplicity = 1

 SCF Done:  E(RB3LYP) =  -423.191473960     A.U. after   13 cycles
 Optimization completed.
    -- Stationary point found.
 Normal termination of Gaussian 09 at Mon Jan 27 19:03:17 2020.

 ----------------------------------------------------------------------
 #N Geom=AllCheck Guess=TCheck SCRF=Check GenChk RB3LYP/6-31G(2df,p) Fr
 eq
 ----------------------------------------------------------------------

 Structure from the checkpoint file:  "/scratch/puck/g09_31e66c3a-4bd2-4fce-8b11-193ca96cc2b5/Gau-173273.chk"
 -----
 titel
 -----
 Charge =  0 Multiplicity = 1

                         Standard orientation:
 ---------------------------------------------------------------------
 Center     Atomic      Atomic             Coordinates (Angstroms)
 Number     Number       Type             X           Y           Z
 ---------------------------------------------------------------------
      1          6           0        2.562296   -0.318735    0.049919
      2          6           0        1.073722   -0.085531   -0.055743
      3          6           0        0.593195    1.176261   -0.772100
      4          8           0       -0.551882    1.647308   -0.062158
      5          6           0       -1.068436    0.593790    0.728176
      6          8           0       -1.969719   -0.211657   -0.004509
      7          6           0       -1.225277   -1.195627   -0.727044
      8          6           0        0.134984   -1.285752   -0.047742
      9          6           0        0.123392   -0.300960    1.090069
     10          1           0        2.781766   -1.218413    0.632993
     11          1           0        3.015012   -0.449403   -0.939786
     12          1           0        3.062313    0.526747    0.535650
     13          1           0        1.360952    1.958176   -0.741609
     14          1           0        0.339704    0.992663   -1.826099
     15          1           0       -1.624888    1.041393    1.551924
     16          1           0       -1.764037   -2.147433   -0.665296
     17          1           0       -1.154839   -0.914269   -1.787229
     18          1           0        0.588501   -2.264270    0.065928
     19          1           0        0.405070   -0.511078    2.113656
 ---------------------------------------------------------------------

 SCF Done:  E(RB3LYP) =  -423.191473960     A.U. after    1 cycles

 The electronic state is 1-A.
 Alpha  occ. eigenvalues --  -19.13426 -19.13408 -10.27201 -10.22924 -10.22788
 Alpha  occ. eigenvalues --  -10.20591 -10.19774 -10.19185 -10.18831  -1.06770
 Alpha  occ. eigenvalues --   -1.00081  -0.87569  -0.74401  -0.73092  -0.68218
 Alpha  occ. eigenvalues --   -0.60401  -0.58477  -0.56383  -0.52694  -0.47840
 Alpha  occ. eigenvalues --   -0.45297  -0.44581  -0.43324  -0.42344  -0.42047
 Alpha  occ. eigenvalues --   -0.40762  -0.39680  -0.37250  -0.32597  -0.31212
 Alpha  occ. eigenvalues --   -0.28708  -0.28386  -0.26944  -0.24892
 Alpha virt. eigenvalues --    0.08207   0.10165   0.10450   0.10580   0.13714
 Alpha virt. eigenvalues --    0.14475   0.14544   0.15530   0.16362   0.16985
 Alpha virt. eigenvalues --    0.17587   0.18235   0.19619   0.20331   0.21551

 Mulliken charges:
               1
     1  C   -0.496665
     2  C    0.309349
     3  C   -0.151052
     4  O   -0.257481
     5  C    0.182956
     6  O   -0.256265
     7  C   -0.108062
     8  C   -0.131020
     9  C   -0.147220
    10  H    0.120180
    11  H    0.123532
    12  H    0.123896
    13  H    0.103030
    14  H    0.100284
    15  H    0.094820
    16  H    0.107437
    17  H    0.101550
    18  H    0.089504
    19  H    0.091230
 Sum of Mulliken charges =   0.00000

 Dipole moment (field-independent basis, Debye):
    X=              2.3355    Y=             -1.6450    Z=              0.2392  Tot=              2.8667
 Quadrupole moment (field-independent basis, Debye-Ang):
   XX=            -55.9352   YY=            -53.9335   ZZ=            -50.2286
   XY=              1.5551   XZ=             -0.7640   YZ=              0.7179

  Exact polarizability:  78.881   3.376  72.241  -1.616   1.342  68.354
 Approx polarizability: 107.454   4.174 107.730  -4.351   3.239 104.974

                      1                      2                      3
                      A                      A                      A
 Frequencies --    120.4553               200.8408               215.1069
 Red. masses --      4.1881                 1.1107                 2.2451
 Frc consts  --      0.0358                 0.0264                 0.0612
 IR Inten    --      2.6304                 0.0262                 0.5594

                      4                      5                      6
                      A                      A                      A
 Frequencies --    264.6250               316.0340               449.9879
 Red. masses --      2.2358                 2.3199                 2.3669
 Frc consts  --      0.0922                 0.1365                 0.2824
 IR Inten    --      0.4083                 0.6705                 0.2993

                      7                      8                      9
                      A                      A                      A
 Frequencies --    513.1214               550.5942               645.4787
 Red. masses --      7.2883                 3.9481                 6.8757
 Frc consts  --      1.1306                 0.7052                 1.6878
 IR Inten    --      7.2464                 1.2951                 1.5818

                     10                     11                     12
                      A                      A                      A
 Frequencies --    722.7038               752.5430               805.0246
 Red. masses --      3.9123                 5.3600                 2.4149
 Frc consts  --      1.2039                 1.7885                 0.9221
 IR Inten    --      2.3893                 1.8319                 2.7098

                     13                     14                     15
                      A                      A                      A
 Frequencies --    847.2687               891.9589               936.2961
 Red. masses --      2.5842                 2.0312                 2.8509
 Frc consts  --      1.0930                 0.9521                 1.4725
 IR Inten    --      0.3378                27.5860                15.1413

                     16                     17                     18
                      A                      A                      A
 Frequencies --    939.2721               950.0209               962.3725
 Red. masses --      2.0106                 2.5593                 2.1488
 Frc consts  --      1.0451                 1.3609                 1.1726
 IR Inten    --      5.4830                47.1828                44.7353

                     19                     20                     21
                      A                      A                      A
 Frequencies --    990.1182              1005.3068              1028.3187
 Red. masses --      2.2876                 1.7009                 3.4235
 Frc consts  --      1.3213                 1.0128                 2.1329
 IR Inten    --     65.1072                 1.8998                60.6600

                     22                     23                     24
                      A                      A                      A
 Frequencies --   1049.3229              1065.2644              1080.1453
 Red. masses --      1.8446                 2.2504                 2.3839
 Frc consts  --      1.1966                 1.5046                 1.6387
 IR Inten    --     15.3597                25.0136                24.3449

                     25                     26                     27
                      A                      A                      A
 Frequencies --   1122.1455              1145.8651              1208.2092
 Red. masses --      1.9540                 2.7740                 1.9149
 Frc consts  --      1.4497                 2.1460                 1.6470
 IR Inten    --      5.6380                39.1139                 7.4585

                     28                     29                     30
                      A                      A                      A
 Frequencies --   1225.9575              1234.1455              1270.6533
 Red. masses --      1.0967                 1.2162                 1.6212
 Frc consts  --      0.9712                 1.0914                 1.5422
 IR Inten    --      1.0243                 0.2748                 1.3256

                     31                     32                     33
                      A                      A                      A
 Frequencies --   1299.7733              1318.4951              1352.5672
 Red. masses --      1.7998                 1.7211                 1.3677
 Frc consts  --      1.7915                 1.7629                 1.4742
 IR Inten    --      3.2504                16.9131                 1.1878

                     34                     35                     36
                      A                      A                      A
 Frequencies --   1364.9685              1389.5633              1419.6128
 Red. masses --      1.6605                 1.3615                 1.2915
 Frc consts  --      1.8228                 1.5489                 1.5335
 IR Inten    --     12.2837                11.9628                 1.7984

                     37                     38                     39
                      A                      A                      A
 Frequencies --   1437.3873              1491.1145              1500.1111
 Red. masses --      2.2682                 1.0453                 1.0717
 Frc consts  --      2.7610                 1.3694                 1.4210
 IR Inten    --      1.2986                 3.5542                 4.7350

                     40                     41                     42
                      A                      A                      A
 Frequencies --   1518.7431              1534.8707              2998.6838
 Red. masses --      1.0889                 1.0848                 1.0646
 Frc consts  --      1.4798                 1.5058                 5.6405
 IR Inten    --      0.5365                 1.2765                37.9029

                     43                     44                     45
                      A                      A                      A
 Frequencies --   3006.5040              3025.7170              3050.7952
 Red. masses --      1.0653                 1.0364                 1.0985
 Frc consts  --      5.6733                 5.5904                 6.0240
 IR Inten    --     71.7123                30.9889                48.8505

                     46                     47                     48
                      A                      A                      A
 Frequencies --   3060.4839              3086.0050              3102.1236
 Red. masses --      1.0985                 1.1009                 1.1007
 Frc consts  --      6.0622                 6.1774                 6.2406
 IR Inten    --     33.0392                22.0165                21.2968

                     49                     50                     51
                      A                      A                      A
 Frequencies --   3123.8870              3169.7671              3197.5159
 Red. masses --      1.0901                 1.0899                 1.0944
 Frc consts  --      6.2679                 6.4517                 6.5925
 IR Inten    --     30.1024                12.9017                 9.2029

 - Thermochemistry -
 -------------------
 Temperature   298.150 Kelvin.  Pressure   1.00000 Atm.
 Atom     1 has atomic number  6 and mass  12.00000

 Molecular mass:   126.06808 amu.
 Principal axes and moments of inertia in atomic units:
                           1         2         3
     Eigenvalues --   619.468241006.800851266.57341
           X            0.99992   0.01204   0.00270
           Y           -0.01204   0.99993   0.00198
           Z           -0.00268  -0.00202   0.99999
 This molecule is an asymmetric top.
 Rotational symmetry number  1.
 Warning -- assumption of classical behavior for rotation
           may cause significant error
 Rotational temperatures (Kelvin)      0.13982     0.08603     0.06838
 Rotational constants (GHZ):           2.91337     1.79255     1.42490
 Zero-point vibrational energy     424422.2 (Joules/Mol)
                                  101.43933 (Kcal/Mol)
 Warning -- explicit consideration of   8 degrees of freedom as
           vibrations may cause significant error
 Vibrational temperatures:    173.31   288.96   309.49   380.74   454.70
          (Kelvin)            647.43   738.27   792.18   928.70  1039.81
                             1082.74  1158.25  1219.03  1283.33  1347.12
                             1351.40  1366.87  1384.64  1424.56  1446.41
                             1479.52  1509.74  1532.68  1554.09  1614.52
                             1648.64  1738.34  1763.88  1775.66  1828.18
                             1870.08  1897.02  1946.04  1963.88  1999.27
                             2042.50  2068.08  2145.38  2158.32  2185.13
                             2208.33  4314.43  4325.68  4353.33  4389.41
                             4403.35  4440.07  4463.26  4494.57  4560.58
                             4600.51

 Zero-point correction=                           0.161654 (Hartree/Particle)
 Thermal correction to Energy=                    0.168901
 Thermal correction to Enthalpy=                  0.169846
 Thermal correction to Gibbs Free Energy=         0.130155
 Sum of electronic and zero-point Energies=           -423.029820
 Sum of electronic and thermal Energies=              -423.022573
 Sum of electronic and thermal Enthalpies=            -423.021628
 Sum of electronic and thermal Free Energies=         -423.061319

                     E (Thermal)             CV                S
                      KCal/Mol        Cal/Mol-Kelvin    Cal/Mol-Kelvin
 Total                  105.987             28.997             83.535
 Electronic               0.000              0.000              0.000
 Translational            0.889              2.981             40.409
 Rotational               0.889              2.981             28.159
 Vibrational            104.210             23.035             14.967
 Vibration     1          0.609              1.932              3.093
 Vibration     2          0.638              1.839              2.125
 Vibration     3          0.645              1.818              2.000
 Vibration     4          0.671              1.738              1.631
 Vibration     5          0.703              1.643              1.331
 Vibration     6          0.809              1.361              0.796
 Vibration     7          0.868              1.221              0.626
 Vibration     8          0.906              1.138              0.543

 Optimization completed.
    -- Stationary point found.
 Normal termination of Gaussian 09 at Mon Jan 27 19:46:01 2020.
