 Gaussian 09, Revision D.01,
 Gaussian 09:  ES64L-G09RevD.01 24-Apr-2013

 -----------------------------
 # b3lyp 6-31G(2df,p) opt Freq
 -----------------------------

 -----
 titel
 -----
 Symbolic Z-matrix:
 Charge =  0 Multiplicity = 1

 SCF Done:  E(RB3LYP) =  -423.128803462     A.U. after   14 cycles
 Optimization completed.
    -- Stationary point found.
 Normal termination of Gaussian 09 at Tue Jan 28 09:19:10 2020.

 ----------------------------------------------------------------------
 #N Geom=AllCheck Guess=TCheck SCRF=Check GenChk RB3LYP/6-31G(2df,p) Fr
 eq
 ----------------------------------------------------------------------

 Structure from the checkpoint file:  "/scratch/puck/g09_5c22aa49-de3c-4be6-a63e-52c8d7061bfc/Gau-84010.chk"
 -----
 titel
 -----
 Charge =  0 Multiplicity = 1

                         Standard orientation:
 ---------------------------------------------------------------------
 Center     Atomic      Atomic             Coordinates (Angstroms)
 Number     Number       Type             X           Y           Z
 ---------------------------------------------------------------------
      1          6           0        2.685097    0.603002    0.269735
      2          6           0        1.839273   -0.452405   -0.452150
      3          6           0        0.372633   -0.326198   -0.139140
      4          6           0       -0.280878   -0.620773    1.237160
      5          6           0       -1.456676   -0.897912    0.279505
      6          8           0       -0.483334   -1.398289   -0.701972
      7          6           0       -1.777106    0.493403   -0.327594
      8          8           0       -1.183708    1.605460    0.363972
      9          6           0       -0.417844    0.920714   -0.640579
     10          1           0        3.743387    0.487558    0.020057
     11          1           0        2.384108    1.618138   -0.009051
     12          1           0        2.585608    0.515125    1.356421
     13          1           0        1.971454   -0.365878   -1.538533
     14          1           0        2.169442   -1.459827   -0.176924
     15          1           0        0.107365   -1.549764    1.654447
     16          1           0       -0.363656    0.172208    1.977452
     17          1           0       -2.272591   -1.588319    0.486575
     18          1           0       -2.661650    0.697841   -0.919708
     19          1           0       -0.114116    1.496569   -1.508359
 ---------------------------------------------------------------------

 SCF Done:  E(RB3LYP) =  -423.128803462     A.U. after    1 cycles

 The electronic state is 1-A.
 Alpha  occ. eigenvalues --  -19.15637 -19.13180 -10.24581 -10.24312 -10.23690
 Alpha  occ. eigenvalues --  -10.23603 -10.18925 -10.18607 -10.18271  -1.08529
 Alpha  occ. eigenvalues --   -1.03077  -0.79094  -0.75250  -0.69532  -0.69025
 Alpha  occ. eigenvalues --   -0.62814  -0.57386  -0.55510  -0.51226  -0.48449
 Alpha  occ. eigenvalues --   -0.46294  -0.44732  -0.43650  -0.40260  -0.39133
 Alpha  occ. eigenvalues --   -0.39016  -0.36563  -0.36131  -0.34851  -0.34257
 Alpha  occ. eigenvalues --   -0.31316  -0.29760  -0.27635  -0.23656
 Alpha virt. eigenvalues --    0.07003   0.07539   0.09857   0.10731   0.13074
 Alpha virt. eigenvalues --    0.13694   0.14360   0.15205   0.15692   0.16228
 Alpha virt. eigenvalues --    0.17198   0.17869   0.18779   0.20198   0.21580

 Mulliken charges:
               1
     1  C   -0.387882
     2  C   -0.310728
     3  C    0.392082
     4  C   -0.272361
     5  C    0.020730
     6  O   -0.340798
     7  C    0.031680
     8  O   -0.249041
     9  C   -0.000751
    10  H    0.119930
    11  H    0.126334
    12  H    0.126517
    13  H    0.108705
    14  H    0.110989
    15  H    0.106986
    16  H    0.121344
    17  H    0.081188
    18  H    0.109317
    19  H    0.105759
 Sum of Mulliken charges =   0.00000

 Dipole moment (field-independent basis, Debye):
    X=              0.4953    Y=             -0.1102    Z=             -0.0044  Tot=              0.5075
 Quadrupole moment (field-independent basis, Debye-Ang):
   XX=            -48.3169   YY=            -57.8890   ZZ=            -52.8544
   XY=              1.7972   XZ=              0.3179   YZ=             -4.7070

  Exact polarizability:  84.886   1.754  69.325  -0.800  -3.244  65.230
 Approx polarizability: 114.537   2.577 108.761  -3.830   1.972 102.010

                      1                      2                      3
                      A                      A                      A
 Frequencies --     85.7176               148.4148               200.7413
 Red. masses --      2.2683                 3.5311                 1.1788
 Frc consts  --      0.0098                 0.0458                 0.0280
 IR Inten    --      0.0143                 0.2386                 0.0314

                      4                      5                      6
                      A                      A                      A
 Frequencies --    311.5374               345.8716               414.8689
 Red. masses --      1.8959                 3.4629                 4.3600
 Frc consts  --      0.1084                 0.2441                 0.4421
 IR Inten    --      0.3499                 0.3921                15.1693

                      7                      8                      9
                      A                      A                      A
 Frequencies --    438.8582               555.9101               586.0773
 Red. masses --      4.3334                 2.2631                 4.4344
 Frc consts  --      0.4917                 0.4121                 0.8974
 IR Inten    --     10.0997                 6.3194                 3.8840

                     10                     11                     12
                      A                      A                      A
 Frequencies --    619.1909               710.1716               786.7498
 Red. masses --      5.0850                 3.9408                 1.3222
 Frc consts  --      1.1487                 1.1710                 0.4822
 IR Inten    --      1.6116                 3.6337                 2.8017

                     13                     14                     15
                      A                      A                      A
 Frequencies --    805.5452               812.7401               848.4198
 Red. masses --      3.8415                 2.1585                 4.9073
 Frc consts  --      1.4687                 0.8401                 2.0812
 IR Inten    --      1.6738                 1.1316                28.1414

                     16                     17                     18
                      A                      A                      A
 Frequencies --    891.2826               893.1155               918.3822
 Red. masses --      3.2908                 1.9427                 3.0758
 Frc consts  --      1.5402                 0.9130                 1.5284
 IR Inten    --      6.2444                47.2286                 1.0626

                     19                     20                     21
                      A                      A                      A
 Frequencies --    957.2214               966.6201               990.8311
 Red. masses --      2.0986                 2.7604                 2.0482
 Frc consts  --      1.1329                 1.5196                 1.1848
 IR Inten    --      8.8202                32.9174                13.8252

                     22                     23                     24
                      A                      A                      A
 Frequencies --   1008.5937              1030.1715              1076.2591
 Red. masses --      2.4960                 1.7496                 1.2627
 Frc consts  --      1.4960                 1.0940                 0.8617
 IR Inten    --      0.4417                 4.0942                 4.7856

                     25                     26                     27
                      A                      A                      A
 Frequencies --   1089.4474              1104.5708              1202.2689
 Red. masses --      1.3676                 1.9681                 1.8503
 Frc consts  --      0.9564                 1.4147                 1.5758
 IR Inten    --      2.0071                 3.8689                 1.9634

                     28                     29                     30
                      A                      A                      A
 Frequencies --   1216.4341              1224.0617              1238.5956
 Red. masses --      1.5274                 1.5022                 1.4135
 Frc consts  --      1.3316                 1.3261                 1.2777
 IR Inten    --      5.9036                 9.8831                 4.1146

                     31                     32                     33
                      A                      A                      A
 Frequencies --   1263.5336              1291.3729              1305.2185
 Red. masses --      1.5412                 1.4867                 1.4967
 Frc consts  --      1.4497                 1.4607                 1.5023
 IR Inten    --      1.8815                 2.8631                 3.4381

                     34                     35                     36
                      A                      A                      A
 Frequencies --   1320.9008              1366.5941              1404.6284
 Red. masses --      1.8006                 2.0154                 2.7178
 Frc consts  --      1.8510                 2.2177                 3.1593
 IR Inten    --     21.1479                 2.0096                 5.5821

                     37                     38                     39
                      A                      A                      A
 Frequencies --   1415.5817              1476.2972              1487.1572
 Red. masses --      1.2737                 1.2347                 1.0682
 Frc consts  --      1.5038                 1.5855                 1.3919
 IR Inten    --      4.5935                 4.2633                 1.7790

                     40                     41                     42
                      A                      A                      A
 Frequencies --   1499.8137              1508.4475              3027.9553
 Red. masses --      1.0391                 1.0867                 1.0629
 Frc consts  --      1.3772                 1.4568                 5.7416
 IR Inten    --      5.3722                 4.9946                18.7341

                     43                     44                     45
                      A                      A                      A
 Frequencies --   3039.2059              3070.3980              3098.3656
 Red. masses --      1.0354                 1.0984                 1.0572
 Frc consts  --      5.6350                 6.1010                 5.9793
 IR Inten    --     20.8878                 7.1036                13.4381

                     46                     47                     48
                      A                      A                      A
 Frequencies --   3107.5768              3114.1357              3137.9838
 Red. masses --      1.1014                 1.1013                 1.0911
 Frc consts  --      6.2668                 6.2928                 6.3303
 IR Inten    --     35.8987                28.5353                38.4237

                     49                     50                     51
                      A                      A                      A
 Frequencies --   3170.8752              3172.8309              3189.3930
 Red. masses --      1.0904                 1.1096                 1.0979
 Frc consts  --      6.4591                 6.5816                 6.5800
 IR Inten    --     13.3766                10.1497                18.2175

 - Thermochemistry -
 -------------------
 Temperature   298.150 Kelvin.  Pressure   1.00000 Atm.
 Atom     1 has atomic number  6 and mass  12.00000

 Molecular mass:   126.06808 amu.
 Principal axes and moments of inertia in atomic units:
                           1         2         3
     Eigenvalues --   622.917851149.577411392.98715
           X            0.99952   0.03056   0.00419
           Y           -0.03024   0.99753  -0.06337
           Z           -0.00611   0.06321   0.99798
 This molecule is an asymmetric top.
 Rotational symmetry number  1.
 Warning -- assumption of classical behavior for rotation
           may cause significant error
 Rotational temperatures (Kelvin)      0.13905     0.07534     0.06218
 Rotational constants (GHZ):           2.89724     1.56992     1.29559
 Zero-point vibrational energy     418375.6 (Joules/Mol)
                                   99.99416 (Kcal/Mol)
 Warning -- explicit consideration of  10 degrees of freedom as
           vibrations may cause significant error
 Vibrational temperatures:    123.33   213.54   288.82   448.23   497.63
          (Kelvin)            596.90   631.42   799.83   843.23   890.88
                             1021.78  1131.96  1159.00  1169.35  1220.69
                             1282.36  1284.99  1321.35  1377.23  1390.75
                             1425.58  1451.14  1482.19  1548.49  1567.47
                             1589.23  1729.79  1750.18  1761.15  1782.06
                             1817.94  1858.00  1877.92  1900.48  1966.22
                             2020.94  2036.70  2124.06  2139.68  2157.89
                             2170.32  4356.55  4372.73  4417.61  4457.85
                             4471.10  4480.54  4514.85  4562.18  4564.99
                             4588.82

 Zero-point correction=                           0.159351 (Hartree/Particle)
 Thermal correction to Energy=                    0.166985
 Thermal correction to Enthalpy=                  0.167930
 Thermal correction to Gibbs Free Energy=         0.127244
 Sum of electronic and zero-point Energies=           -422.969453
 Sum of electronic and thermal Energies=              -422.961818
 Sum of electronic and thermal Enthalpies=            -422.960874
 Sum of electronic and thermal Free Energies=         -423.001559

                     E (Thermal)             CV                S
                      KCal/Mol        Cal/Mol-Kelvin    Cal/Mol-Kelvin
 Total                  104.785             30.539             85.630
 Electronic               0.000              0.000              0.000
 Translational            0.889              2.981             40.409
 Rotational               0.889              2.981             28.391
 Vibrational            103.007             24.578             16.830
 Vibration     1          0.601              1.959              3.756
 Vibration     2          0.618              1.904              2.692
 Vibration     3          0.638              1.839              2.126
 Vibration     4          0.700              1.652              1.354
 Vibration     5          0.724              1.584              1.185
 Vibration     6          0.778              1.438              0.910
 Vibration     7          0.799              1.385              0.830
 Vibration     8          0.911              1.127              0.532
 Vibration     9          0.943              1.061              0.474
 Vibration    10          0.979              0.991              0.418

 Normal termination of Gaussian 09 at Tue Jan 28 10:09:07 2020.
