 Gaussian 09, Revision D.01,
 Gaussian 09:  ES64L-G09RevD.01 24-Apr-2013

 -----------------------------
 # b3lyp 6-31G(2df,p) opt Freq
 -----------------------------

 -----
 titel
 -----
 Symbolic Z-matrix:
 Charge =  0 Multiplicity = 1

 SCF Done:  E(RB3LYP) =  -423.138734387     A.U. after   14 cycles
 SCF Done:  E(RB3LYP) =  -423.138734433     A.U. after    7 cycles
 SCF Done:  E(RB3LYP) =  -423.138734587     A.U. after    7 cycles
 SCF Done:  E(RB3LYP) =  -423.138734687     A.U. after    7 cycles
 Optimization completed.
    -- Stationary point found.
 Normal termination of Gaussian 09 at Tue Jan 28 14:21:45 2020.

 ----------------------------------------------------------------------
 #N Geom=AllCheck Guess=TCheck SCRF=Check GenChk RB3LYP/6-31G(2df,p) Fr
 eq
 ----------------------------------------------------------------------

 Structure from the checkpoint file:  "/scratch/puck/g09_7de123db-b5b7-43ba-9a5d-3c016b49828b/Gau-122785.chk"
 -----
 titel
 -----
 Charge =  0 Multiplicity = 1

                         Standard orientation:
 ---------------------------------------------------------------------
 Center     Atomic      Atomic             Coordinates (Angstroms)
 Number     Number       Type             X           Y           Z
 ---------------------------------------------------------------------
      1          8           0        2.383630   -0.769772   -0.207796
      2          6           0        1.202801   -1.420531    0.217461
      3          6           0       -0.018947   -0.836213   -0.476683
      4          6           0       -1.494699   -1.122619   -0.042382
      5          6           0       -1.900710    0.160786   -0.829405
      6          6           0       -0.616621    0.539014   -0.025840
      7          6           0       -1.286536   -0.197411    1.192080
      8          6           0        0.084548    1.846537    0.050551
      9          8           0        1.290346    1.969148    0.038929
     10          1           0        2.246395    0.182282   -0.084588
     11          1           0        1.309168   -2.474082   -0.067877
     12          1           0        1.102887   -1.399975    1.313685
     13          1           0        0.139795   -0.891061   -1.559414
     14          1           0       -2.008917   -2.083742   -0.058711
     15          1           0       -1.794959    0.128854   -1.916591
     16          1           0       -2.831743    0.644215   -0.523295
     17          1           0       -0.623277   -0.537551    1.986572
     18          1           0       -2.182881    0.276804    1.599492
     19          1           0       -0.567304    2.741873    0.146978
 ---------------------------------------------------------------------

 SCF Done:  E(RB3LYP) =  -423.138734687     A.U. after    1 cycles

 Isotropic polarizability for W=    0.000000       76.94 Bohr**3.
 End of Minotr F.D. properties file   721 does not exist.

 The electronic state is 1-A.
 Alpha  occ. eigenvalues --  -19.16066 -19.11213 -10.28631 -10.22482 -10.21976
 Alpha  occ. eigenvalues --  -10.21890 -10.20977 -10.20817 -10.20072  -1.06385
 Alpha  occ. eigenvalues --   -0.99693  -0.92971  -0.72238  -0.70105  -0.68617
 Alpha  occ. eigenvalues --   -0.63006  -0.58963  -0.54083  -0.51938  -0.49370
 Alpha  occ. eigenvalues --   -0.47867  -0.46137  -0.43574  -0.42250  -0.41325
 Alpha  occ. eigenvalues --   -0.37614  -0.35697  -0.35240  -0.34059  -0.32806
 Alpha  occ. eigenvalues --   -0.32741  -0.30611  -0.26520  -0.24942
 Alpha virt. eigenvalues --   -0.04641   0.09568   0.10168   0.11126   0.11783
 Alpha virt. eigenvalues --    0.12352   0.13252   0.14043   0.14532   0.15854
 Alpha virt. eigenvalues --    0.16738   0.17404   0.19153   0.20772   0.22097

 Mulliken charges:
               1
     1  O   -0.428187
     2  C   -0.121591
     3  C   -0.008249
     4  C   -0.076671
     5  C   -0.273992
     6  C    0.242260
     7  C   -0.267463
     8  C    0.029346
     9  O   -0.254637
    10  H    0.294619
    11  H    0.104669
    12  H    0.080989
    13  H    0.080033
    14  H    0.083395
    15  H    0.105701
    16  H    0.099214
    17  H    0.114539
    18  H    0.102020
    19  H    0.094006
 Sum of Mulliken charges =   0.00000

 Dipole moment (field-independent basis, Debye):
    X=             -4.0399    Y=              0.0963    Z=              0.4788  Tot=              4.0693
 Quadrupole moment (field-independent basis, Debye-Ang):
   XX=            -60.6770   YY=            -53.1496   ZZ=            -52.1033
   XY=             -1.0303   XZ=              0.9464   YZ=             -0.3192

                      1                      2                      3
                      A                      A                      A
 Frequencies --    105.0981               126.3781               175.5953
 Red. masses --      3.9817                 3.1188                 7.2457
 Frc consts  --      0.0259                 0.0293                 0.1316
 IR Inten    --      2.0741                 2.4512                 5.0528

                      4                      5                      6
                      A                      A                      A
 Frequencies --    228.8730               281.6476               326.4250
 Red. masses --      4.4129                 2.2343                 2.4430
 Frc consts  --      0.1362                 0.1044                 0.1534
 IR Inten    --      7.5654                 1.5630                 0.6192

                      7                      8                      9
                      A                      A                      A
 Frequencies --    413.0740               461.4555               564.8127
 Red. masses --      4.0276                 4.6967                 2.6481
 Frc consts  --      0.4049                 0.5893                 0.4977
 IR Inten    --      0.4032                 2.3200                 0.2787

                     10                     11                     12
                      A                      A                      A
 Frequencies --    569.5111               584.9257               705.1266
 Red. masses --      1.8541                 1.1700                 2.9826
 Frc consts  --      0.3543                 0.2359                 0.8737
 IR Inten    --     13.5894                88.9224                14.3730

                     13                     14                     15
                      A                      A                      A
 Frequencies --    774.7760               821.9158               849.2747
 Red. masses --      3.0720                 2.9936                 3.4082
 Frc consts  --      1.0865                 1.1915                 1.4483
 IR Inten    --      1.0766                 4.9818                 7.3503

                     16                     17                     18
                      A                      A                      A
 Frequencies --    903.7052               943.2078               981.5372
 Red. masses --      2.1535                 2.1558                 1.8434
 Frc consts  --      1.0362                 1.1300                 1.0464
 IR Inten    --      0.3240                 0.5060                10.5750

                     19                     20                     21
                      A                      A                      A
 Frequencies --    995.1588              1017.7818              1036.9699
 Red. masses --      1.3357                 1.2027                 1.8419
 Frc consts  --      0.7793                 0.7340                 1.1669
 IR Inten    --      0.6682                 0.7378                23.6683

                     22                     23                     24
                      A                      A                      A
 Frequencies --   1063.0843              1083.7365              1103.2776
 Red. masses --      1.7126                 3.6731                 1.7659
 Frc consts  --      1.1404                 2.5417                 1.2664
 IR Inten    --      1.8574                69.9732                 0.3364

                     25                     26                     27
                      A                      A                      A
 Frequencies --   1133.9535              1150.0148              1159.9759
 Red. masses --      1.4673                 2.2304                 1.5925
 Frc consts  --      1.1116                 1.7379                 1.2625
 IR Inten    --      2.1113                 3.1230                 1.8834

                     28                     29                     30
                      A                      A                      A
 Frequencies --   1166.5601              1211.3117              1220.4445
 Red. masses --      1.6750                 1.6747                 1.3014
 Frc consts  --      1.3430                 1.4478                 1.1421
 IR Inten    --      0.5815                 2.8054                11.5236

                     31                     32                     33
                      A                      A                      A
 Frequencies --   1238.3868              1254.0143              1294.7002
 Red. masses --      1.6380                 1.4759                 2.9849
 Frc consts  --      1.4800                 1.3675                 2.9479
 IR Inten    --      3.5538                 8.1715                 9.6228

                     34                     35                     36
                      A                      A                      A
 Frequencies --   1360.2562              1416.9270              1430.1345
 Red. masses --      1.3067                 1.2833                 1.3355
 Frc consts  --      1.4245                 1.5180                 1.6093
 IR Inten    --      1.1019                10.5960                 6.8384

                     37                     38                     39
                      A                      A                      A
 Frequencies --   1464.6490              1495.4520              1512.1443
 Red. masses --      1.2075                 1.0930                 1.1014
 Frc consts  --      1.5262                 1.4402                 1.4838
 IR Inten    --     78.9322                 0.3199                 1.1682

                     40                     41                     42
                      A                      A                      A
 Frequencies --   1541.3465              1786.9684              2898.5904
 Red. masses --      1.1481                10.7492                 1.0836
 Frc consts  --      1.6071                20.2237                 5.3639
 IR Inten    --      3.9181               163.1968               115.8833

                     43                     44                     45
                      A                      A                      A
 Frequencies --   2980.4563              3044.4451              3055.6520
 Red. masses --      1.0692                 1.0843                 1.0683
 Frc consts  --      5.5958                 5.9211                 5.8769
 IR Inten    --     44.6625                18.9242                42.5728

                     46                     47                     48
                      A                      A                      A
 Frequencies --   3058.8984              3071.0229              3112.9978
 Red. masses --      1.0765                 1.0583                 1.0921
 Frc consts  --      5.9348                 5.8807                 6.2356
 IR Inten    --     55.1653                35.0277                54.0526

                     49                     50                     51
                      A                      A                      A
 Frequencies --   3126.5677              3148.1152              3692.5007
 Red. masses --      1.1116                 1.1064                 1.0665
 Frc consts  --      6.4023                 6.4602                 8.5677
 IR Inten    --     34.1581                27.1586               153.1272

 - Thermochemistry -
 -------------------
 Temperature   298.150 Kelvin.  Pressure   1.00000 Atm.
 Atom     1 has atomic number  8 and mass  15.99491

 Molecular mass:   126.06808 amu.
 Principal axes and moments of inertia in atomic units:
                           1         2         3
     Eigenvalues --   821.189161080.806171586.89052
           X            0.99846  -0.05524   0.00543
           Y            0.05527   0.99845  -0.00716
           Z           -0.00502   0.00745   0.99996
 This molecule is an asymmetric top.
 Rotational symmetry number  1.
 Warning -- assumption of classical behavior for rotation
           may cause significant error
 Rotational temperatures (Kelvin)      0.10547     0.08014     0.05458
 Rotational constants (GHZ):           2.19772     1.66981     1.13728
 Zero-point vibrational energy     419553.3 (Joules/Mol)
                                  100.27565 (Kcal/Mol)
 Warning -- explicit consideration of  11 degrees of freedom as
           vibrations may cause significant error
 Vibrational temperatures:    151.21   181.83   252.64   329.30   405.23
          (Kelvin)            469.65   594.32   663.93   812.64   819.40
                              841.58  1014.52  1114.73  1182.55  1221.92
                             1300.23  1357.06  1412.21  1431.81  1464.36
                             1491.97  1529.54  1559.25  1587.37  1631.50
                             1654.61  1668.94  1678.42  1742.81  1755.95
                             1781.76  1804.24  1862.78  1957.10  2038.64
                             2057.64  2107.30  2151.62  2175.64  2217.65
                             2571.05  4170.42  4288.21  4380.27  4396.40
                             4401.07  4418.51  4478.90  4498.43  4529.43
                             5312.68

 Zero-point correction=                           0.159799 (Hartree/Particle)
 Thermal correction to Energy=                    0.167920
 Thermal correction to Enthalpy=                  0.168864
 Thermal correction to Gibbs Free Energy=         0.127088
 Sum of electronic and zero-point Energies=           -422.978935
 Sum of electronic and thermal Energies=              -422.970815
 Sum of electronic and thermal Enthalpies=            -422.969870
 Sum of electronic and thermal Free Energies=         -423.011647

                     E (Thermal)             CV                S
                      KCal/Mol        Cal/Mol-Kelvin    Cal/Mol-Kelvin
 Total                  105.371             31.368             87.926
 Electronic               0.000              0.000              0.000
 Translational            0.889              2.981             40.409
 Rotational               0.889              2.981             28.734
 Vibrational            103.594             25.406             18.784
 Vibration     1          0.605              1.945              3.358
 Vibration     2          0.611              1.927              3.000
 Vibration     3          0.628              1.872              2.375
 Vibration     4          0.652              1.797              1.888
 Vibration     5          0.681              1.708              1.524
 Vibration     6          0.710              1.623              1.278
 Vibration     7          0.777              1.442              0.916
 Vibration     8          0.819              1.336              0.762
 Vibration     9          0.921              1.107              0.514
 Vibration    10          0.926              1.097              0.505
 Vibration    11          0.942              1.064              0.476

 Optimization completed.
    -- Stationary point found.
 Normal termination of Gaussian 09 at Tue Jan 28 15:23:33 2020.
