 Gaussian 09, Revision D.01,
 Gaussian 09:  ES64L-G09RevD.01 24-Apr-2013

 -----------------------------
 # b3lyp 6-31G(2df,p) opt Freq
 -----------------------------

 -----
 titel
 -----
 Symbolic Z-matrix:
 Charge =  0 Multiplicity = 1

 SCF Done:  E(RB3LYP) =  -423.167995327     A.U. after   13 cycles
 Optimization completed.
    -- Stationary point found.
 Normal termination of Gaussian 09 at Mon Jan 27 17:09:24 2020.

 ----------------------------------------------------------------------
 #N Geom=AllCheck Guess=TCheck SCRF=Check GenChk RB3LYP/6-31G(2df,p) Fr
 eq
 ----------------------------------------------------------------------

 Structure from the checkpoint file:  "/scratch/puck/g09_f9a79a26-4520-45f1-b6bd-c31fa9d6d368/Gau-179181.chk"
 -----
 titel
 -----
 Charge =  0 Multiplicity = 1

                         Standard orientation:
 ---------------------------------------------------------------------
 Center     Atomic      Atomic             Coordinates (Angstroms)
 Number     Number       Type             X           Y           Z
 ---------------------------------------------------------------------
      1          8           0       -2.407927   -0.517820    0.258241
      2          6           0       -1.071195   -0.153439    0.026562
      3          6           0       -0.473180    0.790549    1.092131
      4          6           0        0.391742    1.379991   -0.056904
      5          6           0       -0.747467    0.950947   -1.031878
      6          6           0        1.590219    0.477645   -0.325997
      7          8           0        1.995207   -0.412283    0.720613
      8          6           0        1.292238   -0.959893   -0.403441
      9          6           0       -0.157405   -1.375036   -0.187217
     10          1           0       -2.676461   -1.149641   -0.417975
     11          1           0       -1.228261    1.507887    1.421291
     12          1           0        0.040489    0.350565    1.946150
     13          1           0        0.665044    2.434414   -0.005104
     14          1           0       -1.554407    1.686188   -1.067239
     15          1           0       -0.471821    0.645409   -2.046396
     16          1           0        2.411206    0.896613   -0.906134
     17          1           0        1.902747   -1.614442   -1.023738
     18          1           0       -0.494280   -1.923685   -1.078323
     19          1           0       -0.242208   -2.057065    0.667101
 ---------------------------------------------------------------------

 SCF Done:  E(RB3LYP) =  -423.167995327     A.U. after    1 cycles

 The electronic state is 1-A.
 Alpha  occ. eigenvalues --  -19.14730 -19.13854 -10.23942 -10.23590 -10.23454
 Alpha  occ. eigenvalues --  -10.19374 -10.18991 -10.18078 -10.17474  -1.06864
 Alpha  occ. eigenvalues --   -1.02387  -0.85671  -0.75036  -0.69222  -0.65975
 Alpha  occ. eigenvalues --   -0.60728  -0.59861  -0.53566  -0.52483  -0.48796
 Alpha  occ. eigenvalues --   -0.46105  -0.44972  -0.44520  -0.40693  -0.40066
 Alpha  occ. eigenvalues --   -0.38578  -0.35949  -0.35526  -0.32870  -0.32114
 Alpha  occ. eigenvalues --   -0.30818  -0.28384  -0.26841  -0.25373
 Alpha virt. eigenvalues --    0.07486   0.08764   0.09325   0.11395   0.12784
 Alpha virt. eigenvalues --    0.13396   0.14359   0.15267   0.16150   0.17779
 Alpha virt. eigenvalues --    0.18698   0.19151   0.20059   0.20625   0.23411

 Mulliken charges:
               1
     1  O   -0.487361
     2  C    0.414172
     3  C   -0.254979
     4  C   -0.070405
     5  C   -0.286478
     6  C    0.052483
     7  O   -0.253385
     8  C    0.046481
     9  C   -0.306095
    10  H    0.273334
    11  H    0.103908
    12  H    0.116881
    13  H    0.068697
    14  H    0.105972
    15  H    0.084508
    16  H    0.090072
    17  H    0.093154
    18  H    0.089438
    19  H    0.119599
 Sum of Mulliken charges =   0.00000

 Dipole moment (field-independent basis, Debye):
    X=             -0.3488    Y=             -0.2899    Z=             -2.3943  Tot=              2.4369
 Quadrupole moment (field-independent basis, Debye-Ang):
   XX=            -57.3549   YY=            -49.1593   ZZ=            -53.5026
   XY=              2.6056   XZ=             -0.2496   YZ=              2.2479

  Exact polarizability:  77.097   1.512  76.622  -0.900   1.841  66.489
 Approx polarizability: 108.695   3.536 112.054   2.098   1.847 105.766

                      1                      2                      3
                      A                      A                      A
 Frequencies --    202.5650               254.9600               300.7073
 Red. masses --      3.7226                 1.1322                 2.6522
 Frc consts  --      0.0900                 0.0434                 0.1413
 IR Inten    --      1.2473                69.4564                14.1324

                      4                      5                      6
                      A                      A                      A
 Frequencies --    326.9129               387.8258               420.0954
 Red. masses --      3.3424                 3.9903                 2.5211
 Frc consts  --      0.2105                 0.3536                 0.2621
 IR Inten    --     14.9678                 8.0806                 3.9887

                      7                      8                      9
                      A                      A                      A
 Frequencies --    442.1225               457.8996               548.8990
 Red. masses --      2.8240                 2.4282                 3.3795
 Frc consts  --      0.3252                 0.3000                 0.5999
 IR Inten    --      1.8391                 5.5973                 7.4174

                     10                     11                     12
                      A                      A                      A
 Frequencies --    617.3060               681.0701               783.1652
 Red. masses --      4.0838                 3.5023                 3.9379
 Frc consts  --      0.9169                 0.9572                 1.4230
 IR Inten    --      1.7159                 4.2308                 6.6411

                     13                     14                     15
                      A                      A                      A
 Frequencies --    814.4546               853.6280               881.7517
 Red. masses --      2.6151                 1.7560                 2.2891
 Frc consts  --      1.0221                 0.7539                 1.0486
 IR Inten    --     11.4737                 1.0481                12.9121

                     16                     17                     18
                      A                      A                      A
 Frequencies --    898.2213               918.1299               934.3490
 Red. masses --      3.4739                 2.4117                 2.4458
 Frc consts  --      1.6513                 1.1978                 1.2580
 IR Inten    --      6.5898                 4.2189                 2.1854

                     19                     20                     21
                      A                      A                      A
 Frequencies --    953.2793               990.8717              1008.5180
 Red. masses --      2.0660                 2.3779                 2.2761
 Frc consts  --      1.1062                 1.3756                 1.3640
 IR Inten    --      6.4707                 7.8782                15.0599

                     22                     23                     24
                      A                      A                      A
 Frequencies --   1049.1072              1067.8814              1084.9710
 Red. masses --      1.3858                 1.2914                 1.3237
 Frc consts  --      0.8986                 0.8677                 0.9181
 IR Inten    --      6.8707                 7.9973                 1.4499

                     25                     26                     27
                      A                      A                      A
 Frequencies --   1113.5507              1147.3790              1159.5962
 Red. masses --      1.7945                 1.3550                 1.6447
 Frc consts  --      1.3110                 1.0510                 1.3030
 IR Inten    --     17.2250                 0.7162                72.5527

                     28                     29                     30
                      A                      A                      A
 Frequencies --   1178.5740              1222.6198              1239.1163
 Red. masses --      1.8946                 1.4511                 1.7162
 Frc consts  --      1.5506                 1.2780                 1.5525
 IR Inten    --     25.1388                 1.5995                12.1956

                     31                     32                     33
                      A                      A                      A
 Frequencies --   1254.6616              1264.5737              1291.6376
 Red. masses --      1.5768                 1.5275                 1.4711
 Frc consts  --      1.4624                 1.4392                 1.4461
 IR Inten    --     10.4877                18.0297                 5.9498

                     34                     35                     36
                      A                      A                      A
 Frequencies --   1334.5955              1340.2859              1366.6369
 Red. masses --      1.8582                 1.5925                 1.4808
 Frc consts  --      1.9501                 1.6855                 1.6295
 IR Inten    --     68.7236                 0.3741                13.3362

                     37                     38                     39
                      A                      A                      A
 Frequencies --   1396.7313              1451.2451              1469.7134
 Red. masses --      1.7476                 2.3059                 1.1091
 Frc consts  --      2.0087                 2.8614                 1.4115
 IR Inten    --      8.3894                12.9418                 3.3477

                     40                     41                     42
                      A                      A                      A
 Frequencies --   1473.4807              1505.8103              3008.7841
 Red. masses --      1.1704                 1.1911                 1.0634
 Frc consts  --      1.4972                 1.5912                 5.6720
 IR Inten    --      2.6519                 3.6616                33.3694

                     43                     44                     45
                      A                      A                      A
 Frequencies --   3046.5443              3063.9533              3078.0638
 Red. masses --      1.0596                 1.0979                 1.0604
 Frc consts  --      5.7945                 6.0725                 5.9196
 IR Inten    --     38.4327                17.2379                16.5639

                     46                     47                     48
                      A                      A                      A
 Frequencies --   3097.5313              3113.9180              3117.7415
 Red. masses --      1.0877                 1.0871                 1.1039
 Frc consts  --      6.1488                 6.2108                 6.3223
 IR Inten    --     19.4540                24.4575                42.5547

                     49                     50                     51
                      A                      A                      A
 Frequencies --   3126.8139              3149.2760              3798.5540
 Red. masses --      1.0933                 1.1070                 1.0658
 Frc consts  --      6.2978                 6.4689                 9.0605
 IR Inten    --     47.8676                12.0201                13.0407

 - Thermochemistry -
 -------------------
 Temperature   298.150 Kelvin.  Pressure   1.00000 Atm.
 Atom     1 has atomic number  8 and mass  15.99491

 Molecular mass:   126.06808 amu.
 Principal axes and moments of inertia in atomic units:
                           1         2         3
     Eigenvalues --   587.103691102.380561297.04948
           X            0.99996   0.00354  -0.00817
           Y           -0.00328   0.99952   0.03085
           Z            0.00827  -0.03082   0.99949
 This molecule is an asymmetric top.
 Rotational symmetry number  1.
 Warning -- assumption of classical behavior for rotation
           may cause significant error
 Rotational temperatures (Kelvin)      0.14753     0.07857     0.06678
 Rotational constants (GHZ):           3.07397     1.63713     1.39142
 Zero-point vibrational energy     422820.6 (Joules/Mol)
                                  101.05654 (Kcal/Mol)
 Warning -- explicit consideration of  10 degrees of freedom as
           vibrations may cause significant error
 Vibrational temperatures:    291.45   366.83   432.65   470.35   557.99
          (Kelvin)            604.42   636.11   658.81   789.74   888.16
                              979.91  1126.80  1171.82  1228.18  1268.64
                             1292.34  1320.98  1344.32  1371.55  1425.64
                             1451.03  1509.43  1536.44  1561.03  1602.15
                             1650.82  1668.40  1695.70  1759.08  1782.81
                             1805.18  1819.44  1858.38  1920.18  1928.37
                             1966.28  2009.58  2088.02  2114.59  2120.01
                             2166.52  4328.96  4383.29  4408.34  4428.64
                             4456.65  4480.23  4485.73  4498.78  4531.10
                             5465.27

 Zero-point correction=                           0.161044 (Hartree/Particle)
 Thermal correction to Energy=                    0.168163
 Thermal correction to Enthalpy=                  0.169107
 Thermal correction to Gibbs Free Energy=         0.130117
 Sum of electronic and zero-point Energies=           -423.006951
 Sum of electronic and thermal Energies=              -422.999833
 Sum of electronic and thermal Enthalpies=            -422.998888
 Sum of electronic and thermal Free Energies=         -423.037879

                     E (Thermal)             CV                S
                      KCal/Mol        Cal/Mol-Kelvin    Cal/Mol-Kelvin
 Total                  105.524             30.080             82.061
 Electronic               0.000              0.000              0.000
 Translational            0.889              2.981             40.409
 Rotational               0.889              2.981             28.220
 Vibrational            103.746             24.118             13.433
 Vibration     1          0.639              1.836              2.110
 Vibration     2          0.665              1.754              1.696
 Vibration     3          0.693              1.672              1.413
 Vibration     4          0.711              1.622              1.275
 Vibration     5          0.756              1.496              1.008
 Vibration     6          0.783              1.427              0.892
 Vibration     7          0.802              1.378              0.820
 Vibration     8          0.816              1.343              0.772
 Vibration     9          0.904              1.142              0.546
 Vibration    10          0.977              0.995              0.421

 Optimization completed.
    -- Stationary point found.
 Normal termination of Gaussian 09 at Mon Jan 27 18:00:12 2020.
