 Gaussian 09, Revision D.01,
 Gaussian 09:  ES64L-G09RevD.01 24-Apr-2013

 -----------------------------
 # b3lyp 6-31G(2df,p) opt Freq
 -----------------------------

 -----
 titel
 -----
 Symbolic Z-matrix:
 Charge =  0 Multiplicity = 1

 SCF Done:  E(RB3LYP) =  -423.080000297     A.U. after   14 cycles
 SCF Done:  E(RB3LYP) =  -423.080000601     A.U. after    7 cycles
 SCF Done:  E(RB3LYP) =  -423.080000836     A.U. after    7 cycles
 Optimization completed.
    -- Stationary point found.
 Normal termination of Gaussian 09 at Tue Jan 28 14:16:05 2020.

 ----------------------------------------------------------------------
 #N Geom=AllCheck Guess=TCheck SCRF=Check GenChk RB3LYP/6-31G(2df,p) Fr
 eq
 ----------------------------------------------------------------------

 Structure from the checkpoint file:  "/scratch/puck/g09_e20cae96-c402-4dd3-875f-5461ed9a22a4/Gau-98228.chk"
 -----
 titel
 -----
 Charge =  0 Multiplicity = 1

                         Standard orientation:
 ---------------------------------------------------------------------
 Center     Atomic      Atomic             Coordinates (Angstroms)
 Number     Number       Type             X           Y           Z
 ---------------------------------------------------------------------
      1          6           0        2.967067    0.565607   -0.426738
      2          6           0        1.811809    0.464280    0.577030
      3          6           0        0.875433   -0.693362    0.262251
      4          6           0       -0.539138   -0.858359    0.893262
      5          8           0       -0.866274   -1.797022   -0.210650
      6          6           0       -0.187684   -0.658381   -0.880478
      7          6           0       -1.052104    0.271767   -0.014295
      8          6           0       -1.402502    1.682313    0.075978
      9          8           0       -2.372976    0.653444   -0.233528
     10          1           0        3.647840    1.380831   -0.164530
     11          1           0        3.550073   -0.361209   -0.453944
     12          1           0        2.597636    0.752529   -1.440762
     13          1           0        2.217804    0.315775    1.585881
     14          1           0        1.262453    1.410485    0.604445
     15          1           0        1.393151   -1.656478    0.253947
     16          1           0       -0.830237   -1.143052    1.904088
     17          1           0       -0.066766   -0.708280   -1.962143
     18          1           0       -1.525482    2.155539    1.048960
     19          1           0       -1.169767    2.359302   -0.744580
 ---------------------------------------------------------------------

 SCF Done:  E(RB3LYP) =  -423.080000836     A.U. after    1 cycles

 The electronic state is 1-A.
 Alpha  occ. eigenvalues --  -19.15826 -19.13645 -10.25305 -10.24888 -10.24874
 Alpha  occ. eigenvalues --  -10.24113 -10.20302 -10.19166 -10.18341  -1.08898
 Alpha  occ. eigenvalues --   -1.05066  -0.81009  -0.75158  -0.67209  -0.66282
 Alpha  occ. eigenvalues --   -0.65784  -0.60752  -0.53263  -0.52655  -0.49153
 Alpha  occ. eigenvalues --   -0.47198  -0.45918  -0.42334  -0.41429  -0.39490
 Alpha  occ. eigenvalues --   -0.37905  -0.37749  -0.35114  -0.34953  -0.33972
 Alpha  occ. eigenvalues --   -0.31685  -0.30056  -0.26697  -0.24255
 Alpha virt. eigenvalues --    0.06368   0.08202   0.10019   0.11591   0.11979
 Alpha virt. eigenvalues --    0.12607   0.12837   0.13929   0.15105   0.15247
 Alpha virt. eigenvalues --    0.15679   0.17608   0.18269   0.19283   0.19487

 Mulliken charges:
               1
     1  C   -0.372886
     2  C   -0.236261
     3  C    0.049555
     4  C   -0.105954
     5  O   -0.311061
     6  C   -0.087568
     7  C    0.554322
     8  C   -0.310051
     9  O   -0.279655
    10  H    0.116474
    11  H    0.120901
    12  H    0.118014
    13  H    0.104270
    14  H    0.103391
    15  H    0.088717
    16  H    0.100269
    17  H    0.101083
    18  H    0.123331
    19  H    0.123107
 Sum of Mulliken charges =   0.00000

 Dipole moment (field-independent basis, Debye):
    X=              2.6596    Y=              2.0411    Z=              0.7488  Tot=              3.4352
 Quadrupole moment (field-independent basis, Debye-Ang):
   XX=            -59.4380   YY=            -54.5469   ZZ=            -49.6341
   XY=             -2.4237   XZ=             -1.6940   YZ=             -0.7904

  Exact polarizability:  80.185  -2.100  76.988  -1.271  -0.206  69.204
 Approx polarizability: 108.739   0.190 116.612   0.409   0.997 107.151

                      1                      2                      3
                      A                      A                      A
 Frequencies --     60.0059               146.3291               171.3849
 Red. masses --      2.4635                 3.2018                 2.0461
 Frc consts  --      0.0052                 0.0404                 0.0354
 IR Inten    --      0.2986                 0.9754                 1.4391

                      4                      5                      6
                      A                      A                      A
 Frequencies --    224.2380               277.6008               320.3449
 Red. masses --      1.4517                 3.0668                 3.2739
 Frc consts  --      0.0430                 0.1392                 0.1979
 IR Inten    --      0.0265                 0.9470                 0.1789

                      7                      8                      9
                      A                      A                      A
 Frequencies --    353.1677               413.6769               506.2282
 Red. masses --      3.2371                 3.0574                 4.8420
 Frc consts  --      0.2379                 0.3083                 0.7311
 IR Inten    --      1.3369                 0.4062                 4.8259

                     10                     11                     12
                      A                      A                      A
 Frequencies --    608.0178               673.2368               749.0507
 Red. masses --      3.7420                 4.1078                 2.1553
 Frc consts  --      0.8151                 1.0970                 0.7125
 IR Inten    --      0.6231                25.6209                14.1865

                     13                     14                     15
                      A                      A                      A
 Frequencies --    765.2707               806.2568               850.0055
 Red. masses --      2.9907                 1.8890                 1.7839
 Frc consts  --      1.0320                 0.7235                 0.7594
 IR Inten    --     17.9398                 1.0426                 4.0393

                     16                     17                     18
                      A                      A                      A
 Frequencies --    869.6668               893.4955               912.2600
 Red. masses --      3.3794                 2.3732                 3.3826
 Frc consts  --      1.5059                 1.1163                 1.6586
 IR Inten    --     18.6382                 2.7619                23.4872

                     19                     20                     21
                      A                      A                      A
 Frequencies --    968.7049              1013.2887              1028.2164
 Red. masses --      2.3544                 3.1917                 1.3439
 Frc consts  --      1.3017                 1.9308                 0.8371
 IR Inten    --     19.1978                45.2020                 5.3485

                     22                     23                     24
                      A                      A                      A
 Frequencies --   1065.1428              1103.3798              1113.9063
 Red. masses --      1.8213                 1.6165                 1.4171
 Frc consts  --      1.2175                 1.1595                 1.0360
 IR Inten    --      0.1450                 1.5119                 1.4061

                     25                     26                     27
                      A                      A                      A
 Frequencies --   1120.0176              1124.4663              1140.1648
 Red. masses --      3.0062                 1.9117                 1.3159
 Frc consts  --      2.2218                 1.4242                 1.0079
 IR Inten    --      2.1547                 1.0010                 0.8827

                     28                     29                     30
                      A                      A                      A
 Frequencies --   1166.8147              1174.4622              1226.7347
 Red. masses --      1.7894                 2.1450                 1.6066
 Frc consts  --      1.4354                 1.7433                 1.4245
 IR Inten    --      2.1252                10.4910                 4.4490

                     31                     32                     33
                      A                      A                      A
 Frequencies --   1241.7461              1252.6449              1289.2396
 Red. masses --      1.5338                 1.6179                 1.2580
 Frc consts  --      1.3934                 1.4958                 1.2320
 IR Inten    --      4.5234                 2.7953                 3.2615

                     34                     35                     36
                      A                      A                      A
 Frequencies --   1339.6748              1397.3354              1414.0521
 Red. masses --      1.3526                 1.6088                 1.2358
 Frc consts  --      1.4303                 1.8507                 1.4559
 IR Inten    --      7.6307                 5.1641                 2.3637

                     37                     38                     39
                      A                      A                      A
 Frequencies --   1463.2875              1487.1657              1499.3421
 Red. masses --      1.5529                 1.0606                 1.0402
 Frc consts  --      1.9590                 1.3820                 1.3777
 IR Inten    --     19.3313                 0.2375                 5.2941

                     40                     41                     42
                      A                      A                      A
 Frequencies --   1506.7900              1556.7127              3028.8951
 Red. masses --      1.0742                 2.4063                 1.0648
 Frc consts  --      1.4369                 3.4357                 5.7557
 IR Inten    --      4.2466                24.4228                17.3263

                     43                     44                     45
                      A                      A                      A
 Frequencies --   3033.9856              3069.8170              3085.3160
 Red. masses --      1.0367                 1.0907                 1.0522
 Frc consts  --      5.6225                 6.0561                 5.9011
 IR Inten    --     28.1076                 0.0355                20.2385

                     46                     47                     48
                      A                      A                      A
 Frequencies --   3085.5478              3103.8292              3108.5812
 Red. masses --      1.0878                 1.1013                 1.1008
 Frc consts  --      6.1019                 6.2511                 6.2671
 IR Inten    --      8.5517                48.9904                33.7025

                     49                     50                     51
                      A                      A                      A
 Frequencies --   3126.6751              3131.8576              3171.5423
 Red. masses --      1.0907                 1.0965                 1.1190
 Frc consts  --      6.2821                 6.3368                 6.6318
 IR Inten    --     62.7718                 4.7392                17.0385

 - Thermochemistry -
 -------------------
 Temperature   298.150 Kelvin.  Pressure   1.00000 Atm.
 Atom     1 has atomic number  6 and mass  12.00000

 Molecular mass:   126.06808 amu.
 Principal axes and moments of inertia in atomic units:
                           1         2         3
     Eigenvalues --   646.379601371.416921717.89806
           X            0.99992   0.00589  -0.01140
           Y           -0.00595   0.99997  -0.00499
           Z            0.01137   0.00505   0.99992
 This molecule is an asymmetric top.
 Rotational symmetry number  1.
 Warning -- assumption of classical behavior for rotation
           may cause significant error
 Rotational temperatures (Kelvin)      0.13400     0.06316     0.05042
 Rotational constants (GHZ):           2.79208     1.31597     1.05055
 Zero-point vibrational energy     414144.6 (Joules/Mol)
                                   98.98294 (Kcal/Mol)
 Warning -- explicit consideration of  10 degrees of freedom as
           vibrations may cause significant error
 Vibrational temperatures:     86.34   210.53   246.58   322.63   399.41
          (Kelvin)            460.90   508.13   595.19   728.35   874.80
                              968.64  1077.72  1101.05  1160.02  1222.97
                             1251.26  1285.54  1312.54  1393.75  1457.89
                             1479.37  1532.50  1587.52  1602.66  1611.45
                             1617.85  1640.44  1678.78  1689.79  1765.00
                             1786.59  1802.27  1854.93  1927.49  2010.45
                             2034.50  2105.34  2139.70  2157.22  2167.93
                             2239.76  4357.90  4365.22  4416.78  4439.08
                             4439.41  4465.71  4472.55  4498.58  4506.04
                             4563.14

 Zero-point correction=                           0.157739 (Hartree/Particle)
 Thermal correction to Energy=                    0.166050
 Thermal correction to Enthalpy=                  0.166995
 Thermal correction to Gibbs Free Energy=         0.124537
 Sum of electronic and zero-point Energies=           -422.922261
 Sum of electronic and thermal Energies=              -422.913950
 Sum of electronic and thermal Enthalpies=            -422.913006
 Sum of electronic and thermal Free Energies=         -422.955464

                     E (Thermal)             CV                S
                      KCal/Mol        Cal/Mol-Kelvin    Cal/Mol-Kelvin
 Total                  104.198             31.815             89.360
 Electronic               0.000              0.000              0.000
 Translational            0.889              2.981             40.409
 Rotational               0.889              2.981             28.812
 Vibrational            102.421             25.854             20.140
 Vibration     1          0.597              1.973              4.457
 Vibration     2          0.617              1.907              2.719
 Vibration     3          0.626              1.878              2.420
 Vibration     4          0.649              1.804              1.925
 Vibration     5          0.679              1.715              1.548
 Vibration     6          0.706              1.635              1.308
 Vibration     7          0.729              1.569              1.152
 Vibration     8          0.777              1.441              0.914
 Vibration     9          0.861              1.236              0.643
 Vibration    10          0.967              1.015              0.436

 Optimization completed.
    -- Stationary point found.
 Normal termination of Gaussian 09 at Tue Jan 28 15:01:51 2020.
