 Gaussian 09, Revision D.01,
 Gaussian 09:  ES64L-G09RevD.01 24-Apr-2013

 -----------------------------
 # b3lyp 6-31G(2df,p) opt Freq
 -----------------------------

 -----
 titel
 -----
 Symbolic Z-matrix:
 Charge =  0 Multiplicity = 1

 SCF Done:  E(RB3LYP) =  -423.217904611     A.U. after   14 cycles
 Optimization completed.
    -- Stationary point found.
 Normal termination of Gaussian 09 at Tue Jan 28 14:25:36 2020.

 ----------------------------------------------------------------------
 #N Geom=AllCheck Guess=TCheck SCRF=Check GenChk RB3LYP/6-31G(2df,p) Fr
 eq
 ----------------------------------------------------------------------

 Structure from the checkpoint file:  "/scratch/puck/g09_b6b46b86-1591-4f43-b6a6-36708f150289/Gau-163942.chk"
 -----
 titel
 -----
 Charge =  0 Multiplicity = 1

                         Standard orientation:
 ---------------------------------------------------------------------
 Center     Atomic      Atomic             Coordinates (Angstroms)
 Number     Number       Type             X           Y           Z
 ---------------------------------------------------------------------
      1          8           0       -3.456902   -0.195637   -0.278470
      2          6           0       -2.216641    0.128730    0.334823
      3          6           0       -1.061040   -0.700177   -0.236739
      4          6           0        0.288094   -0.439723    0.453140
      5          6           0        1.397042   -1.468282    0.132663
      6          6           0        2.600852   -0.632687   -0.218326
      7          6           0        2.337761    0.678725   -0.245834
      8          6           0        0.915889    0.921720    0.084403
      9          8           0        0.338946    1.987135    0.062543
     10          1           0       -3.450191    0.179229   -1.164466
     11          1           0       -1.987326    1.197696    0.260157
     12          1           0       -2.341150   -0.106714    1.398732
     13          1           0       -1.321480   -1.760862   -0.140463
     14          1           0       -0.964794   -0.498077   -1.312938
     15          1           0        0.124690   -0.415274    1.539403
     16          1           0        1.605923   -2.145950    0.968582
     17          1           0        1.121242   -2.110804   -0.714301
     18          1           0        3.564157   -1.081789   -0.437800
     19          1           0        3.020845    1.480729   -0.494276
 ---------------------------------------------------------------------

 SCF Done:  E(RB3LYP) =  -423.217904611     A.U. after    1 cycles

 The electronic state is 1-A.
 Alpha  occ. eigenvalues --  -19.12668 -19.12428 -10.26314 -10.21842 -10.21647
 Alpha  occ. eigenvalues --  -10.20419 -10.19955 -10.19520 -10.18563  -1.03341
 Alpha  occ. eigenvalues --   -1.00693  -0.85887  -0.77651  -0.70983  -0.67823
 Alpha  occ. eigenvalues --   -0.61266  -0.57335  -0.53365  -0.49798  -0.48728
 Alpha  occ. eigenvalues --   -0.47278  -0.44478  -0.41945  -0.40738  -0.40109
 Alpha  occ. eigenvalues --   -0.38898  -0.38354  -0.37246  -0.35625  -0.34339
 Alpha  occ. eigenvalues --   -0.31597  -0.27720  -0.26058  -0.23806
 Alpha virt. eigenvalues --   -0.04805   0.05175   0.08176   0.09738   0.11800
 Alpha virt. eigenvalues --    0.12297   0.13267   0.14749   0.15364   0.16444
 Alpha virt. eigenvalues --    0.17410   0.18763   0.21190   0.21819   0.24100

 Mulliken charges:
               1
     1  O   -0.420428
     2  C   -0.079932
     3  C   -0.209052
     4  C   -0.109063
     5  C   -0.297148
     6  C   -0.049868
     7  C   -0.163124
     8  C    0.376003
     9  O   -0.339461
    10  H    0.281417
    11  H    0.127088
    12  H    0.103405
    13  H    0.104998
    14  H    0.090427
    15  H    0.106100
    16  H    0.120818
    17  H    0.124258
    18  H    0.117041
    19  H    0.116521
 Sum of Mulliken charges =   0.00000

 Dipole moment (field-independent basis, Debye):
    X=              2.7570    Y=             -2.2888    Z=             -0.7229  Tot=              3.6554
 Quadrupole moment (field-independent basis, Debye-Ang):
   XX=            -54.6943   YY=            -57.4148   ZZ=            -50.0887
   XY=             -3.8311   XZ=              2.4072   YZ=             -1.2096

  Exact polarizability:  91.654  -5.438  84.168  -2.573  -1.489  57.917
 Approx polarizability: 118.659 -16.456 145.633  -3.262  -2.384  91.245

                      1                      2                      3
                      A                      A                      A
 Frequencies --     50.8468                88.3026               118.2005
 Red. masses --      3.8077                 2.4047                 2.7804
 Frc consts  --      0.0058                 0.0110                 0.0229
 IR Inten    --      1.1905                 6.6686                 3.1516

                      4                      5                      6
                      A                      A                      A
 Frequencies --    174.8912               243.3341               285.0825
 Red. masses --      3.2362                 3.8624                 1.1198
 Frc consts  --      0.0583                 0.1347                 0.0536
 IR Inten    --      1.8022                 2.2558                97.4993

                      7                      8                      9
                      A                      A                      A
 Frequencies --    309.3025               337.3240               430.0165
 Red. masses --      3.1830                 4.4468                 2.5563
 Frc consts  --      0.1794                 0.2981                 0.2785
 IR Inten    --      5.9236                 0.4863                 2.8957

                     10                     11                     12
                      A                      A                      A
 Frequencies --    490.6397               630.8581               680.9968
 Red. masses --      4.2308                 4.6216                 2.3390
 Frc consts  --      0.6001                 1.0837                 0.6391
 IR Inten    --     10.8221                 6.8159                 2.9088

                     13                     14                     15
                      A                      A                      A
 Frequencies --    754.8533               759.3548               792.6551
 Red. masses --      1.8058                 5.1698                 1.3911
 Frc consts  --      0.6062                 1.7564                 0.5150
 IR Inten    --      4.3322                 9.8457                15.6531

                     16                     17                     18
                      A                      A                      A
 Frequencies --    829.8401               922.2985               953.4608
 Red. masses --      1.8866                 1.7966                 2.3424
 Frc consts  --      0.7654                 0.9004                 1.2547
 IR Inten    --      9.2101                 6.9616                 9.8960

                     19                     20                     21
                      A                      A                      A
 Frequencies --    997.3891              1008.1909              1034.9445
 Red. masses --      1.9884                 1.7193                 1.7181
 Frc consts  --      1.1654                 1.0296                 1.0842
 IR Inten    --      9.2657                 5.2326                 3.3536

                     22                     23                     24
                      A                      A                      A
 Frequencies --   1067.7887              1070.8650              1108.6072
 Red. masses --      2.6861                 4.0804                 1.6734
 Frc consts  --      1.8044                 2.7569                 1.2117
 IR Inten    --     18.9538               114.5066                 2.4041

                     25                     26                     27
                      A                      A                      A
 Frequencies --   1116.9908              1144.5722              1178.4762
 Red. masses --      1.3495                 1.1876                 2.2624
 Frc consts  --      0.9920                 0.9167                 1.8513
 IR Inten    --      0.8150                 8.1942                50.8614

                     28                     29                     30
                      A                      A                      A
 Frequencies --   1190.9442              1266.8641              1278.5706
 Red. masses --      1.5328                 1.3450                 1.3200
 Frc consts  --      1.2809                 1.2718                 1.2714
 IR Inten    --      9.0763                 0.4727                 0.1116

                     31                     32                     33
                      A                      A                      A
 Frequencies --   1315.8132              1332.2861              1348.5759
 Red. masses --      1.3106                 1.4470                 1.5038
 Frc consts  --      1.3369                 1.5132                 1.6113
 IR Inten    --      2.5008                 4.9661                 3.6848

                     34                     35                     36
                      A                      A                      A
 Frequencies --   1366.4942              1402.6650              1418.3207
 Red. masses --      1.7593                 1.2545                 1.2873
 Frc consts  --      1.9355                 1.4542                 1.5258
 IR Inten    --     16.0412                29.8214                24.1430

                     37                     38                     39
                      A                      A                      A
 Frequencies --   1474.9767              1487.2366              1519.0564
 Red. masses --      1.0989                 1.0829                 1.0912
 Frc consts  --      1.4086                 1.4112                 1.4836
 IR Inten    --      7.2435                 0.6883                 1.3770

                     40                     41                     42
                      A                      A                      A
 Frequencies --   1651.6090              1799.9555              3007.1562
 Red. masses --      5.9812                12.2771                 1.0663
 Frc consts  --      9.6128                23.4353                 5.6811
 IR Inten    --     20.4989               239.5275                 5.5430

                     43                     44                     45
                      A                      A                      A
 Frequencies --   3017.5878              3024.0358              3033.6234
 Red. masses --      1.0774                 1.0638                 1.0589
 Frc consts  --      5.7802                 5.7318                 5.7417
 IR Inten    --      7.0589                17.0753                49.5076

                     46                     47                     48
                      A                      A                      A
 Frequencies --   3054.1159              3059.1919              3085.4037
 Red. masses --      1.0988                 1.0973                 1.1076
 Frc consts  --      6.0385                 6.0507                 6.2124
 IR Inten    --      6.5822                19.2979                35.6943

                     49                     50                     51
                      A                      A                      A
 Frequencies --   3186.7683              3228.0457              3822.5186
 Red. masses --      1.0892                 1.1017                 1.0663
 Frc consts  --      6.5170                 6.7638                 9.1795
 IR Inten    --      9.5625                 6.5668                18.3757

 - Thermochemistry -
 -------------------
 Temperature   298.150 Kelvin.  Pressure   1.00000 Atm.
 Atom     1 has atomic number  8 and mass  15.99491

 Molecular mass:   126.06808 amu.
 Principal axes and moments of inertia in atomic units:
                           1         2         3
     Eigenvalues --   545.195811834.332582259.35250
           X            0.99990  -0.01418  -0.00082
           Y            0.01417   0.99989  -0.00503
           Z            0.00089   0.00502   0.99999
 This molecule is an asymmetric top.
 Rotational symmetry number  1.
 Warning -- assumption of classical behavior for rotation
           may cause significant error
 Rotational temperatures (Kelvin)      0.15887     0.04722     0.03834
 Rotational constants (GHZ):           3.31026     0.98387     0.79879
 Zero-point vibrational energy     418405.3 (Joules/Mol)
                                  100.00126 (Kcal/Mol)
 Warning -- explicit consideration of  10 degrees of freedom as
           vibrations may cause significant error
 Vibrational temperatures:     73.16   127.05   170.06   251.63   350.10
          (Kelvin)            410.17   445.02   485.33   618.70   705.92
                              907.66   979.80  1086.06  1092.54  1140.45
                             1193.95  1326.98  1371.82  1435.02  1450.56
                             1489.05  1536.31  1540.73  1595.04  1607.10
                             1646.78  1695.56  1713.50  1822.73  1839.58
                             1893.16  1916.86  1940.30  1966.08  2018.12
                             2040.64  2122.16  2139.80  2185.58  2376.29
                             2589.73  4326.62  4341.63  4350.91  4364.70
                             4394.19  4401.49  4439.20  4585.04  4644.43
                             5499.74

 Zero-point correction=                           0.159362 (Hartree/Particle)
 Thermal correction to Energy=                    0.168372
 Thermal correction to Enthalpy=                  0.169316
 Thermal correction to Gibbs Free Energy=         0.124761
 Sum of electronic and zero-point Energies=           -423.058542
 Sum of electronic and thermal Energies=              -423.049532
 Sum of electronic and thermal Enthalpies=            -423.048588
 Sum of electronic and thermal Free Energies=         -423.093144

                     E (Thermal)             CV                S
                      KCal/Mol        Cal/Mol-Kelvin    Cal/Mol-Kelvin
 Total                  105.655             32.823             93.776
 Electronic               0.000              0.000              0.000
 Translational            0.889              2.981             40.409
 Rotational               0.889              2.981             29.204
 Vibrational            103.878             26.861             24.164
 Vibration     1          0.595              1.977              4.784
 Vibration     2          0.601              1.957              3.697
 Vibration     3          0.608              1.934              3.130
 Vibration     4          0.627              1.873              2.382
 Vibration     5          0.659              1.774              1.778
 Vibration     6          0.683              1.701              1.503
 Vibration     7          0.699              1.656              1.366
 Vibration     8          0.718              1.601              1.225
 Vibration     9          0.791              1.405              0.859
 Vibration    10          0.846              1.271              0.682

 Optimization completed.
    -- Stationary point found.
 Normal termination of Gaussian 09 at Tue Jan 28 15:09:12 2020.
