 Gaussian 09, Revision D.01,
 Gaussian 09:  ES64L-G09RevD.01 24-Apr-2013

 -----------------------------
 # b3lyp 6-31G(2df,p) opt Freq
 -----------------------------

 -----
 titel
 -----
 Symbolic Z-matrix:
 Charge =  0 Multiplicity = 1

 SCF Done:  E(RB3LYP) =  -423.094229758     A.U. after   13 cycles
 Optimization completed.
    -- Stationary point found.
 Normal termination of Gaussian 09 at Tue Jan 28 14:10:47 2020.

 ----------------------------------------------------------------------
 #N Geom=AllCheck Guess=TCheck SCRF=Check GenChk RB3LYP/6-31G(2df,p) Fr
 eq
 ----------------------------------------------------------------------

 Structure from the checkpoint file:  "/scratch/puck/g09_97717a56-dd31-4d16-88ca-64c1622c52eb/Gau-144532.chk"
 -----
 titel
 -----
 Charge =  0 Multiplicity = 1

                         Standard orientation:
 ---------------------------------------------------------------------
 Center     Atomic      Atomic             Coordinates (Angstroms)
 Number     Number       Type             X           Y           Z
 ---------------------------------------------------------------------
      1          6           0       -3.487242    0.148065    0.110083
      2          8           0       -2.195542    0.255231   -0.436672
      3          6           0       -1.250997   -0.566972    0.217378
      4          6           0        0.092014   -0.392576   -0.463034
      5          6           0        0.714629    0.989058   -0.252380
      6          6           0        2.228807    0.724133   -0.225881
      7          8           0        2.441311   -0.665449   -0.481148
      8          6           0        1.295559   -0.905770    0.381522
      9          6           0        1.434146    0.530308    1.017415
     10          1           0       -3.509668    0.446895    1.170540
     11          1           0       -4.140411    0.815110   -0.457870
     12          1           0       -3.879279   -0.879146    0.037526
     13          1           0       -1.180713   -0.294497    1.285305
     14          1           0       -1.567114   -1.623989    0.169492
     15          1           0        0.056646   -0.776185   -1.488180
     16          1           0        0.285828    1.957877   -0.470077
     17          1           0        2.993102    1.435742   -0.507799
     18          1           0        1.311935   -1.878488    0.870406
     19          1           0        1.502039    0.920960    2.022594
 ---------------------------------------------------------------------

 SCF Done:  E(RB3LYP) =  -423.094229758     A.U. after    1 cycles

 The electronic state is 1-A.
 Alpha  occ. eigenvalues --  -19.13977 -19.13452 -10.24485 -10.23847 -10.22830
 Alpha  occ. eigenvalues --  -10.22427 -10.19473 -10.19391 -10.19040  -1.06066
 Alpha  occ. eigenvalues --   -1.03272  -0.85901  -0.76147  -0.69734  -0.65037
 Alpha  occ. eigenvalues --   -0.62416  -0.55663  -0.53721  -0.53213  -0.49461
 Alpha  occ. eigenvalues --   -0.48096  -0.45655  -0.44957  -0.42572  -0.39789
 Alpha  occ. eigenvalues --   -0.39685  -0.37554  -0.35731  -0.32692  -0.31717
 Alpha  occ. eigenvalues --   -0.29421  -0.26541  -0.25544  -0.23036
 Alpha virt. eigenvalues --    0.08140   0.08864   0.09648   0.11308   0.12340
 Alpha virt. eigenvalues --    0.13447   0.14389   0.15437   0.15836   0.16495
 Alpha virt. eigenvalues --    0.17001   0.18143   0.19455   0.19715   0.20394

 Mulliken charges:
               1
     1  C   -0.225437
     2  O   -0.233388
     3  C   -0.074312
     4  C   -0.027943
     5  C   -0.096059
     6  C    0.071352
     7  O   -0.294728
     8  C    0.055160
     9  C   -0.149877
    10  H    0.102172
    11  H    0.126975
    12  H    0.103017
    13  H    0.082761
    14  H    0.083501
    15  H    0.081264
    16  H    0.099976
    17  H    0.110746
    18  H    0.085938
    19  H    0.098883
 Sum of Mulliken charges =   0.00000

 Dipole moment (field-independent basis, Debye):
    X=             -1.3463    Y=              0.4377    Z=              1.6867  Tot=              2.2020
 Quadrupole moment (field-independent basis, Debye-Ang):
   XX=            -53.5778   YY=            -50.7392   ZZ=            -53.4534
   XY=              4.4314   XZ=              0.3403   YZ=             -0.9308

  Exact polarizability:  89.803   2.146  70.702   0.464  -0.914  64.849
 Approx polarizability: 112.794  -0.018 107.269  -0.788  -2.248 103.845

                      1                      2                      3
                      A                      A                      A
 Frequencies --     71.5216                99.6676               127.5998
 Red. masses --      3.2404                 2.2506                 3.7526
 Frc consts  --      0.0098                 0.0132                 0.0360
 IR Inten    --      0.3178                 4.5236                 0.7703

                      4                      5                      6
                      A                      A                      A
 Frequencies --    221.3032               267.1369               339.0414
 Red. masses --      1.4725                 1.9477                 3.9260
 Frc consts  --      0.0425                 0.0819                 0.2659
 IR Inten    --      2.5111                 1.1111                 0.8645

                      7                      8                      9
                      A                      A                      A
 Frequencies --    362.6490               556.0260               596.9347
 Red. masses --      4.2436                 4.6395                 2.8034
 Frc consts  --      0.3288                 0.8451                 0.5886
 IR Inten    --      1.7624                 7.6365                 5.8342

                     10                     11                     12
                      A                      A                      A
 Frequencies --    758.5720               773.0483               784.2125
 Red. masses --      2.0080                 2.1944                 2.7002
 Frc consts  --      0.6808                 0.7727                 0.9784
 IR Inten    --      2.9902                16.0461                 4.5784

                     13                     14                     15
                      A                      A                      A
 Frequencies --    794.8800               834.0176               908.9657
 Red. masses --      2.2142                 1.7532                 2.2214
 Frc consts  --      0.8243                 0.7185                 1.0814
 IR Inten    --      7.6061                 3.3783                11.3769

                     16                     17                     18
                      A                      A                      A
 Frequencies --    927.5597               932.7068               982.1134
 Red. masses --      2.1669                 2.7310                 2.6988
 Frc consts  --      1.0984                 1.3998                 1.5337
 IR Inten    --      3.8585                43.8281                26.6280

                     19                     20                     21
                      A                      A                      A
 Frequencies --    998.3635              1024.3327              1035.3842
 Red. masses --      3.2131                 1.4809                 2.6505
 Frc consts  --      1.8869                 0.9155                 1.6741
 IR Inten    --     31.2976                 7.7987                 3.6266

                     22                     23                     24
                      A                      A                      A
 Frequencies --   1050.3364              1070.8193              1108.3226
 Red. masses --      1.8697                 2.0900                 2.6875
 Frc consts  --      1.2153                 1.4120                 1.9451
 IR Inten    --      1.0095                 0.7711                 9.2748

                     25                     26                     27
                      A                      A                      A
 Frequencies --   1125.1411              1156.1239              1165.7814
 Red. masses --      2.7064                 1.8936                 2.8198
 Frc consts  --      2.0187                 1.4912                 2.2579
 IR Inten    --     25.9347                57.3965                79.2714

                     28                     29                     30
                      A                      A                      A
 Frequencies --   1181.2620              1185.1772              1205.7324
 Red. masses --      1.7210                 1.3829                 1.2632
 Frc consts  --      1.4149                 1.1444                 1.0820
 IR Inten    --      2.1316                 5.0760                15.3589

                     31                     32                     33
                      A                      A                      A
 Frequencies --   1225.3099              1252.8070              1266.1732
 Red. masses --      1.5621                 1.4436                 1.3854
 Frc consts  --      1.3818                 1.3349                 1.3086
 IR Inten    --     26.8987                12.9404                 5.3338

                     34                     35                     36
                      A                      A                      A
 Frequencies --   1295.9761              1362.3326              1375.3291
 Red. masses --      1.4663                 2.5218                 1.5734
 Frc consts  --      1.4510                 2.7576                 1.7535
 IR Inten    --      7.1335                11.6932                 4.6348

                     37                     38                     39
                      A                      A                      A
 Frequencies --   1427.6285              1479.9871              1485.0894
 Red. masses --      1.4392                 1.1702                 1.0475
 Frc consts  --      1.7283                 1.5102                 1.3612
 IR Inten    --     28.9142                 0.9307                 4.9931

                     40                     41                     42
                      A                      A                      A
 Frequencies --   1501.2343              1523.7432              2940.8762
 Red. masses --      1.0643                 1.0894                 1.0526
 Frc consts  --      1.4133                 1.4902                 5.3639
 IR Inten    --      9.9263                 1.2154                33.8670

                     43                     44                     45
                      A                      A                      A
 Frequencies --   2967.9778              2969.2594              3009.6325
 Red. masses --      1.0383                 1.1042                 1.1030
 Frc consts  --      5.3888                 5.7356                 5.8865
 IR Inten    --     77.9689                54.8444                57.5346

                     46                     47                     48
                      A                      A                      A
 Frequencies --   3059.1886              3112.9668              3135.5069
 Red. masses --      1.0850                 1.0956                 1.0922
 Frc consts  --      5.9824                 6.2551                 6.3266
 IR Inten    --     43.0863                30.0476                32.5717

                     49                     50                     51
                      A                      A                      A
 Frequencies --   3207.0492              3209.5304              3224.8069
 Red. masses --      1.0903                 1.0918                 1.1046
 Frc consts  --      6.6073                 6.6261                 6.7680
 IR Inten    --     12.1372                 6.0921                12.4598

 - Thermochemistry -
 -------------------
 Temperature   298.150 Kelvin.  Pressure   1.00000 Atm.
 Atom     1 has atomic number  6 and mass  12.00000

 Molecular mass:   126.06808 amu.
 Principal axes and moments of inertia in atomic units:
                           1         2         3
     Eigenvalues --   346.585831948.364052035.09728
           X            0.99993   0.01108  -0.00428
           Y           -0.01121   0.99938  -0.03350
           Z            0.00390   0.03355   0.99943
 This molecule is an asymmetric top.
 Rotational symmetry number  1.
 Rotational temperatures (Kelvin)      0.24991     0.04445     0.04256
 Rotational constants (GHZ):           5.20720     0.92629     0.88681
 Zero-point vibrational energy     416761.8 (Joules/Mol)
                                   99.60847 (Kcal/Mol)
 Warning -- explicit consideration of   9 degrees of freedom as
           vibrations may cause significant error
 Vibrational temperatures:    102.90   143.40   183.59   318.41   384.35
          (Kelvin)            487.80   521.77   800.00   858.85  1091.41
                             1112.24  1128.31  1143.65  1199.96  1307.80
                             1334.55  1341.96  1413.04  1436.42  1473.78
                             1489.69  1511.20  1540.67  1594.63  1618.83
                             1663.40  1677.30  1699.57  1705.20  1734.78
                             1762.95  1802.51  1821.74  1864.62  1960.09
                             1978.79  2054.04  2129.37  2136.71  2159.94
                             2192.32  4231.26  4270.25  4272.10  4330.18
                             4401.48  4478.86  4511.29  4614.22  4617.79
                             4639.77

 Zero-point correction=                           0.158736 (Hartree/Particle)
 Thermal correction to Energy=                    0.166831
 Thermal correction to Enthalpy=                  0.167775
 Thermal correction to Gibbs Free Energy=         0.125439
 Sum of electronic and zero-point Energies=           -422.935494
 Sum of electronic and thermal Energies=              -422.927399
 Sum of electronic and thermal Enthalpies=            -422.926455
 Sum of electronic and thermal Free Energies=         -422.968791

                     E (Thermal)             CV                S
                      KCal/Mol        Cal/Mol-Kelvin    Cal/Mol-Kelvin
 Total                  104.688             30.457             89.103
 Electronic               0.000              0.000              0.000
 Translational            0.889              2.981             40.409
 Rotational               0.889              2.981             28.709
 Vibrational            102.910             24.496             19.985
 Vibration     1          0.598              1.968              4.111
 Vibration     2          0.604              1.949              3.461
 Vibration     3          0.611              1.926              2.982
 Vibration     4          0.648              1.809              1.948
 Vibration     5          0.672              1.733              1.615
 Vibration     6          0.719              1.597              1.217
 Vibration     7          0.737              1.549              1.111
 Vibration     8          0.911              1.127              0.532
 Vibration     9          0.955              1.038              0.455

 Optimization completed.
    -- Stationary point found.
 Normal termination of Gaussian 09 at Tue Jan 28 14:55:39 2020.
