 Gaussian 09, Revision D.01,
 Gaussian 09:  ES64L-G09RevD.01 24-Apr-2013

 -----------------------------
 # b3lyp 6-31G(2df,p) opt Freq
 -----------------------------

 -----
 titel
 -----
 Symbolic Z-matrix:
 Charge =  0 Multiplicity = 1

 SCF Done:  E(RB3LYP) =  -423.099319493     A.U. after   14 cycles
 Optimization completed.
    -- Stationary point found.
 Normal termination of Gaussian 09 at Tue Jan 28 14:12:07 2020.

 ----------------------------------------------------------------------
 #N Geom=AllCheck Guess=TCheck SCRF=Check GenChk RB3LYP/6-31G(2df,p) Fr
 eq
 ----------------------------------------------------------------------

 Structure from the checkpoint file:  "/scratch/puck/g09_310fe62c-ef39-4cc5-aca2-a036f44c63a6/Gau-34199.chk"
 -----
 titel
 -----
 Charge =  0 Multiplicity = 1

                         Standard orientation:
 ---------------------------------------------------------------------
 Center     Atomic      Atomic             Coordinates (Angstroms)
 Number     Number       Type             X           Y           Z
 ---------------------------------------------------------------------
      1          8           0       -3.482975   -0.220692   -0.133620
      2          6           0       -2.159070   -0.390066    0.347986
      3          6           0       -1.238700    0.441613   -0.544040
      4          6           0        0.199568    0.292294   -0.171880
      5          8           0        0.678754    0.946092    1.021502
      6          6           0        1.355529    1.181300   -0.224907
      7          6           0        2.315366   -0.011866   -0.526524
      8          6           0        2.235412   -1.066569    0.544289
      9          6           0        1.118138   -0.950669   -0.458335
     10          1           0       -4.078557   -0.698962    0.450279
     11          1           0       -2.059127   -0.050491    1.389565
     12          1           0       -1.852840   -1.448164    0.315354
     13          1           0       -1.383955    0.129817   -1.585366
     14          1           0       -1.526696    1.495300   -0.473042
     15          1           0        1.463160    2.210457   -0.547651
     16          1           0        3.097054    0.023467   -1.273216
     17          1           0        2.893327   -1.916423    0.392260
     18          1           0        2.073870   -0.783450    1.576529
     19          1           0        0.850074   -1.740971   -1.147300
 ---------------------------------------------------------------------

 SCF Done:  E(RB3LYP) =  -423.099319493     A.U. after    1 cycles

 The electronic state is 1-A.
 Alpha  occ. eigenvalues --  -19.14814 -19.13405 -10.23969 -10.23395 -10.22775
 Alpha  occ. eigenvalues --  -10.19366 -10.19252 -10.18709 -10.18703  -1.07362
 Alpha  occ. eigenvalues --   -1.01509  -0.86542  -0.77402  -0.68637  -0.64611
 Alpha  occ. eigenvalues --   -0.60950  -0.56131  -0.54010  -0.52744  -0.49501
 Alpha  occ. eigenvalues --   -0.47944  -0.45894  -0.43999  -0.41097  -0.39054
 Alpha  occ. eigenvalues --   -0.38227  -0.36373  -0.34938  -0.33090  -0.32609
 Alpha  occ. eigenvalues --   -0.29734  -0.26747  -0.26130  -0.22817
 Alpha virt. eigenvalues --    0.06239   0.07970   0.09723   0.11024   0.11866
 Alpha virt. eigenvalues --    0.14022   0.14515   0.15088   0.16054   0.16138
 Alpha virt. eigenvalues --    0.17451   0.18209   0.20108   0.20643   0.22804

 Mulliken charges:
               1
     1  O   -0.420142
     2  C   -0.072367
     3  C   -0.312620
     4  C    0.425751
     5  O   -0.291703
     6  C   -0.073239
     7  C   -0.087383
     8  C   -0.286983
     9  C   -0.132422
    10  H    0.286746
    11  H    0.105524
    12  H    0.090637
    13  H    0.113534
    14  H    0.118669
    15  H    0.104710
    16  H    0.093467
    17  H    0.110274
    18  H    0.135339
    19  H    0.092208
 Sum of Mulliken charges =   0.00000

 Dipole moment (field-independent basis, Debye):
    X=              0.1636    Y=             -1.1423    Z=             -0.6274  Tot=              1.3134
 Quadrupole moment (field-independent basis, Debye-Ang):
   XX=            -50.4671   YY=            -50.8298   ZZ=            -53.8703
   XY=              2.8417   XZ=             -6.4638   YZ=             -2.2368

  Exact polarizability:  89.265  -0.493  71.772  -0.795  -2.072  63.160
 Approx polarizability: 115.147   3.702 107.973  -0.739  -0.327 102.503

                      1                      2                      3
                      A                      A                      A
 Frequencies --     71.5229                94.9241               110.1203
 Red. masses --      3.8977                 2.2735                 3.8215
 Frc consts  --      0.0117                 0.0121                 0.0273
 IR Inten    --      1.0339                 8.7927                 2.2047

                      4                      5                      6
                      A                      A                      A
 Frequencies --    260.5753               292.0134               306.1977
 Red. masses --      1.0868                 2.8602                 3.0606
 Frc consts  --      0.0435                 0.1437                 0.1691
 IR Inten    --    100.3921                 2.7389                 7.9067

                      7                      8                      9
                      A                      A                      A
 Frequencies --    343.1757               422.7429               477.4871
 Red. masses --      5.6291                 3.1821                 3.0402
 Frc consts  --      0.3906                 0.3351                 0.4084
 IR Inten    --      3.3336                 5.0327                 1.6268

                     10                     11                     12
                      A                      A                      A
 Frequencies --    590.9896               686.8014               734.5708
 Red. masses --      3.9128                 3.4088                 3.4464
 Frc consts  --      0.8052                 0.9474                 1.0957
 IR Inten    --      8.9694                10.2580                 5.2270

                     13                     14                     15
                      A                      A                      A
 Frequencies --    749.3974               768.9237               818.2832
 Red. masses --      1.8038                 1.7175                 1.4795
 Frc consts  --      0.5969                 0.5983                 0.5837
 IR Inten    --      6.3230                20.0278                 2.3252

                     16                     17                     18
                      A                      A                      A
 Frequencies --    850.8087               912.6394               918.4997
 Red. masses --      2.2998                 3.5513                 2.3314
 Frc consts  --      0.9809                 1.7428                 1.1588
 IR Inten    --      8.9264                13.0242                12.0106

                     19                     20                     21
                      A                      A                      A
 Frequencies --    945.8150               992.0215              1000.6396
 Red. masses --      2.4896                 1.5692                 1.9681
 Frc consts  --      1.3122                 0.9099                 1.1611
 IR Inten    --     20.4930                 9.5288                 5.4608

                     22                     23                     24
                      A                      A                      A
 Frequencies --   1017.5958              1029.1304              1054.2870
 Red. masses --      1.6069                 2.0182                 1.2558
 Frc consts  --      0.9804                 1.2594                 0.8224
 IR Inten    --      1.4031                20.0261                 0.5497

                     25                     26                     27
                      A                      A                      A
 Frequencies --   1079.4126              1090.9933              1101.7875
 Red. masses --      3.9182                 2.6712                 1.2593
 Frc consts  --      2.6898                 1.8733                 0.9007
 IR Inten    --     52.4648                23.4250                 8.5924

                     28                     29                     30
                      A                      A                      A
 Frequencies --   1162.6220              1174.9592              1226.4052
 Red. masses --      1.7850                 1.7592                 1.1949
 Frc consts  --      1.4216                 1.4309                 1.0589
 IR Inten    --     13.5163                 1.9591                11.1393

                     31                     32                     33
                      A                      A                      A
 Frequencies --   1240.1209              1263.8625              1275.4411
 Red. masses --      1.2588                 1.4467                 1.5842
 Frc consts  --      1.1406                 1.3616                 1.5184
 IR Inten    --     18.6236                10.3196                13.3433

                     34                     35                     36
                      A                      A                      A
 Frequencies --   1303.0591              1319.8464              1333.9581
 Red. masses --      2.1324                 1.3054                 1.4869
 Frc consts  --      2.1332                 1.3398                 1.5589
 IR Inten    --      6.0822                 4.0984                13.1059

                     37                     38                     39
                      A                      A                      A
 Frequencies --   1455.5964              1461.3929              1472.4745
 Red. masses --      1.3650                 1.3852                 1.1924
 Frc consts  --      1.7040                 1.7430                 1.5232
 IR Inten    --      6.3512                 3.9980                 4.0835

                     40                     41                     42
                      A                      A                      A
 Frequencies --   1493.9101              1528.9079              2971.1825
 Red. masses --      3.5067                 1.0850                 1.0598
 Frc consts  --      4.6111                 1.4943                 5.5122
 IR Inten    --      9.2051                 3.3059                48.6974

                     43                     44                     45
                      A                      A                      A
 Frequencies --   3009.3827              3040.7844              3092.2891
 Red. masses --      1.1003                 1.0606                 1.1022
 Frc consts  --      5.8710                 5.7781                 6.2096
 IR Inten    --     34.9433                21.3468                20.3821

                     46                     47                     48
                      A                      A                      A
 Frequencies --   3140.6646              3182.8372              3196.6195
 Red. masses --      1.0543                 1.0935                 1.0902
 Frc consts  --      6.1274                 6.5267                 6.5637
 IR Inten    --     17.0175                15.0319                12.5997

                     49                     50                     51
                      A                      A                      A
 Frequencies --   3208.8325              3233.7811              3832.5188
 Red. masses --      1.0982                 1.1137                 1.0664
 Frc consts  --      6.6625                 6.8615                 9.2285
 IR Inten    --     10.0608                 3.4848                22.6106

 - Thermochemistry -
 -------------------
 Temperature   298.150 Kelvin.  Pressure   1.00000 Atm.
 Atom     1 has atomic number  8 and mass  15.99491

 Molecular mass:   126.06808 amu.
 Principal axes and moments of inertia in atomic units:
                           1         2         3
     Eigenvalues --   435.235451909.534382037.64813
           X            0.99995  -0.00587  -0.00770
           Y            0.00522   0.99665  -0.08164
           Z            0.00816   0.08160   0.99663
 This molecule is an asymmetric top.
 Rotational symmetry number  1.
 Warning -- assumption of classical behavior for rotation
           may cause significant error
 Rotational temperatures (Kelvin)      0.19900     0.04536     0.04251
 Rotational constants (GHZ):           4.14659     0.94512     0.88570
 Zero-point vibrational energy     414762.1 (Joules/Mol)
                                   99.13052 (Kcal/Mol)
 Warning -- explicit consideration of  10 degrees of freedom as
           vibrations may cause significant error
 Vibrational temperatures:    102.91   136.57   158.44   374.91   420.14
          (Kelvin)            440.55   493.75   608.23   687.00   850.30
                              988.15  1056.88  1078.21  1106.31  1177.33
                             1224.12  1313.08  1321.51  1360.82  1427.30
                             1439.70  1464.09  1480.69  1516.88  1553.03
                             1569.69  1585.22  1672.75  1690.50  1764.52
                             1784.26  1818.41  1835.07  1874.81  1898.96
                             1919.27  2094.28  2102.62  2118.56  2149.40
                             2199.75  4274.86  4329.83  4375.01  4449.11
                             4518.71  4579.39  4599.22  4616.79  4652.68
                             5514.13

 Zero-point correction=                           0.157975 (Hartree/Particle)
 Thermal correction to Energy=                    0.166520
 Thermal correction to Enthalpy=                  0.167464
 Thermal correction to Gibbs Free Energy=         0.124303
 Sum of electronic and zero-point Energies=           -422.941345
 Sum of electronic and thermal Energies=              -422.932799
 Sum of electronic and thermal Enthalpies=            -422.931855
 Sum of electronic and thermal Free Energies=         -422.975016

                     E (Thermal)             CV                S
                      KCal/Mol        Cal/Mol-Kelvin    Cal/Mol-Kelvin
 Total                  104.493             32.549             90.840
 Electronic               0.000              0.000              0.000
 Translational            0.889              2.981             40.409
 Rotational               0.889              2.981             28.917
 Vibrational            102.716             26.588             21.515
 Vibration     1          0.598              1.968              4.111
 Vibration     2          0.603              1.953              3.556
 Vibration     3          0.606              1.941              3.267
 Vibration     4          0.669              1.745              1.658
 Vibration     5          0.687              1.689              1.462
 Vibration     6          0.697              1.662              1.383
 Vibration     7          0.722              1.589              1.197
 Vibration     8          0.785              1.421              0.883
 Vibration     9          0.834              1.300              0.717
 Vibration    10          0.948              1.051              0.465

 Normal termination of Gaussian 09 at Tue Jan 28 14:50:59 2020.
