 Gaussian 09, Revision D.01,
 Gaussian 09:  ES64L-G09RevD.01 24-Apr-2013

 -----------------------------
 # b3lyp 6-31G(2df,p) opt Freq
 -----------------------------

 -----
 titel
 -----
 Symbolic Z-matrix:
 Charge =  0 Multiplicity = 1

 SCF Done:  E(RB3LYP) =  -423.224233541     A.U. after   14 cycles
 Optimization completed.
    -- Stationary point found.
 Normal termination of Gaussian 09 at Tue Jan 28 14:00:36 2020.

 ----------------------------------------------------------------------
 #N Geom=AllCheck Guess=TCheck SCRF=Check GenChk RB3LYP/6-31G(2df,p) Fr
 eq
 ----------------------------------------------------------------------

 Structure from the checkpoint file:  "/scratch/puck/g09_e0617496-5027-4dd2-b7e7-943cdb035207/Gau-110452.chk"
 -----
 titel
 -----
 Charge =  0 Multiplicity = 1

                         Standard orientation:
 ---------------------------------------------------------------------
 Center     Atomic      Atomic             Coordinates (Angstroms)
 Number     Number       Type             X           Y           Z
 ---------------------------------------------------------------------
      1          6           0       -3.266215   -0.766258   -0.339678
      2          6           0       -2.411843    0.483870   -0.102057
      3          6           0       -0.931846    0.231394   -0.304583
      4          6           0        0.085809    1.146768    0.356056
      5          6           0        1.480404    1.183925   -0.226496
      6          6           0        1.984289   -0.262135   -0.122999
      7          8           0        3.013655   -0.716313   -0.523263
      8          8           0        1.047057   -1.030446    0.514506
      9          6           0       -0.099075   -0.269061    0.840454
     10          1           0       -4.327961   -0.553940   -0.182668
     11          1           0       -3.147379   -1.135928   -1.363696
     12          1           0       -2.978633   -1.575652    0.339051
     13          1           0       -2.735498    1.289148   -0.773690
     14          1           0       -2.577778    0.857042    0.916925
     15          1           0       -0.659749   -0.167558   -1.280889
     16          1           0       -0.274139    1.986002    0.939161
     17          1           0        1.536797    1.504127   -1.270852
     18          1           0        2.155824    1.827154    0.346447
     19          1           0       -0.526312   -0.547341    1.796094
 ---------------------------------------------------------------------

 SCF Done:  E(RB3LYP) =  -423.224233541     A.U. after    1 cycles

 The electronic state is 1-A.
 Alpha  occ. eigenvalues --  -19.18363 -19.12281 -10.30501 -10.25159 -10.20855
 Alpha  occ. eigenvalues --  -10.20830 -10.20605 -10.19850 -10.18313  -1.10281
 Alpha  occ. eigenvalues --   -1.02472  -0.87691  -0.78089  -0.74786  -0.65658
 Alpha  occ. eigenvalues --   -0.62156  -0.59260  -0.55754  -0.51825  -0.48430
 Alpha  occ. eigenvalues --   -0.45858  -0.44982  -0.44326  -0.42590  -0.41953
 Alpha  occ. eigenvalues --   -0.40707  -0.37884  -0.37323  -0.35739  -0.35312
 Alpha  occ. eigenvalues --   -0.33601  -0.29080  -0.26834  -0.26728
 Alpha virt. eigenvalues --    0.01159   0.08459   0.08611   0.10029   0.11576
 Alpha virt. eigenvalues --    0.11996   0.14518   0.15175   0.15737   0.16520
 Alpha virt. eigenvalues --    0.17746   0.18053   0.18332   0.19668   0.20985

 Mulliken charges:
               1
     1  C   -0.375897
     2  C   -0.209339
     3  C   -0.042581
     4  C   -0.103637
     5  C   -0.387677
     6  C    0.416986
     7  O   -0.325526
     8  O   -0.214962
     9  C    0.083037
    10  H    0.116223
    11  H    0.121129
    12  H    0.123032
    13  H    0.105639
    14  H    0.096970
    15  H    0.096609
    16  H    0.100414
    17  H    0.143235
    18  H    0.143193
    19  H    0.113151
 Sum of Mulliken charges =   0.00000

 Dipole moment (field-independent basis, Debye):
    X=             -3.4267    Y=              2.5767    Z=              0.7380  Tot=              4.3504
 Quadrupole moment (field-independent basis, Debye-Ang):
   XX=            -61.8956   YY=            -54.3473   ZZ=            -51.1146
   XY=              5.6302   XZ=              1.6830   YZ=              0.0455

  Exact polarizability:  95.476   1.088  68.846  -3.217   0.141  63.071
 Approx polarizability: 122.957  -2.045 104.432  -7.408  -0.796  99.479

                      1                      2                      3
                      A                      A                      A
 Frequencies --     83.1178                94.6086               147.2904
 Red. masses --      4.1132                 2.8131                 2.7073
 Frc consts  --      0.0167                 0.0148                 0.0346
 IR Inten    --      0.5659                 1.8449                 0.3879

                      4                      5                      6
                      A                      A                      A
 Frequencies --    204.2497               276.8595               322.5129
 Red. masses --      1.4030                 1.7200                 2.7637
 Frc consts  --      0.0345                 0.0777                 0.1694
 IR Inten    --      0.1620                 0.5711                 2.0326

                      7                      8                      9
                      A                      A                      A
 Frequencies --    372.9893               440.7073               499.6361
 Red. masses --      3.0652                 3.4478                 5.3910
 Frc consts  --      0.2512                 0.3945                 0.7929
 IR Inten    --      0.3096                 0.3748                 3.7384

                     10                     11                     12
                      A                      A                      A
 Frequencies --    562.0584               688.2223               714.7243
 Red. masses --      2.6746                 5.8942                 4.4172
 Frc consts  --      0.4978                 1.6449                 1.3295
 IR Inten    --      4.6117                 4.7922                 2.2656

                     13                     14                     15
                      A                      A                      A
 Frequencies --    767.8532               829.8016               860.5368
 Red. masses --      1.3257                 4.5690                 1.5746
 Frc consts  --      0.4605                 1.8536                 0.6870
 IR Inten    --      8.3328                16.0309                14.5558

                     16                     17                     18
                      A                      A                      A
 Frequencies --    862.9724               884.1327               954.4822
 Red. masses --      2.3099                 2.5621                 1.7355
 Frc consts  --      1.0135                 1.1800                 0.9316
 IR Inten    --      0.2714                 8.9855                12.9267

                     19                     20                     21
                      A                      A                      A
 Frequencies --    999.1420              1022.1977              1051.6481
 Red. masses --      2.5581                 1.6597                 1.6044
 Frc consts  --      1.5046                 1.0218                 1.0455
 IR Inten    --      1.9613                 3.7632                27.8632

                     22                     23                     24
                      A                      A                      A
 Frequencies --   1072.5154              1081.7752              1109.5651
 Red. masses --      2.0216                 1.5829                 2.3647
 Frc consts  --      1.3701                 1.0914                 1.7153
 IR Inten    --     12.8723                17.8407                25.9125

                     25                     26                     27
                      A                      A                      A
 Frequencies --   1123.3860              1153.4078              1173.8957
 Red. masses --      2.0945                 2.4156                 2.5326
 Frc consts  --      1.5574                 1.8934                 2.0563
 IR Inten    --     23.9327                94.4895               106.4472

                     28                     29                     30
                      A                      A                      A
 Frequencies --   1190.8905              1211.9226              1271.4924
 Red. masses --      1.2789                 1.7228                 1.4591
 Frc consts  --      1.0686                 1.4908                 1.3899
 IR Inten    --      3.3118                 3.4217                 4.1910

                     31                     32                     33
                      A                      A                      A
 Frequencies --   1293.1169              1316.0509              1344.0919
 Red. masses --      1.5199                 1.2921                 1.5000
 Frc consts  --      1.4974                 1.3185                 1.5966
 IR Inten    --      9.6252                10.4056                13.2965

                     34                     35                     36
                      A                      A                      A
 Frequencies --   1370.6494              1412.5797              1447.0909
 Red. masses --      1.4668                 1.2437                 2.2822
 Frc consts  --      1.6235                 1.4622                 2.8158
 IR Inten    --      3.9705                 1.4120                 7.1477

                     37                     38                     39
                      A                      A                      A
 Frequencies --   1463.5563              1487.5996              1498.1011
 Red. masses --      1.1439                 1.0616                 1.0401
 Frc consts  --      1.4436                 1.3841                 1.3754
 IR Inten    --      8.9428                 0.9181                 5.6683

                     40                     41                     42
                      A                      A                      A
 Frequencies --   1507.3537              1888.3330              3019.3604
 Red. masses --      1.0753                12.9729                 1.0597
 Frc consts  --      1.4394                27.2549                 5.6918
 IR Inten    --      2.6535               395.9017                24.7642

                     43                     44                     45
                      A                      A                      A
 Frequencies --   3036.2509              3049.6346              3061.0356
 Red. masses --      1.0351                 1.1014                 1.0603
 Frc consts  --      5.6221                 6.0352                 5.8537
 IR Inten    --     24.6745                15.4753                13.7836

                     46                     47                     48
                      A                      A                      A
 Frequencies --   3100.3879              3104.3961              3110.1545
 Red. masses --      1.1029                 1.1016                 1.1018
 Frc consts  --      6.2463                 6.2548                 6.2794
 IR Inten    --      4.3187                27.2818                33.2684

                     49                     50                     51
                      A                      A                      A
 Frequencies --   3121.0775              3180.0356              3191.9466
 Red. masses --      1.0886                 1.0894                 1.0931
 Frc consts  --      6.2476                 6.4909                 6.5618
 IR Inten    --     13.9855                 6.4614                13.6690

 - Thermochemistry -
 -------------------
 Temperature   298.150 Kelvin.  Pressure   1.00000 Atm.
 Atom     1 has atomic number  6 and mass  12.00000

 Molecular mass:   126.06808 amu.
 Principal axes and moments of inertia in atomic units:
                           1         2         3
     Eigenvalues --   425.430751916.143172105.71427
           X            0.99967   0.02524   0.00520
           Y           -0.02531   0.99958   0.01418
           Z           -0.00484  -0.01431   0.99989
 This molecule is an asymmetric top.
 Rotational symmetry number  1.
 Rotational temperatures (Kelvin)      0.20359     0.04520     0.04113
 Rotational constants (GHZ):           4.24215     0.94186     0.85707
 Zero-point vibrational energy     418880.8 (Joules/Mol)
                                  100.11491 (Kcal/Mol)
 Warning -- explicit consideration of  10 degrees of freedom as
           vibrations may cause significant error
 Vibrational temperatures:    119.59   136.12   211.92   293.87   398.34
          (Kelvin)            464.02   536.65   634.08   718.86   808.68
                              990.20  1028.33  1104.77  1193.90  1238.12
                             1241.62  1272.07  1373.29  1437.54  1470.71
                             1513.09  1543.11  1556.43  1596.41  1616.30
                             1659.49  1688.97  1713.42  1743.68  1829.39
                             1860.50  1893.50  1933.85  1972.06  2032.38
                             2082.04  2105.73  2140.32  2155.43  2168.74
                             2716.89  4344.18  4368.48  4387.74  4404.14
                             4460.76  4466.53  4474.81  4490.53  4575.36
                             4592.49

 Zero-point correction=                           0.159543 (Hartree/Particle)
 Thermal correction to Energy=                    0.167918
 Thermal correction to Enthalpy=                  0.168862
 Thermal correction to Gibbs Free Energy=         0.126123
 Sum of electronic and zero-point Energies=           -423.064690
 Sum of electronic and thermal Energies=              -423.056315
 Sum of electronic and thermal Enthalpies=            -423.055371
 Sum of electronic and thermal Free Energies=         -423.098111

                     E (Thermal)             CV                S
                      KCal/Mol        Cal/Mol-Kelvin    Cal/Mol-Kelvin
 Total                  105.370             31.535             89.953
 Electronic               0.000              0.000              0.000
 Translational            0.889              2.981             40.409
 Rotational               0.889              2.981             28.930
 Vibrational            103.593             25.573             20.614
 Vibration     1          0.600              1.961              3.816
 Vibration     2          0.603              1.953              3.562
 Vibration     3          0.617              1.906              2.707
 Vibration     4          0.640              1.834              2.094
 Vibration     5          0.678              1.716              1.553
 Vibration     6          0.708              1.630              1.297
 Vibration     7          0.744              1.528              1.067
 Vibration     8          0.801              1.381              0.824
 Vibration     9          0.855              1.251              0.659
 Vibration    10          0.918              1.113              0.520

 Optimization completed.
    -- Stationary point found.
 Normal termination of Gaussian 09 at Tue Jan 28 14:39:02 2020.
