 Gaussian 09, Revision D.01,
 Gaussian 09:  ES64L-G09RevD.01 24-Apr-2013

 -----------------------------
 # b3lyp 6-31G(2df,p) opt Freq
 -----------------------------

 -----
 titel
 -----
 Symbolic Z-matrix:
 Charge =  0 Multiplicity = 1

 SCF Done:  E(RB3LYP) =  -423.120014689     A.U. after   13 cycles
 Optimization completed.
    -- Stationary point found.
 Normal termination of Gaussian 09 at Tue Jan 28 00:07:58 2020.

 ----------------------------------------------------------------------
 #N Geom=AllCheck Guess=TCheck SCRF=Check GenChk RB3LYP/6-31G(2df,p) Fr
 eq
 ----------------------------------------------------------------------

 Structure from the checkpoint file:  "/scratch/puck/g09_254daac7-de80-4445-9ed3-f692a4c9a84d/Gau-56735.chk"
 -----
 titel
 -----
 Charge =  0 Multiplicity = 1

                         Standard orientation:
 ---------------------------------------------------------------------
 Center     Atomic      Atomic             Coordinates (Angstroms)
 Number     Number       Type             X           Y           Z
 ---------------------------------------------------------------------
      1          8           0        1.246927    1.679591   -0.462710
      2          6           0        0.006228    1.040304   -0.487633
      3          6           0       -0.727230    0.786137    0.853684
      4          6           0       -2.045915    0.150676    0.288478
      5          6           0       -1.491806   -0.831013   -0.842156
      6          6           0       -0.029355   -0.558910   -0.553152
      7          6           0        1.375173   -1.149384   -0.540097
      8          8           0        1.540599   -0.633604    0.831611
      9          6           0        0.080740   -0.522993    0.978632
     10          1           0        1.781934    1.220580    0.202015
     11          1           0       -0.578985    1.536662   -1.267032
     12          1           0       -0.846199    1.545346    1.628993
     13          1           0       -2.602379   -0.395766    1.054528
     14          1           0       -2.702397    0.923951   -0.117651
     15          1           0       -1.790680   -1.866924   -0.662708
     16          1           0       -1.825737   -0.543238   -1.842597
     17          1           0        1.434624   -2.244133   -0.548115
     18          1           0        2.114866   -0.716485   -1.219072
     19          1           0       -0.292264   -1.316798    1.633891
 ---------------------------------------------------------------------

 SCF Done:  E(RB3LYP) =  -423.120014689     A.U. after    1 cycles

 The electronic state is 1-A.
 Alpha  occ. eigenvalues --  -19.15017 -19.12804 -10.24022 -10.23163 -10.23147
 Alpha  occ. eigenvalues --  -10.19734 -10.19695 -10.19671 -10.19564  -1.05194
 Alpha  occ. eigenvalues --   -1.00793  -0.87654  -0.72610  -0.71420  -0.66476
 Alpha  occ. eigenvalues --   -0.64482  -0.56830  -0.55832  -0.50108  -0.48402
 Alpha  occ. eigenvalues --   -0.47603  -0.45716  -0.42951  -0.41231  -0.39625
 Alpha  occ. eigenvalues --   -0.38772  -0.36021  -0.35173  -0.34484  -0.33196
 Alpha  occ. eigenvalues --   -0.32193  -0.27354  -0.25813  -0.24042
 Alpha virt. eigenvalues --    0.05933   0.08644   0.09702   0.11425   0.13410
 Alpha virt. eigenvalues --    0.13680   0.14276   0.14972   0.15918   0.16572
 Alpha virt. eigenvalues --    0.17460   0.18959   0.19647   0.21221   0.21663

 Mulliken charges:
               1
     1  O   -0.456673
     2  C    0.156059
     3  C   -0.133260
     4  C   -0.220207
     5  C   -0.336737
     6  C    0.249278
     7  C   -0.213294
     8  O   -0.335395
     9  C    0.112657
    10  H    0.291637
    11  H    0.076709
    12  H    0.066658
    13  H    0.108548
    14  H    0.111926
    15  H    0.105924
    16  H    0.105974
    17  H    0.111678
    18  H    0.122861
    19  H    0.075656
 Sum of Mulliken charges =   0.00000

 Dipole moment (field-independent basis, Debye):
    X=             -1.8662    Y=             -1.5101    Z=             -0.1774  Tot=              2.4072
 Quadrupole moment (field-independent basis, Debye-Ang):
   XX=            -53.5332   YY=            -55.0382   ZZ=            -53.2460
   XY=             -1.9264   XZ=             -1.1246   YZ=              2.1836

  Exact polarizability:  81.665  -2.590  73.186  -2.583   0.683  67.336
 Approx polarizability: 116.872  -2.232 108.894  -1.388  -1.175 106.410

                      1                      2                      3
                      A                      A                      A
 Frequencies --    261.1974               276.5550               297.7008
 Red. masses --      3.1558                 2.5263                 2.5394
 Frc consts  --      0.1269                 0.1138                 0.1326
 IR Inten    --      4.7381                 2.7591                 3.3639

                      4                      5                      6
                      A                      A                      A
 Frequencies --    321.5282               389.9933               421.2436
 Red. masses --      3.3932                 2.7283                 3.6667
 Frc consts  --      0.2067                 0.2445                 0.3834
 IR Inten    --      5.5740                 1.8771                 5.4066

                      7                      8                      9
                      A                      A                      A
 Frequencies --    516.0024               599.6921               635.3879
 Red. masses --      4.0353                 4.7924                 1.1405
 Frc consts  --      0.6330                 1.0155                 0.2713
 IR Inten    --      1.6822                 2.6576                72.1236

                     10                     11                     12
                      A                      A                      A
 Frequencies --    676.8320               741.2313               812.0250
 Red. masses --      3.5493                 4.4396                 1.3677
 Frc consts  --      0.9580                 1.4371                 0.5313
 IR Inten    --     17.6181                21.6473                 0.9327

                     13                     14                     15
                      A                      A                      A
 Frequencies --    828.1383               847.5998               886.0276
 Red. masses --      2.5724                 3.0898                 1.8382
 Frc consts  --      1.0394                 1.3079                 0.8502
 IR Inten    --     12.0240                 1.6460                 2.9871

                     16                     17                     18
                      A                      A                      A
 Frequencies --    903.8416               911.2359               928.7643
 Red. masses --      4.5477                 2.8902                 3.7606
 Frc consts  --      2.1889                 1.4140                 1.9113
 IR Inten    --     17.2651                 8.8738                33.9380

                     19                     20                     21
                      A                      A                      A
 Frequencies --    977.3754               984.6967              1008.6547
 Red. masses --      3.3083                 3.1463                 1.4366
 Frc consts  --      1.8620                 1.7974                 0.8611
 IR Inten    --     19.9513                31.8721                 2.0325

                     22                     23                     24
                      A                      A                      A
 Frequencies --   1063.4855              1072.3447              1112.6107
 Red. masses --      2.3307                 1.4572                 1.9431
 Frc consts  --      1.5531                 0.9873                 1.4172
 IR Inten    --      4.8859                11.6199                15.4238

                     25                     26                     27
                      A                      A                      A
 Frequencies --   1155.5736              1168.1785              1181.2503
 Red. masses --      1.2278                 1.8812                 2.0285
 Frc consts  --      0.9660                 1.5125                 1.6676
 IR Inten    --      0.7517                13.6112                77.0612

                     28                     29                     30
                      A                      A                      A
 Frequencies --   1194.5035              1216.6714              1238.2898
 Red. masses --      1.4218                 1.8382                 1.2862
 Frc consts  --      1.1953                 1.6032                 1.1620
 IR Inten    --      0.6790                23.3235                 3.6467

                     31                     32                     33
                      A                      A                      A
 Frequencies --   1258.5181              1277.1889              1286.9058
 Red. masses --      1.5816                 1.7119                 1.4937
 Frc consts  --      1.4759                 1.6452                 1.4575
 IR Inten    --      2.2791                 7.6698                 0.7913

                     34                     35                     36
                      A                      A                      A
 Frequencies --   1302.9283              1307.5297              1333.6117
 Red. masses --      1.3065                 1.5545                 1.6165
 Frc consts  --      1.3068                 1.5658                 1.6939
 IR Inten    --     17.3519                 1.7000                 4.1005

                     37                     38                     39
                      A                      A                      A
 Frequencies --   1382.2932              1470.4422              1488.8628
 Red. masses --      1.8376                 1.1822                 1.0951
 Frc consts  --      2.0688                 1.5060                 1.4303
 IR Inten    --      5.5808                67.6100                 7.7724

                     40                     41                     42
                      A                      A                      A
 Frequencies --   1501.9229              1513.7445              3030.4144
 Red. masses --      1.1168                 1.1181                 1.0589
 Frc consts  --      1.4842                 1.5095                 5.7297
 IR Inten    --      2.8795                 9.5459                64.5371

                     43                     44                     45
                      A                      A                      A
 Frequencies --   3052.0779              3055.2985              3064.4676
 Red. masses --      1.0841                 1.0596                 1.0638
 Frc consts  --      5.9500                 5.8277                 5.8862
 IR Inten    --     54.4665                32.4155                36.1436

                     46                     47                     48
                      A                      A                      A
 Frequencies --   3069.8590              3096.7186              3099.2352
 Red. masses --      1.0830                 1.1077                 1.0905
 Frc consts  --      6.0134                 6.2584                 6.1713
 IR Inten    --     45.5140                 3.6474                46.0562

                     49                     50                     51
                      A                      A                      A
 Frequencies --   3101.0981              3116.6901              3711.9433
 Red. masses --      1.1072                 1.1069                 1.0645
 Frc consts  --      6.2734                 6.3347                 8.6414
 IR Inten    --     21.1226                43.1324                59.9987

 - Thermochemistry -
 -------------------
 Temperature   298.150 Kelvin.  Pressure   1.00000 Atm.
 Atom     1 has atomic number  8 and mass  15.99491

 Molecular mass:   126.06808 amu.
 Principal axes and moments of inertia in atomic units:
                           1         2         3
     Eigenvalues --   677.93017 958.340901151.11315
           X            0.99974  -0.01681  -0.01509
           Y            0.01749   0.99878   0.04620
           Z            0.01430  -0.04645   0.99882
 This molecule is an asymmetric top.
 Rotational symmetry number  1.
 Warning -- assumption of classical behavior for rotation
           may cause significant error
 Rotational temperatures (Kelvin)      0.12776     0.09038     0.07524
 Rotational constants (GHZ):           2.66213     1.88319     1.56782
 Zero-point vibrational energy     425573.8 (Joules/Mol)
                                  101.71458 (Kcal/Mol)
 Warning -- explicit consideration of   8 degrees of freedom as
           vibrations may cause significant error
 Vibrational temperatures:    375.80   397.90   428.32   462.61   561.11
          (Kelvin)            606.07   742.41   862.82   914.18   973.81
                             1066.47  1168.32  1191.50  1219.51  1274.79
                             1300.42  1311.06  1336.28  1406.22  1416.76
                             1451.23  1530.12  1542.86  1600.80  1662.61
                             1680.75  1699.55  1718.62  1750.52  1781.62
                             1810.72  1837.59  1851.57  1874.62  1881.24
                             1918.77  1988.81  2115.64  2142.14  2160.93
                             2177.94  4360.09  4391.25  4395.89  4409.08
                             4416.84  4455.48  4459.10  4461.78  4484.22
                             5340.65

 Zero-point correction=                           0.162092 (Hartree/Particle)
 Thermal correction to Energy=                    0.168824
 Thermal correction to Enthalpy=                  0.169768
 Thermal correction to Gibbs Free Energy=         0.131527
 Sum of electronic and zero-point Energies=           -422.957922
 Sum of electronic and thermal Energies=              -422.951191
 Sum of electronic and thermal Enthalpies=            -422.950247
 Sum of electronic and thermal Free Energies=         -422.988488

                     E (Thermal)             CV                S
                      KCal/Mol        Cal/Mol-Kelvin    Cal/Mol-Kelvin
 Total                  105.939             28.895             80.486
 Electronic               0.000              0.000              0.000
 Translational            0.889              2.981             40.409
 Rotational               0.889              2.981             28.105
 Vibrational            104.161             22.934             11.972
 Vibration     1          0.669              1.744              1.654
 Vibration     2          0.678              1.717              1.555
 Vibration     3          0.691              1.678              1.430
 Vibration     4          0.707              1.632              1.302
 Vibration     5          0.758              1.492              1.000
 Vibration     6          0.784              1.424              0.888
 Vibration     7          0.871              1.215              0.619
 Vibration     8          0.958              1.032              0.450

 Optimization completed.
    -- Stationary point found.
 Normal termination of Gaussian 09 at Tue Jan 28 01:36:06 2020.
