 Gaussian 09, Revision D.01,
 Gaussian 09:  ES64L-G09RevD.01 24-Apr-2013

 -----------------------------
 # b3lyp 6-31G(2df,p) opt Freq
 -----------------------------

 -----
 titel
 -----
 Symbolic Z-matrix:
 Charge =  0 Multiplicity = 1

 SCF Done:  E(RB3LYP) =  -423.165216335     A.U. after   14 cycles
 Optimization completed.
    -- Stationary point found.
 Normal termination of Gaussian 09 at Tue Jan 28 14:14:30 2020.

 ----------------------------------------------------------------------
 #N Geom=AllCheck Guess=TCheck SCRF=Check GenChk RB3LYP/6-31G(2df,p) Fr
 eq
 ----------------------------------------------------------------------

 Structure from the checkpoint file:  "/scratch/puck/g09_16caa8f6-2e17-4e6f-b26f-d766fde7b3a4/Gau-98571.chk"
 -----
 titel
 -----
 Charge =  0 Multiplicity = 1

                         Standard orientation:
 ---------------------------------------------------------------------
 Center     Atomic      Atomic             Coordinates (Angstroms)
 Number     Number       Type             X           Y           Z
 ---------------------------------------------------------------------
      1          6           0        3.353653    0.112575   -0.452166
      2          6           0        2.164745   -0.159604    0.452332
      3          8           0        1.000714    0.370315   -0.165873
      4          6           0       -0.158543    0.232963    0.596878
      5          6           0       -0.883220   -1.128739    0.629986
      6          6           0       -1.267279   -1.508553   -0.753361
      7          6           0       -2.145183   -0.496561   -0.022224
      8          6           0       -1.458906    0.832287   -0.029740
      9          8           0       -1.807814    1.956231   -0.248253
     10          1           0        4.270634   -0.281452   -0.004007
     11          1           0        3.211245   -0.363155   -1.426567
     12          1           0        3.475932    1.187550   -0.610334
     13          1           0        2.046155   -1.241389    0.622780
     14          1           0        2.307584    0.312055    1.438592
     15          1           0       -0.026362    0.647840    1.609806
     16          1           0       -0.880234   -1.823807    1.459039
     17          1           0       -0.652602   -1.187985   -1.587860
     18          1           0       -1.732669   -2.480054   -0.880485
     19          1           0       -3.194484   -0.688173    0.161813
 ---------------------------------------------------------------------

 SCF Done:  E(RB3LYP) =  -423.165216335     A.U. after    1 cycles

 The electronic state is 1-A.
 Alpha  occ. eigenvalues --  -19.14879 -19.13027 -10.26680 -10.24336 -10.23463
 Alpha  occ. eigenvalues --  -10.21247 -10.20987 -10.20965 -10.17952  -1.04958
 Alpha  occ. eigenvalues --   -1.03524  -0.90657  -0.76658  -0.71109  -0.64537
 Alpha  occ. eigenvalues --   -0.62357  -0.58470  -0.54702  -0.50943  -0.48798
 Alpha  occ. eigenvalues --   -0.47688  -0.46232  -0.43661  -0.41087  -0.39859
 Alpha  occ. eigenvalues --   -0.39239  -0.38097  -0.37973  -0.35749  -0.32838
 Alpha  occ. eigenvalues --   -0.31960  -0.29169  -0.26380  -0.23869
 Alpha virt. eigenvalues --   -0.01416   0.07544   0.09888   0.10769   0.12183
 Alpha virt. eigenvalues --    0.13309   0.14301   0.15021   0.15593   0.16223
 Alpha virt. eigenvalues --    0.16357   0.18777   0.19063   0.19348   0.21184

 Mulliken charges:
               1
     1  C   -0.385502
     2  C   -0.039998
     3  O   -0.250116
     4  C   -0.000703
     5  C   -0.080479
     6  C   -0.280978
     7  C   -0.176926
     8  C    0.390432
     9  O   -0.312629
    10  H    0.116298
    11  H    0.127972
    12  H    0.132976
    13  H    0.092917
    14  H    0.090954
    15  H    0.090606
    16  H    0.103974
    17  H    0.140539
    18  H    0.126809
    19  H    0.113853
 Sum of Mulliken charges =   0.00000

 Dipole moment (field-independent basis, Debye):
    X=              1.0543    Y=             -3.5393    Z=              1.4054  Tot=              3.9514
 Quadrupole moment (field-independent basis, Debye-Ang):
   XX=            -50.6380   YY=            -57.4614   ZZ=            -51.6222
   XY=              5.9359   XZ=             -0.3010   YZ=              1.4396

  Exact polarizability:  89.321   0.058  78.673   2.067   1.072  64.300
 Approx polarizability: 112.625  -5.653 124.587   4.668  -2.116  99.360

                      1                      2                      3
                      A                      A                      A
 Frequencies --     57.0954                75.3624               126.1452
 Red. masses --      3.6105                 1.7600                 3.4614
 Frc consts  --      0.0069                 0.0059                 0.0325
 IR Inten    --      1.1312                 0.5334                 0.1822

                      4                      5                      6
                      A                      A                      A
 Frequencies --    137.3227               234.4820               277.1710
 Red. masses --      4.6054                 1.2898                 2.9670
 Frc consts  --      0.0512                 0.0418                 0.1343
 IR Inten    --      1.3503                 0.2374                 5.5582

                      7                      8                      9
                      A                      A                      A
 Frequencies --    282.3942               366.0521               506.9916
 Red. masses --      4.9973                 2.8980                 3.5964
 Frc consts  --      0.2348                 0.2288                 0.5447
 IR Inten    --      0.3902                 0.6531                 6.1854

                     10                     11                     12
                      A                      A                      A
 Frequencies --    568.7193               622.8447               702.7113
 Red. masses --      4.3951                 3.3619                 4.3061
 Frc consts  --      0.8375                 0.7684                 1.2528
 IR Inten    --      0.5573                 4.0763                 5.1608

                     13                     14                     15
                      A                      A                      A
 Frequencies --    766.6434               820.1193               839.0086
 Red. masses --      2.5291                 1.1080                 2.0077
 Frc consts  --      0.8758                 0.4391                 0.8327
 IR Inten    --     27.4993                 0.3495                 3.4231

                     16                     17                     18
                      A                      A                      A
 Frequencies --    861.1562               903.8900               911.4042
 Red. masses --      4.7934                 1.6070                 1.7988
 Frc consts  --      2.0944                 0.7736                 0.8804
 IR Inten    --     11.3396                18.6725                11.6612

                     19                     20                     21
                      A                      A                      A
 Frequencies --    966.0227               982.4509              1015.7192
 Red. masses --      1.8350                 1.6541                 1.7702
 Frc consts  --      1.0089                 0.9407                 1.0760
 IR Inten    --      8.3000                21.5188                 7.3221

                     22                     23                     24
                      A                      A                      A
 Frequencies --   1058.1984              1068.9074              1096.9137
 Red. masses --      2.3898                 1.4419                 1.3321
 Frc consts  --      1.5767                 0.9707                 0.9443
 IR Inten    --     10.0562                13.6087                11.8325

                     25                     26                     27
                      A                      A                      A
 Frequencies --   1118.2159              1141.4767              1162.9475
 Red. masses --      2.1373                 2.0561                 2.7107
 Frc consts  --      1.5746                 1.5784                 2.1600
 IR Inten    --     54.0789                18.6946                84.7071

                     28                     29                     30
                      A                      A                      A
 Frequencies --   1179.0635              1191.0651              1217.9620
 Red. masses --      2.3103                 1.9863                 1.9150
 Frc consts  --      1.8923                 1.6602                 1.6738
 IR Inten    --     70.2072                45.6020                 9.7506

                     31                     32                     33
                      A                      A                      A
 Frequencies --   1289.5643              1295.4282              1331.0801
 Red. masses --      1.7618                 1.1147                 2.2552
 Frc consts  --      1.7262                 1.1021                 2.3542
 IR Inten    --      4.9657                 2.0357                10.3956

                     34                     35                     36
                      A                      A                      A
 Frequencies --   1351.9077              1402.2626              1435.8309
 Red. masses --      1.2961                 1.2387                 1.4407
 Frc consts  --      1.3957                 1.4351                 1.7500
 IR Inten    --     52.9080                 1.0862                11.8516

                     37                     38                     39
                      A                      A                      A
 Frequencies --   1482.8332              1491.1416              1499.2923
 Red. masses --      1.0402                 1.1756                 1.0465
 Frc consts  --      1.3476                 1.5401                 1.3860
 IR Inten    --      4.4290                 3.9049                 1.9175

                     40                     41                     42
                      A                      A                      A
 Frequencies --   1526.1441              1889.6365              2965.2414
 Red. masses --      1.0891                12.4202                 1.0573
 Frc consts  --      1.4945                26.1298                 5.4773
 IR Inten    --      2.3560               321.2873                35.4682

                     43                     44                     45
                      A                      A                      A
 Frequencies --   2977.7081              2996.1739              3046.2772
 Red. masses --      1.0806                 1.1048                 1.0347
 Frc consts  --      5.6452                 5.8434                 5.6572
 IR Inten    --     53.9954                38.6363                16.3752

                     46                     47                     48
                      A                      A                      A
 Frequencies --   3120.3469              3124.7095              3133.7431
 Red. masses --      1.1016                 1.1027                 1.0536
 Frc consts  --      6.3193                 6.3434                 6.0963
 IR Inten    --     23.7949                21.7580                12.2197

                     49                     50                     51
                      A                      A                      A
 Frequencies --   3200.1202              3206.9707              3221.9675
 Red. masses --      1.0905                 1.1012                 1.1133
 Frc consts  --      6.5797                 6.6730                 6.8091
 IR Inten    --      7.9639                 2.9539                 4.8361

 - Thermochemistry -
 -------------------
 Temperature   298.150 Kelvin.  Pressure   1.00000 Atm.
 Atom     1 has atomic number  6 and mass  12.00000

 Molecular mass:   126.06808 amu.
 Principal axes and moments of inertia in atomic units:
                           1         2         3
     Eigenvalues --   600.785531674.971102024.57752
           X            0.99961   0.02770  -0.00300
           Y           -0.02764   0.99946   0.01766
           Z            0.00348  -0.01757   0.99984
 This molecule is an asymmetric top.
 Rotational symmetry number  1.
 Warning -- assumption of classical behavior for rotation
           may cause significant error
 Rotational temperatures (Kelvin)      0.14417     0.05171     0.04278
 Rotational constants (GHZ):           3.00397     1.07748     0.89142
 Zero-point vibrational energy     414188.1 (Joules/Mol)
                                   98.99332 (Kcal/Mol)
 Warning -- explicit consideration of  10 degrees of freedom as
           vibrations may cause significant error
 Vibrational temperatures:     82.15   108.43   181.49   197.58   337.37
          (Kelvin)            398.79   406.30   526.67   729.45   818.26
                              896.13  1011.04  1103.03  1179.97  1207.14
                             1239.01  1300.49  1311.31  1389.89  1413.53
                             1461.39  1522.51  1537.92  1578.21  1608.86
                             1642.33  1673.22  1696.41  1713.67  1752.37
                             1855.39  1863.83  1915.12  1945.09  2017.54
                             2065.84  2133.46  2145.42  2157.14  2195.78
                             2718.76  4266.32  4284.25  4310.82  4382.91
                             4489.48  4495.75  4508.75  4604.25  4614.11
                             4635.69

 Zero-point correction=                           0.157756 (Hartree/Particle)
 Thermal correction to Energy=                    0.166731
 Thermal correction to Enthalpy=                  0.167675
 Thermal correction to Gibbs Free Energy=         0.123106
 Sum of electronic and zero-point Energies=           -423.007460
 Sum of electronic and thermal Energies=              -422.998485
 Sum of electronic and thermal Enthalpies=            -422.997541
 Sum of electronic and thermal Free Energies=         -423.042110

                     E (Thermal)             CV                S
                      KCal/Mol        Cal/Mol-Kelvin    Cal/Mol-Kelvin
 Total                  104.625             32.613             93.804
 Electronic               0.000              0.000              0.000
 Translational            0.889              2.981             40.409
 Rotational               0.889              2.981             29.101
 Vibrational            102.848             26.651             24.294
 Vibration     1          0.596              1.975              4.555
 Vibration     2          0.599              1.965              4.008
 Vibration     3          0.611              1.927              3.004
 Vibration     4          0.614              1.916              2.841
 Vibration     5          0.654              1.788              1.844
 Vibration     6          0.678              1.716              1.551
 Vibration     7          0.681              1.706              1.519
 Vibration     8          0.739              1.542              1.096
 Vibration     9          0.862              1.235              0.641
 Vibration    10          0.925              1.099              0.507

 Normal termination of Gaussian 09 at Tue Jan 28 14:57:33 2020.
