 Gaussian 09, Revision D.01,
 Gaussian 09:  ES64L-G09RevD.01 24-Apr-2013

 -----------------------------
 # b3lyp 6-31G(2df,p) opt Freq
 -----------------------------

 -----
 titel
 -----
 Symbolic Z-matrix:
 Charge =  0 Multiplicity = 1

 SCF Done:  E(RB3LYP) =  -423.112364593     A.U. after   14 cycles
 Optimization completed.
    -- Stationary point found.
 Normal termination of Gaussian 09 at Tue Jan 28 13:49:16 2020.

 ----------------------------------------------------------------------
 #N Geom=AllCheck Guess=TCheck SCRF=Check GenChk RB3LYP/6-31G(2df,p) Fr
 eq
 ----------------------------------------------------------------------

 Structure from the checkpoint file:  "/scratch/puck/g09_9b415545-4a25-4a8d-a2d1-5d2c63cc22ad/Gau-15117.chk"
 -----
 titel
 -----
 Charge =  0 Multiplicity = 1

                         Standard orientation:
 ---------------------------------------------------------------------
 Center     Atomic      Atomic             Coordinates (Angstroms)
 Number     Number       Type             X           Y           Z
 ---------------------------------------------------------------------
      1          8           0        2.800423   -0.916826   -0.004876
      2          6           0        2.214446    0.375879    0.054382
      3          6           0        0.759351    0.213130    0.449391
      4          6           0       -0.093384    1.518323    0.323452
      5          6           0       -0.969346    0.844151   -0.773026
      6          6           0       -2.201559    0.041122   -0.284267
      7          8           0       -1.893789   -0.508747    1.001683
      8          6           0       -1.401285   -1.191506   -0.159417
      9          6           0       -0.122615   -0.465168   -0.641188
     10          1           0        3.717576   -0.820851   -0.277264
     11          1           0        2.725992    1.016971    0.791145
     12          1           0        2.280070    0.885726   -0.922076
     13          1           0        0.698328   -0.270573    1.426442
     14          1           0       -0.627156    1.813049    1.228030
     15          1           0        0.476521    2.375261   -0.048471
     16          1           0       -1.097139    1.348433   -1.730793
     17          1           0       -3.251468    0.197935   -0.507247
     18          1           0       -1.670479   -2.237596   -0.256164
     19          1           0        0.381029   -0.919361   -1.494020
 ---------------------------------------------------------------------

 SCF Done:  E(RB3LYP) =  -423.112364593     A.U. after    1 cycles

 The electronic state is 1-A.
 Alpha  occ. eigenvalues --  -19.14854 -19.13214 -10.23280 -10.23209 -10.22379
 Alpha  occ. eigenvalues --  -10.18680 -10.18289 -10.17914 -10.17721  -1.07385
 Alpha  occ. eigenvalues --   -1.01266  -0.84635  -0.73826  -0.68859  -0.65161
 Alpha  occ. eigenvalues --   -0.59773  -0.57442  -0.52788  -0.51778  -0.50337
 Alpha  occ. eigenvalues --   -0.47767  -0.45366  -0.42833  -0.40008  -0.39646
 Alpha  occ. eigenvalues --   -0.37344  -0.36733  -0.33577  -0.31408  -0.31076
 Alpha  occ. eigenvalues --   -0.29583  -0.26592  -0.25949  -0.24908
 Alpha virt. eigenvalues --    0.07060   0.08267   0.09309   0.09712   0.12578
 Alpha virt. eigenvalues --    0.14690   0.14857   0.15401   0.16328   0.16535
 Alpha virt. eigenvalues --    0.16991   0.18074   0.20254   0.21144   0.22399

 Mulliken charges:
               1
     1  O   -0.423893
     2  C   -0.107711
     3  C    0.042066
     4  C   -0.273305
     5  C   -0.060501
     6  C    0.012688
     7  O   -0.234917
     8  C    0.010226
     9  C   -0.055879
    10  H    0.286345
    11  H    0.085718
    12  H    0.076993
    13  H    0.089922
    14  H    0.112340
    15  H    0.092097
    16  H    0.071077
    17  H    0.099677
    18  H    0.100905
    19  H    0.076153
 Sum of Mulliken charges =   0.00000

 Dipole moment (field-independent basis, Debye):
    X=              1.0155    Y=              0.9958    Z=             -1.9393  Tot=              2.4049
 Quadrupole moment (field-independent basis, Debye-Ang):
   XX=            -46.0103   YY=            -52.8218   ZZ=            -54.3684
   XY=              1.6603   XZ=              1.6482   YZ=              1.0766

  Exact polarizability:  86.706   0.281  73.989   0.570   0.160  62.664
 Approx polarizability: 111.670  -3.397 111.776  -1.867  -1.607 101.949

                      1                      2                      3
                      A                      A                      A
 Frequencies --     90.2652               118.1086               198.9771
 Red. masses --      4.4533                 3.9787                 2.3135
 Frc consts  --      0.0214                 0.0327                 0.0540
 IR Inten    --      0.5623                 4.3486                15.6347

                      4                      5                      6
                      A                      A                      A
 Frequencies --    264.2662               274.4700               305.0027
 Red. masses --      1.2032                 3.8302                 2.8189
 Frc consts  --      0.0495                 0.1700                 0.1545
 IR Inten    --     82.9130                 3.5996                 8.1384

                      7                      8                      9
                      A                      A                      A
 Frequencies --    442.0982               471.1218               593.2261
 Red. masses --      2.8834                 2.7616                 4.4731
 Frc consts  --      0.3320                 0.3611                 0.9275
 IR Inten    --      4.3774                 8.0517                 5.8455

                     10                     11                     12
                      A                      A                      A
 Frequencies --    696.7338               750.7217               796.5952
 Red. masses --      3.6665                 3.6410                 2.5017
 Frc consts  --      1.0487                 1.2090                 0.9353
 IR Inten    --      2.5702                 0.7932                 3.2778

                     13                     14                     15
                      A                      A                      A
 Frequencies --    826.1392               839.1317               874.4654
 Red. masses --      2.1757                 2.1034                 1.7172
 Frc consts  --      0.8749                 0.8726                 0.7737
 IR Inten    --      7.8407                 4.1864                15.8753

                     16                     17                     18
                      A                      A                      A
 Frequencies --    889.5260               903.1625               944.2377
 Red. masses --      1.9172                 3.0044                 2.0421
 Frc consts  --      0.8938                 1.4439                 1.0727
 IR Inten    --      6.0132                10.7988                 1.1927

                     19                     20                     21
                      A                      A                      A
 Frequencies --    971.1138              1005.3276              1016.1044
 Red. masses --      1.9769                 2.7836                 2.2686
 Frc consts  --      1.0985                 1.6575                 1.3800
 IR Inten    --      4.8924                 3.3496                17.6229

                     22                     23                     24
                      A                      A                      A
 Frequencies --   1045.3422              1068.3686              1076.1268
 Red. masses --      1.3519                 1.7215                 3.6984
 Frc consts  --      0.8704                 1.1577                 2.5234
 IR Inten    --      8.1988                12.1945                37.8832

                     25                     26                     27
                      A                      A                      A
 Frequencies --   1099.7226              1122.0205              1154.4765
 Red. masses --      2.3086                 2.0236                 1.4220
 Frc consts  --      1.6450                 1.5010                 1.1166
 IR Inten    --     24.2463                 6.8048                 7.4168

                     28                     29                     30
                      A                      A                      A
 Frequencies --   1193.7145              1214.2486              1229.3356
 Red. masses --      1.3642                 1.3574                 1.3234
 Frc consts  --      1.1453                 1.1791                 1.1784
 IR Inten    --      1.4178                 0.7977                 9.5754

                     31                     32                     33
                      A                      A                      A
 Frequencies --   1244.7010              1258.7933              1266.7044
 Red. masses --      1.2537                 1.4134                 1.4611
 Frc consts  --      1.1444                 1.3196                 1.3813
 IR Inten    --      9.4381                14.3806                 5.2154

                     34                     35                     36
                      A                      A                      A
 Frequencies --   1280.2833              1283.5724              1306.1279
 Red. masses --      1.5141                 1.4053                 1.4534
 Frc consts  --      1.4623                 1.3642                 1.4609
 IR Inten    --      8.3621                27.7500                 0.6572

                     37                     38                     39
                      A                      A                      A
 Frequencies --   1347.5532              1385.0479              1457.2612
 Red. masses --      1.6613                 2.6863                 1.4973
 Frc consts  --      1.7774                 3.0363                 1.8734
 IR Inten    --      6.7632                 7.7478                11.9875

                     40                     41                     42
                      A                      A                      A
 Frequencies --   1470.2516              1519.9645              2950.9093
 Red. masses --      1.1197                 1.0821                 1.0565
 Frc consts  --      1.4260                 1.4729                 5.4205
 IR Inten    --      2.4089                 3.6565                54.1605

                     43                     44                     45
                      A                      A                      A
 Frequencies --   2980.7813              3055.6160              3090.8637
 Red. masses --      1.1035                 1.0628                 1.0863
 Frc consts  --      5.7765                 5.8468                 6.1146
 IR Inten    --     62.1238                37.0189                20.0245

                     46                     47                     48
                      A                      A                      A
 Frequencies --   3109.8596              3121.6494              3125.4441
 Red. masses --      1.0882                 1.0913                 1.1000
 Frc consts  --      6.2007                 6.2656                 6.3310
 IR Inten    --     16.9675                 6.9177                36.4215

                     49                     50                     51
                      A                      A                      A
 Frequencies --   3167.5581              3183.1580              3830.3047
 Red. masses --      1.0871                 1.1015                 1.0664
 Frc consts  --      6.4266                 6.5756                 9.2176
 IR Inten    --     23.5732                34.4036                20.2978

 - Thermochemistry -
 -------------------
 Temperature   298.150 Kelvin.  Pressure   1.00000 Atm.
 Atom     1 has atomic number  8 and mass  15.99491

 Molecular mass:   126.06808 amu.
 Principal axes and moments of inertia in atomic units:
                           1         2         3
     Eigenvalues --   495.522971529.093141711.85104
           X            0.99992   0.00969   0.00772
           Y           -0.00990   0.99957   0.02763
           Z           -0.00745  -0.02771   0.99959
 This molecule is an asymmetric top.
 Rotational symmetry number  1.
 Warning -- assumption of classical behavior for rotation
           may cause significant error
 Rotational temperatures (Kelvin)      0.17479     0.05664     0.05060
 Rotational constants (GHZ):           3.64209     1.18027     1.05426
 Zero-point vibrational energy     418158.0 (Joules/Mol)
                                   99.94216 (Kcal/Mol)
 Warning -- explicit consideration of   9 degrees of freedom as
           vibrations may cause significant error
 Vibrational temperatures:    129.87   169.93   286.28   380.22   394.90
          (Kelvin)            438.83   636.08   677.84   853.52  1002.44
                             1080.12  1146.12  1188.63  1207.32  1258.16
                             1279.83  1299.45  1358.55  1397.21  1446.44
                             1461.95  1504.01  1537.14  1548.30  1582.25
                             1614.34  1661.03  1717.49  1747.03  1768.74
                             1790.84  1811.12  1822.50  1842.04  1846.77
                             1879.22  1938.83  1992.77  2096.67  2115.36
                             2186.89  4245.70  4288.67  4396.34  4447.06
                             4474.39  4491.35  4496.81  4557.40  4579.85
                             5510.95

 Zero-point correction=                           0.159268 (Hartree/Particle)
 Thermal correction to Energy=                    0.167195
 Thermal correction to Enthalpy=                  0.168139
 Thermal correction to Gibbs Free Energy=         0.126641
 Sum of electronic and zero-point Energies=           -422.953097
 Sum of electronic and thermal Energies=              -422.945170
 Sum of electronic and thermal Enthalpies=            -422.944226
 Sum of electronic and thermal Free Energies=         -422.985723

                     E (Thermal)             CV                S
                      KCal/Mol        Cal/Mol-Kelvin    Cal/Mol-Kelvin
 Total                  104.916             30.868             87.339
 Electronic               0.000              0.000              0.000
 Translational            0.889              2.981             40.409
 Rotational               0.889              2.981             28.652
 Vibrational            103.139             24.907             18.278
 Vibration     1          0.602              1.956              3.654
 Vibration     2          0.608              1.934              3.131
 Vibration     3          0.637              1.841              2.143
 Vibration     4          0.671              1.738              1.633
 Vibration     5          0.677              1.721              1.568
 Vibration     6          0.696              1.664              1.389
 Vibration     7          0.802              1.378              0.820
 Vibration     8          0.828              1.314              0.734
 Vibration     9          0.951              1.046              0.461

 Optimization completed.
    -- Stationary point found.
 Normal termination of Gaussian 09 at Tue Jan 28 15:20:10 2020.
