 Gaussian 09, Revision D.01,
 Gaussian 09:  ES64L-G09RevD.01 24-Apr-2013

 -----------------------------
 # b3lyp 6-31G(2df,p) opt Freq
 -----------------------------

 -----
 titel
 -----
 Symbolic Z-matrix:
 Charge =  0 Multiplicity = 1

 SCF Done:  E(RB3LYP) =  -423.201456257     A.U. after   14 cycles
 Optimization completed.
    -- Stationary point found.
 Normal termination of Gaussian 09 at Mon Jan 27 16:18:21 2020.

 ----------------------------------------------------------------------
 #N Geom=AllCheck Guess=TCheck SCRF=Check GenChk RB3LYP/6-31G(2df,p) Fr
 eq
 ----------------------------------------------------------------------

 Structure from the checkpoint file:  "/scratch/puck/g09_901fba80-1857-49a3-b709-dce65cb6c6e4/Gau-76178.chk"
 -----
 titel
 -----
 Charge =  0 Multiplicity = 1

                         Standard orientation:
 ---------------------------------------------------------------------
 Center     Atomic      Atomic             Coordinates (Angstroms)
 Number     Number       Type             X           Y           Z
 ---------------------------------------------------------------------
      1          6           0        1.094100   -0.696517    1.470842
      2          6           0        0.780935   -0.355354   -0.001429
      3          6           0        2.082804   -0.270408   -0.809204
      4          6           0       -0.247228   -1.344677   -0.626898
      5          6           0       -1.592656   -0.642494   -0.567554
      6          8           0       -1.919482   -0.166067    0.734950
      7          6           0       -1.416528    0.782016   -0.230037
      8          6           0        0.060952    1.016078   -0.047479
      9          8           0        0.600146    2.092785   -0.002899
     10          1           0        0.178635   -0.777131    2.060336
     11          1           0        1.630340   -1.650218    1.527576
     12          1           0        1.728192    0.077076    1.914505
     13          1           0        1.888928   -0.042387   -1.862357
     14          1           0        2.722627    0.520518   -0.409440
     15          1           0        2.625957   -1.219761   -0.760781
     16          1           0        0.001799   -1.552003   -1.673725
     17          1           0       -0.276576   -2.304651   -0.101671
     18          1           0       -2.434388   -0.984601   -1.164440
     19          1           0       -2.085103    1.587549   -0.515860
 ---------------------------------------------------------------------

 SCF Done:  E(RB3LYP) =  -423.201456257     A.U. after    1 cycles

 The electronic state is 1-A.
 Alpha  occ. eigenvalues --  -19.17172 -19.13884 -10.27002 -10.25467 -10.24676
 Alpha  occ. eigenvalues --  -10.20757 -10.19824 -10.18010 -10.17932  -1.09277
 Alpha  occ. eigenvalues --   -1.04645  -0.83318  -0.74036  -0.70604  -0.69072
 Alpha  occ. eigenvalues --   -0.63437  -0.58901  -0.53252  -0.51390  -0.46930
 Alpha  occ. eigenvalues --   -0.45463  -0.45047  -0.43599  -0.42534  -0.40044
 Alpha  occ. eigenvalues --   -0.39632  -0.37897  -0.37058  -0.36326  -0.34790
 Alpha  occ. eigenvalues --   -0.33596  -0.31274  -0.29385  -0.23921
 Alpha virt. eigenvalues --   -0.03084   0.08721   0.09670   0.10956   0.12956
 Alpha virt. eigenvalues --    0.13831   0.14165   0.14323   0.15718   0.16237
 Alpha virt. eigenvalues --    0.17009   0.18620   0.18866   0.20322   0.20655

 Mulliken charges:
               1
     1  C   -0.429241
     2  C    0.165472
     3  C   -0.424581
     4  C   -0.295410
     5  C    0.048892
     6  O   -0.242623
     7  C   -0.088759
     8  C    0.409435
     9  O   -0.335142
    10  H    0.140380
    11  H    0.113063
    12  H    0.129399
    13  H    0.113139
    14  H    0.137631
    15  H    0.112295
    16  H    0.108580
    17  H    0.115800
    18  H    0.106889
    19  H    0.114782
 Sum of Mulliken charges =   0.00000

 Dipole moment (field-independent basis, Debye):
    X=             -0.3804    Y=             -2.3024    Z=             -1.5831  Tot=              2.8199
 Quadrupole moment (field-independent basis, Debye-Ang):
   XX=            -53.0969   YY=            -57.0477   ZZ=            -52.6956
   XY=             -2.9243   XZ=              3.6861   YZ=              0.4821

  Exact polarizability:  79.918   0.997  78.285   2.327   0.950  64.932
 Approx polarizability: 109.285   8.505 126.120  -0.484   0.990  99.691

                      1                      2                      3
                      A                      A                      A
 Frequencies --     87.6670               199.8448               219.6781
 Red. masses --      4.0512                 3.8924                 1.1568
 Frc consts  --      0.0183                 0.0916                 0.0329
 IR Inten    --      2.3618                 4.4725                 0.6272

                      4                      5                      6
                      A                      A                      A
 Frequencies --    223.8083               255.7470               299.2542
 Red. masses --      2.4017                 1.1725                 2.5924
 Frc consts  --      0.0709                 0.0452                 0.1368
 IR Inten    --      0.4138                 1.7380                 4.3368

                      7                      8                      9
                      A                      A                      A
 Frequencies --    336.2267               366.5369               394.9967
 Red. masses --      2.8258                 3.6840                 1.8839
 Frc consts  --      0.1882                 0.2916                 0.1732
 IR Inten    --      1.2142                 7.0155                 1.9900

                     10                     11                     12
                      A                      A                      A
 Frequencies --    481.7338               608.1522               622.1771
 Red. masses --      3.9578                 6.1044                 4.3886
 Frc consts  --      0.5412                 1.3302                 1.0009
 IR Inten    --      4.3364                 3.8686                 1.8092

                     13                     14                     15
                      A                      A                      A
 Frequencies --    702.8041               784.7278               814.9090
 Red. masses --      4.1893                 6.0971                 3.6953
 Frc consts  --      1.2192                 2.2121                 1.4458
 IR Inten    --      4.4044                 6.2240                 9.3703

                     16                     17                     18
                      A                      A                      A
 Frequencies --    856.4025               877.4441               916.8501
 Red. masses --      2.9927                 2.2284                 2.1008
 Frc consts  --      1.2932                 1.0109                 1.0405
 IR Inten    --     27.3038                 2.1102                 2.7829

                     19                     20                     21
                      A                      A                      A
 Frequencies --    944.6568               966.8667               996.8826
 Red. masses --      2.2781                 1.4632                 1.8362
 Frc consts  --      1.1978                 0.8059                 1.0751
 IR Inten    --      5.4190                 4.4308                 5.8226

                     22                     23                     24
                      A                      A                      A
 Frequencies --   1017.6754              1035.1971              1096.5299
 Red. masses --      1.4885                 1.3881                 1.4251
 Frc consts  --      0.9083                 0.8765                 1.0096
 IR Inten    --     11.0140                 1.0190                 4.0237

                     25                     26                     27
                      A                      A                      A
 Frequencies --   1137.1511              1161.3972              1219.6874
 Red. masses --      2.2855                 1.7955                 2.8191
 Frc consts  --      1.7413                 1.4270                 2.4709
 IR Inten    --     18.9227                 7.0974                15.0977

                     28                     29                     30
                      A                      A                      A
 Frequencies --   1232.1206              1239.4230              1266.7611
 Red. masses --      2.1921                 1.4601                 1.6616
 Frc consts  --      1.9608                 1.3215                 1.5710
 IR Inten    --      2.6322                 4.2245                 3.8180

                     31                     32                     33
                      A                      A                      A
 Frequencies --   1314.9155              1332.3185              1390.6969
 Red. masses --      1.5699                 2.0231                 1.2350
 Frc consts  --      1.5993                 2.1158                 1.4073
 IR Inten    --      3.9314                 3.1180                 6.1119

                     34                     35                     36
                      A                      A                      A
 Frequencies --   1403.7616              1422.8971              1477.6948
 Red. masses --      1.8185                 1.6185                 1.0713
 Frc consts  --      2.1114                 1.9307                 1.3782
 IR Inten    --      8.5527                 9.4309                 2.5287

                     37                     38                     39
                      A                      A                      A
 Frequencies --   1486.6695              1490.3232              1499.4695
 Red. masses --      1.0654                 1.0510                 1.0564
 Frc consts  --      1.3874                 1.3754                 1.3995
 IR Inten    --      2.9433                 2.0105                 4.7725

                     40                     41                     42
                      A                      A                      A
 Frequencies --   1515.6429              1837.0884              3032.9967
 Red. masses --      1.0541                12.2848                 1.0356
 Frc consts  --      1.4266                24.4275                 5.6127
 IR Inten    --      6.3494               181.0377                18.4943

                     43                     44                     45
                      A                      A                      A
 Frequencies --   3035.5560              3043.9740              3085.4017
 Red. masses --      1.0390                 1.0573                 1.1039
 Frc consts  --      5.6406                 5.7719                 6.1916
 IR Inten    --     18.2562                28.7493                11.8547

                     46                     47                     48
                      A                      A                      A
 Frequencies --   3101.1833              3104.3774              3122.6507
 Red. masses --      1.1018                 1.1005                 1.1007
 Frc consts  --      6.2433                 6.2489                 6.3238
 IR Inten    --     20.8675                21.5160                14.2520

                     49                     50                     51
                      A                      A                      A
 Frequencies --   3133.7785              3149.1452              3178.8791
 Red. masses --      1.1013                 1.0897                 1.0944
 Frc consts  --      6.3724                 6.3673                 6.5162
 IR Inten    --     11.3552                21.8760                15.8712

 - Thermochemistry -
 -------------------
 Temperature   298.150 Kelvin.  Pressure   1.00000 Atm.
 Atom     1 has atomic number  6 and mass  12.00000

 Molecular mass:   126.06808 amu.
 Principal axes and moments of inertia in atomic units:
                           1         2         3
     Eigenvalues --   755.524081066.500571317.35615
           X            0.99805  -0.05851   0.02164
           Y            0.05855   0.99828  -0.00118
           Z           -0.02154   0.00244   0.99977
 This molecule is an asymmetric top.
 Rotational symmetry number  1.
 Warning -- assumption of classical behavior for rotation
           may cause significant error
 Rotational temperatures (Kelvin)      0.11464     0.08121     0.06575
 Rotational constants (GHZ):           2.38873     1.69221     1.36997
 Zero-point vibrational energy     415838.3 (Joules/Mol)
                                   99.38773 (Kcal/Mol)
 Warning -- explicit consideration of  11 degrees of freedom as
           vibrations may cause significant error
 Vibrational temperatures:    126.13   287.53   316.07   322.01   367.96
          (Kelvin)            430.56   483.75   527.36   568.31   693.11
                              874.99   895.17  1011.18  1129.05  1172.47
                             1232.17  1262.44  1319.14  1359.15  1391.10
                             1434.29  1464.21  1489.42  1577.66  1636.10
                             1670.99  1754.86  1772.74  1783.25  1822.58
                             1891.87  1916.91  2000.90  2019.70  2047.23
                             2126.07  2138.98  2144.24  2157.40  2180.67
                             2643.16  4363.80  4367.48  4379.59  4439.20
                             4461.91  4466.50  4492.79  4508.80  4530.91
                             4573.69

 Zero-point correction=                           0.158384 (Hartree/Particle)
 Thermal correction to Energy=                    0.166892
 Thermal correction to Enthalpy=                  0.167836
 Thermal correction to Gibbs Free Energy=         0.125695
 Sum of electronic and zero-point Energies=           -423.043072
 Sum of electronic and thermal Energies=              -423.034564
 Sum of electronic and thermal Enthalpies=            -423.033620
 Sum of electronic and thermal Free Energies=         -423.075762

                     E (Thermal)             CV                S
                      KCal/Mol        Cal/Mol-Kelvin    Cal/Mol-Kelvin
 Total                  104.726             32.832             88.695
 Electronic               0.000              0.000              0.000
 Translational            0.889              2.981             40.409
 Rotational               0.889              2.981             28.453
 Vibrational            102.949             26.870             19.833
 Vibration     1          0.601              1.958              3.711
 Vibration     2          0.638              1.840              2.135
 Vibration     3          0.647              1.811              1.962
 Vibration     4          0.649              1.805              1.928
 Vibration     5          0.666              1.753              1.691
 Vibration     6          0.692              1.675              1.421
 Vibration     7          0.717              1.603              1.230
 Vibration     8          0.739              1.541              1.094
 Vibration     9          0.762              1.481              0.981
 Vibration    10          0.838              1.291              0.705
 Vibration    11          0.967              1.015              0.436

 Optimization completed.
    -- Stationary point found.
 Normal termination of Gaussian 09 at Mon Jan 27 17:11:17 2020.
