 Gaussian 09, Revision D.01,
 Gaussian 09:  ES64L-G09RevD.01 24-Apr-2013

 -----------------------------
 # b3lyp 6-31G(2df,p) opt Freq
 -----------------------------

 -----
 titel
 -----
 Symbolic Z-matrix:
 Charge =  0 Multiplicity = 1

 SCF Done:  E(RB3LYP) =  -423.162230183     A.U. after   13 cycles
 Optimization completed.
    -- Stationary point found.
 Normal termination of Gaussian 09 at Tue Jan 28 03:58:11 2020.

 ----------------------------------------------------------------------
 #N Geom=AllCheck Guess=TCheck SCRF=Check GenChk RB3LYP/6-31G(2df,p) Fr
 eq
 ----------------------------------------------------------------------

 Structure from the checkpoint file:  "/scratch/puck/g09_70d934f6-49bd-4068-8e7f-594137660f30/Gau-95033.chk"
 -----
 titel
 -----
 Charge =  0 Multiplicity = 1

                         Standard orientation:
 ---------------------------------------------------------------------
 Center     Atomic      Atomic             Coordinates (Angstroms)
 Number     Number       Type             X           Y           Z
 ---------------------------------------------------------------------
      1          6           0       -2.614316    0.722408    0.599164
      2          6           0       -1.734588    0.037503   -0.425798
      3          8           0       -1.288302   -1.299422   -0.010726
      4          6           0        0.072031   -1.018111   -0.436798
      5          6           0        1.227040   -1.153718    0.551662
      6          8           0        2.258963   -0.304715    0.053461
      7          6           0        1.972741    1.088394    0.068632
      8          6           0        0.534959    1.429387   -0.244553
      9          6           0       -0.281165    0.433158   -0.547727
     10          1           0       -2.884432    1.726505    0.254861
     11          1           0       -3.537894    0.153765    0.745096
     12          1           0       -2.096705    0.805030    1.558224
     13          1           0       -2.257435   -0.037464   -1.391271
     14          1           0        0.303507   -1.540376   -1.374520
     15          1           0        0.891532   -0.858362    1.556590
     16          1           0        1.661653   -2.155340    0.598360
     17          1           0        2.213577    1.512744    1.059908
     18          1           0        2.671353    1.538353   -0.647059
     19          1           0        0.209341    2.454119   -0.089560
 ---------------------------------------------------------------------

 SCF Done:  E(RB3LYP) =  -423.162230183     A.U. after    1 cycles

 The electronic state is 1-A.
 Alpha  occ. eigenvalues --  -19.14472 -19.13514 -10.24279 -10.23772 -10.22899
 Alpha  occ. eigenvalues --  -10.22863 -10.18948 -10.18851 -10.18167  -1.04250
 Alpha  occ. eigenvalues --   -1.02824  -0.79589  -0.76184  -0.74822  -0.66159
 Alpha  occ. eigenvalues --   -0.62921  -0.59607  -0.53390  -0.50282  -0.48744
 Alpha  occ. eigenvalues --   -0.47057  -0.45480  -0.43722  -0.42877  -0.40791
 Alpha  occ. eigenvalues --   -0.39051  -0.38359  -0.37232  -0.34505  -0.32038
 Alpha  occ. eigenvalues --   -0.29951  -0.27309  -0.25293  -0.23990
 Alpha virt. eigenvalues --    0.01094   0.07778   0.10172   0.10933   0.12664
 Alpha virt. eigenvalues --    0.13219   0.14046   0.14882   0.16181   0.16959
 Alpha virt. eigenvalues --    0.17110   0.17483   0.18316   0.20299   0.21363

 Mulliken charges:
               1
     1  C   -0.399599
     2  C    0.079339
     3  O   -0.329874
     4  C    0.087679
     5  C   -0.124356
     6  O   -0.256673
     7  C   -0.092650
     8  C   -0.248001
     9  C    0.208770
    10  H    0.120241
    11  H    0.130767
    12  H    0.123282
    13  H    0.083647
    14  H    0.086242
    15  H    0.097069
    16  H    0.110568
    17  H    0.102874
    18  H    0.122997
    19  H    0.097679
 Sum of Mulliken charges =   0.00000

 Dipole moment (field-independent basis, Debye):
    X=             -0.4668    Y=              1.7987    Z=              0.0717  Tot=              1.8597
 Quadrupole moment (field-independent basis, Debye-Ang):
   XX=            -54.9250   YY=            -51.8072   ZZ=            -52.7729
   XY=             -1.3295   XZ=              1.2529   YZ=              0.6702

  Exact polarizability:  92.103   3.860  81.003   2.330   2.451  61.023
 Approx polarizability: 124.283  12.345 125.224   4.363   4.755  93.988

                      1                      2                      3
                      A                      A                      A
 Frequencies --    109.0809               151.4521               204.3874
 Red. masses --      3.5430                 2.7177                 1.0949
 Frc consts  --      0.0248                 0.0367                 0.0269
 IR Inten    --      0.3764                 0.3622                 0.5192

                      4                      5                      6
                      A                      A                      A
 Frequencies --    264.4386               267.7032               354.9719
 Red. masses --      2.6237                 2.4242                 3.1157
 Frc consts  --      0.1081                 0.1024                 0.2313
 IR Inten    --     11.2129                 1.0416                 1.9171

                      7                      8                      9
                      A                      A                      A
 Frequencies --    412.5068               440.9848               480.5233
 Red. masses --      2.8160                 4.4860                 4.4268
 Frc consts  --      0.2823                 0.5140                 0.6022
 IR Inten    --      5.3711                 0.7997                 0.7029

                     10                     11                     12
                      A                      A                      A
 Frequencies --    557.9065               672.0477               765.0248
 Red. masses --      4.0639                 3.1986                 2.8540
 Frc consts  --      0.7453                 0.8511                 0.9841
 IR Inten    --      5.0790                 7.9857                 5.9556

                     13                     14                     15
                      A                      A                      A
 Frequencies --    810.8859               831.5446               854.8207
 Red. masses --      2.9648                 1.3616                 3.2235
 Frc consts  --      1.1486                 0.5547                 1.3878
 IR Inten    --      1.5628                11.3005                37.7619

                     16                     17                     18
                      A                      A                      A
 Frequencies --    894.0826               965.2595               979.1917
 Red. masses --      2.9723                 2.3732                 2.7968
 Frc consts  --      1.3999                 1.3028                 1.5800
 IR Inten    --     16.5268                19.9884                 1.4631

                     19                     20                     21
                      A                      A                      A
 Frequencies --   1007.7359              1029.4722              1069.6335
 Red. masses --      3.6387                 1.9457                 1.8975
 Frc consts  --      2.1771                 1.2150                 1.2791
 IR Inten    --     53.7111                39.2867                10.4077

                     22                     23                     24
                      A                      A                      A
 Frequencies --   1073.9018              1092.8999              1124.7833
 Red. masses --      1.8605                 2.1253                 3.9152
 Frc consts  --      1.2642                 1.4956                 2.9184
 IR Inten    --     13.2528                 6.4415                47.6373

                     25                     26                     27
                      A                      A                      A
 Frequencies --   1138.0631              1162.9663              1231.3715
 Red. masses --      2.5068                 2.3686                 1.3115
 Frc consts  --      1.9129                 1.8875                 1.1716
 IR Inten    --     15.7879                 5.2086                22.1084

                     28                     29                     30
                      A                      A                      A
 Frequencies --   1244.2605              1281.4363              1290.7074
 Red. masses --      1.2926                 1.2433                 1.2943
 Frc consts  --      1.1791                 1.2029                 1.2704
 IR Inten    --      0.8809                 2.3635                 7.2846

                     31                     32                     33
                      A                      A                      A
 Frequencies --   1314.3159              1356.5888              1366.1817
 Red. masses --      1.3643                 1.3101                 1.6917
 Frc consts  --      1.3885                 1.4205                 1.8603
 IR Inten    --     10.7267                18.0469                 2.4719

                     34                     35                     36
                      A                      A                      A
 Frequencies --   1394.7543              1399.7475              1407.3506
 Red. masses --      1.3156                 1.3579                 1.5515
 Frc consts  --      1.5079                 1.5675                 1.8105
 IR Inten    --      2.1926                 3.0313                15.2729

                     37                     38                     39
                      A                      A                      A
 Frequencies --   1482.7211              1486.4574              1491.2428
 Red. masses --      1.0564                 1.0822                 1.0487
 Frc consts  --      1.3683                 1.4088                 1.3741
 IR Inten    --      2.1513                 0.5660                 2.9779

                     40                     41                     42
                      A                      A                      A
 Frequencies --   1501.1116              1784.5898              2947.4018
 Red. masses --      1.0907                 8.7953                 1.0723
 Frc consts  --      1.4480                16.5036                 5.4886
 IR Inten    --      3.7213                 3.2108                60.5012

                     43                     44                     45
                      A                      A                      A
 Frequencies --   2985.8916              3001.2025              3017.3015
 Red. masses --      1.0825                 1.0679                 1.0817
 Frc consts  --      5.6861                 5.6675                 5.8024
 IR Inten    --     54.2856                26.3935                65.0590

                     46                     47                     48
                      A                      A                      A
 Frequencies --   3038.7221              3045.8622              3099.7210
 Red. masses --      1.0350                 1.0877                 1.0989
 Frc consts  --      5.6310                 5.9454                 6.2210
 IR Inten    --     14.4265                31.0752                41.0403

                     49                     50                     51
                      A                      A                      A
 Frequencies --   3109.0419              3126.1398              3169.4031
 Red. masses --      1.1005                 1.1026                 1.0917
 Frc consts  --      6.2674                 6.3485                 6.4611
 IR Inten    --     15.2602                21.6593                11.1792

 - Thermochemistry -
 -------------------
 Temperature   298.150 Kelvin.  Pressure   1.00000 Atm.
 Atom     1 has atomic number  6 and mass  12.00000

 Molecular mass:   126.06808 amu.
 Principal axes and moments of inertia in atomic units:
                           1         2         3
     Eigenvalues --   551.184961321.283791672.04333
           X            0.99982  -0.01852  -0.00334
           Y            0.01858   0.99966   0.01836
           Z            0.00300  -0.01842   0.99983
 This molecule is an asymmetric top.
 Rotational symmetry number  1.
 Warning -- assumption of classical behavior for rotation
           may cause significant error
 Rotational temperatures (Kelvin)      0.15714     0.06555     0.05180
 Rotational constants (GHZ):           3.27429     1.36590     1.07936
 Zero-point vibrational energy     420426.3 (Joules/Mol)
                                  100.48430 (Kcal/Mol)
 Warning -- explicit consideration of  10 degrees of freedom as
           vibrations may cause significant error
 Vibrational temperatures:    156.94   217.91   294.07   380.47   385.16
          (Kelvin)            510.72   593.50   634.48   691.36   802.70
                              966.93  1100.70  1166.68  1196.41  1229.89
                             1286.38  1388.79  1408.84  1449.91  1481.18
                             1538.96  1545.10  1572.44  1618.31  1637.42
                             1673.25  1771.67  1790.21  1843.70  1857.04
                             1891.01  1951.83  1965.63  2006.74  2013.92
                             2024.86  2133.30  2138.68  2145.56  2159.76
                             2567.62  4240.65  4296.03  4318.06  4341.22
                             4372.04  4382.31  4459.80  4473.21  4497.81
                             4560.06

 Zero-point correction=                           0.160132 (Hartree/Particle)
 Thermal correction to Energy=                    0.168052
 Thermal correction to Enthalpy=                  0.168996
 Thermal correction to Gibbs Free Energy=         0.127795
 Sum of electronic and zero-point Energies=           -423.002098
 Sum of electronic and thermal Energies=              -422.994179
 Sum of electronic and thermal Enthalpies=            -422.993234
 Sum of electronic and thermal Free Energies=         -423.034435

                     E (Thermal)             CV                S
                      KCal/Mol        Cal/Mol-Kelvin    Cal/Mol-Kelvin
 Total                  105.454             30.691             86.714
 Electronic               0.000              0.000              0.000
 Translational            0.889              2.981             40.409
 Rotational               0.889              2.981             28.589
 Vibrational            103.677             24.730             17.716
 Vibration     1          0.606              1.942              3.285
 Vibration     2          0.619              1.901              2.654
 Vibration     3          0.640              1.834              2.093
 Vibration     4          0.671              1.738              1.632
 Vibration     5          0.673              1.732              1.611
 Vibration     6          0.731              1.565              1.144
 Vibration     7          0.776              1.443              0.918
 Vibration     8          0.801              1.381              0.824
 Vibration     9          0.837              1.293              0.709
 Vibration    10          0.913              1.122              0.528

 Optimization completed.
    -- Stationary point found.
 Normal termination of Gaussian 09 at Tue Jan 28 04:44:24 2020.
