 Gaussian 09, Revision D.01,
 Gaussian 09:  ES64L-G09RevD.01 24-Apr-2013

 -----------------------------
 # b3lyp 6-31G(2df,p) opt Freq
 -----------------------------

 -----
 titel
 -----
 Symbolic Z-matrix:
 Charge =  0 Multiplicity = 1

 SCF Done:  E(RB3LYP) =  -423.207055724     A.U. after   14 cycles
 SCF Done:  E(RB3LYP) =  -423.207056105     A.U. after    7 cycles
 SCF Done:  E(RB3LYP) =  -423.207055998     A.U. after    8 cycles
 SCF Done:  E(RB3LYP) =  -423.207056755     A.U. after    8 cycles
 Optimization completed.
    -- Stationary point found.
 Normal termination of Gaussian 09 at Mon Jan 27 13:18:04 2020.

 ----------------------------------------------------------------------
 #N Geom=AllCheck Guess=TCheck SCRF=Check GenChk RB3LYP/6-31G(2df,p) Fr
 eq
 ----------------------------------------------------------------------

 Structure from the checkpoint file:  "/scratch/puck/g09_13b7b28e-e9dc-4fb6-b80e-e4c589795f4c/Gau-27310.chk"
 -----
 titel
 -----
 Charge =  0 Multiplicity = 1

                         Standard orientation:
 ---------------------------------------------------------------------
 Center     Atomic      Atomic             Coordinates (Angstroms)
 Number     Number       Type             X           Y           Z
 ---------------------------------------------------------------------
      1          8           0        1.696364    2.398942    0.000000
      2          6           0        0.834928    1.550932    0.000000
      3          6           0        0.246691    0.976211   -1.283025
      4          6           0        0.246691   -0.568107   -1.271721
      5          6           0       -0.391958   -1.090833    0.000000
      6          6           0       -1.161261   -2.339440    0.000000
      7          8           0       -1.831731   -1.074668    0.000000
      8          6           0        0.246691   -0.568107    1.271721
      9          6           0        0.246691    0.976211    1.283025
     10          1           0       -0.793980    1.319689   -1.355732
     11          1           0        0.798361    1.378359   -2.135234
     12          1           0       -0.291332   -0.950611   -2.143611
     13          1           0        1.277988   -0.937801   -1.334536
     14          1           0       -1.254987   -2.917331   -0.918864
     15          1           0       -1.254987   -2.917331    0.918864
     16          1           0       -0.291332   -0.950611    2.143611
     17          1           0        1.277988   -0.937801    1.334536
     18          1           0       -0.793980    1.319689    1.355732
     19          1           0        0.798361    1.378359    2.135234
 ---------------------------------------------------------------------

 SCF Done:  E(RB3LYP) =  -423.207056755     A.U. after    1 cycles

 The electronic state is 1-A'.
 Alpha  occ. eigenvalues --  -19.15460 -19.12669 -10.26635 -10.24948 -10.23878
 Alpha  occ. eigenvalues --  -10.20076 -10.20075 -10.19292 -10.19291  -1.07459
 Alpha  occ. eigenvalues --   -1.03670  -0.82883  -0.76503  -0.71794  -0.66146
 Alpha  occ. eigenvalues --   -0.64187  -0.57782  -0.53045  -0.49603  -0.49160
 Alpha  occ. eigenvalues --   -0.46148  -0.45579  -0.43326  -0.43010  -0.40753
 Alpha  occ. eigenvalues --   -0.39582  -0.39047  -0.36555  -0.35910  -0.34725
 Alpha  occ. eigenvalues --   -0.34351  -0.29858  -0.27198  -0.23826
 Alpha virt. eigenvalues --   -0.01452   0.08109   0.09816   0.10217   0.11643
 Alpha virt. eigenvalues --    0.12074   0.13719   0.14989   0.15455   0.16301
 Alpha virt. eigenvalues --    0.16891   0.17612   0.19287   0.19530   0.21179

 Mulliken charges:
               1
     1  O   -0.304964
     2  C    0.387268
     3  C   -0.298612
     4  C   -0.285261
     5  C    0.436614
     6  C   -0.249366
     7  O   -0.282654
     8  C   -0.285261
     9  C   -0.298612
    10  H    0.133048
    11  H    0.119002
    12  H    0.112099
    13  H    0.112404
    14  H    0.113871
    15  H    0.113871
    16  H    0.112099
    17  H    0.112404
    18  H    0.133048
    19  H    0.119002
 Sum of Mulliken charges =   0.00000

 Dipole moment (field-independent basis, Debye):
    X=             -0.4382    Y=             -2.7928    Z=              0.0000  Tot=              2.8270
 Quadrupole moment (field-independent basis, Debye-Ang):
   XX=            -60.6748   YY=            -56.0237   ZZ=            -49.6585
   XY=             -6.4443   XZ=              0.0000   YZ=              0.0000

  Exact polarizability:  68.608  14.707  83.464   0.000   0.000  73.764
 Approx polarizability: 112.332  15.340 116.431   0.000   0.000 101.247

                      1                      2                      3
                     A'                     A"                     A'
 Frequencies --     75.0869               137.9697               147.6230
 Red. masses --      5.9772                 2.4900                 3.9075
 Frc consts  --      0.0199                 0.0279                 0.0502
 IR Inten    --      4.4991                 4.2411                 2.0803

                      4                      5                      6
                     A"                     A'                     A"
 Frequencies --    300.7437               363.1128               380.1781
 Red. masses --      2.6602                 2.4590                 2.5004
 Frc consts  --      0.1418                 0.1910                 0.2129
 IR Inten    --      1.0625                 0.0998                 6.1396

                      7                      8                      9
                     A'                     A"                     A"
 Frequencies --    395.9126               463.4789               496.7779
 Red. masses --      2.0769                 3.9276                 3.1458
 Frc consts  --      0.1918                 0.4971                 0.4574
 IR Inten    --      4.8490                 0.0411                 8.2428

                     10                     11                     12
                     A'                     A'                     A'
 Frequencies --    522.6459               679.9336               706.2143
 Red. masses --      2.8443                 3.9372                 3.8603
 Frc consts  --      0.4578                 1.0724                 1.1343
 IR Inten    --      6.1026                 2.4432                 3.4948

                     13                     14                     15
                     A"                     A'                     A'
 Frequencies --    756.2949               762.6148               847.4675
 Red. masses --      1.5984                 2.7819                 3.1660
 Frc consts  --      0.5387                 0.9532                 1.3397
 IR Inten    --      2.8966                 0.9566                27.1314

                     16                     17                     18
                     A"                     A"                     A'
 Frequencies --    878.9608               941.2352               941.3029
 Red. masses --      1.6194                 1.3784                 3.0359
 Frc consts  --      0.7371                 0.7195                 1.5849
 IR Inten    --      5.1364                 0.1910                16.6131

                     19                     20                     21
                     A"                     A'                     A'
 Frequencies --    984.7358              1006.2911              1007.5156
 Red. masses --      1.7741                 3.1353                 2.7046
 Frc consts  --      1.0136                 1.8706                 1.6176
 IR Inten    --      5.8938                 6.0930                 8.3039

                     22                     23                     24
                     A'                     A"                     A"
 Frequencies --   1102.6328              1103.0919              1134.1227
 Red. masses --      2.2790                 1.1334                 1.2966
 Frc consts  --      1.6325                 0.8125                 0.9826
 IR Inten    --      0.4550                 0.4212                 0.3798

                     25                     26                     27
                     A"                     A'                     A'
 Frequencies --   1149.3974              1164.0616              1219.3205
 Red. masses --      2.3320                 1.3669                 1.3377
 Frc consts  --      1.8152                 1.0913                 1.1718
 IR Inten    --     54.7274                 0.3119                 0.7605

                     28                     29                     30
                     A'                     A"                     A"
 Frequencies --   1236.5756              1239.5924              1285.6149
 Red. masses --      1.3362                 1.8226                 1.6142
 Frc consts  --      1.2038                 1.6500                 1.5719
 IR Inten    --      1.9648                 9.1372                 2.9375

                     31                     32                     33
                     A"                     A'                     A'
 Frequencies --   1330.5021              1334.2007              1346.1730
 Red. masses --      1.5340                 1.4321                 1.4524
 Frc consts  --      1.6000                 1.5020                 1.5508
 IR Inten    --     13.9990                 2.1413                14.0618

                     34                     35                     36
                     A"                     A'                     A"
 Frequencies --   1371.3361              1438.7342              1459.7702
 Red. masses --      1.9773                 2.0514                 1.0910
 Frc consts  --      2.1909                 2.5018                 1.3698
 IR Inten    --      0.7237                 4.6861                 4.6029

                     37                     38                     39
                     A'                     A"                     A'
 Frequencies --   1472.5950              1473.5878              1488.6318
 Red. masses --      1.0830                 1.1015                 1.1173
 Frc consts  --      1.3838                 1.4092                 1.4588
 IR Inten    --      9.4717                 9.7853                 1.7506

                     40                     41                     42
                     A'                     A'                     A"
 Frequencies --   1531.7558              1819.0829              3024.4551
 Red. masses --      1.4111                11.1755                 1.0667
 Frc consts  --      1.9507                21.7882                 5.7490
 IR Inten    --      2.9209               197.7535                 5.5485

                     43                     44                     45
                     A'                     A"                     A'
 Frequencies --   3030.4150              3031.7921              3037.8231
 Red. masses --      1.0672                 1.0623                 1.0619
 Frc consts  --      5.7743                 5.7528                 5.7739
 IR Inten    --      1.1711                 4.4458                42.6194

                     46                     47                     48
                     A'                     A"                     A'
 Frequencies --   3078.5029              3090.0376              3093.0253
 Red. masses --      1.0510                 1.0988                 1.0993
 Frc consts  --      5.8683                 6.1814                 6.1963
 IR Inten    --     29.3879                18.9417                20.5711

                     49                     50                     51
                     A"                     A'                     A"
 Frequencies --   3113.8272              3115.3252              3163.4542
 Red. masses --      1.0969                 1.0979                 1.1192
 Frc consts  --      6.2660                 6.2778                 6.5991
 IR Inten    --     17.1387                14.2667                22.9740

 - Thermochemistry -
 -------------------
 Temperature   298.150 Kelvin.  Pressure   1.00000 Atm.
 Atom     1 has atomic number  8 and mass  15.99491

 Molecular mass:   126.06808 amu.
 Principal axes and moments of inertia in atomic units:
                           1         2         3
     Eigenvalues --   504.183211485.947391737.19146
           X            0.54560   0.00000   0.83804
           Y            0.83804   0.00000  -0.54560
           Z            0.00000   1.00000   0.00000
 This molecule is an asymmetric top.
 Rotational symmetry number  1.
 Warning -- assumption of classical behavior for rotation
           may cause significant error
 Rotational temperatures (Kelvin)      0.17179     0.05829     0.04986
 Rotational constants (GHZ):           3.57953     1.21454     1.03888
 Zero-point vibrational energy     420341.0 (Joules/Mol)
                                  100.46392 (Kcal/Mol)
 Warning -- explicit consideration of  10 degrees of freedom as
           vibrations may cause significant error
 Vibrational temperatures:    108.03   198.51   212.40   432.70   522.44
          (Kelvin)            546.99   569.63   666.84   714.75   751.97
                              978.27  1016.08  1088.14  1097.23  1219.32
                             1264.63  1354.23  1354.32  1416.81  1447.83
                             1449.59  1586.44  1587.10  1631.75  1653.72
                             1674.82  1754.33  1779.15  1783.49  1849.71
                             1914.29  1919.61  1936.84  1973.04  2070.01
                             2100.28  2118.73  2120.16  2141.81  2203.85
                             2617.25  4351.51  4360.09  4362.07  4370.74
                             4429.27  4445.87  4450.17  4480.10  4482.25
                             4551.50

 Zero-point correction=                           0.160099 (Hartree/Particle)
 Thermal correction to Energy=                    0.168102
 Thermal correction to Enthalpy=                  0.169046
 Thermal correction to Gibbs Free Energy=         0.127367
 Sum of electronic and zero-point Energies=           -423.046957
 Sum of electronic and thermal Energies=              -423.038955
 Sum of electronic and thermal Enthalpies=            -423.038011
 Sum of electronic and thermal Free Energies=         -423.079690

                     E (Thermal)             CV                S
                      KCal/Mol        Cal/Mol-Kelvin    Cal/Mol-Kelvin
 Total                  105.485             31.014             87.721
 Electronic               0.000              0.000              0.000
 Translational            0.889              2.981             40.409
 Rotational               0.889              2.981             28.655
 Vibrational            103.708             25.053             18.657
 Vibration     1          0.599              1.966              4.015
 Vibration     2          0.614              1.915              2.832
 Vibration     3          0.617              1.905              2.703
 Vibration     4          0.693              1.672              1.413
 Vibration     5          0.737              1.548              1.109
 Vibration     6          0.750              1.512              1.038
 Vibration     7          0.763              1.479              0.978
 Vibration     8          0.821              1.331              0.756
 Vibration     9          0.852              1.257              0.666
 Vibration    10          0.878              1.200              0.604

 Normal termination of Gaussian 09 at Mon Jan 27 14:16:37 2020.
