 Gaussian 09, Revision D.01,
 Gaussian 09:  ES64L-G09RevD.01 24-Apr-2013

 -----------------------------
 # b3lyp 6-31G(2df,p) opt Freq
 -----------------------------

 -----
 titel
 -----
 Symbolic Z-matrix:
 Charge =  0 Multiplicity = 1

 SCF Done:  E(RB3LYP) =  -423.151942366     A.U. after   15 cycles
 Optimization completed.
    -- Stationary point found.
 Normal termination of Gaussian 09 at Mon Jan 27 15:32:50 2020.

 ----------------------------------------------------------------------
 #N Geom=AllCheck Guess=TCheck SCRF=Check GenChk RB3LYP/6-31G(2df,p) Fr
 eq
 ----------------------------------------------------------------------

 Structure from the checkpoint file:  "/scratch/puck/g09_02350ea2-ae55-45d1-ae57-955d69a47e5d/Gau-108030.chk"
 -----
 titel
 -----
 Charge =  0 Multiplicity = 1

                         Standard orientation:
 ---------------------------------------------------------------------
 Center     Atomic      Atomic             Coordinates (Angstroms)
 Number     Number       Type             X           Y           Z
 ---------------------------------------------------------------------
      1          6           0        3.172170    1.361890    0.016001
      2          6           0        2.444400    0.050825    0.286344
      3          6           0        3.057137   -1.121798   -0.483874
      4          8           0        1.079905    0.275319   -0.078609
      5          6           0        0.175025   -0.679891    0.426305
      6          6           0       -1.192815   -0.257798    0.165390
      7          6           0       -2.341299    0.056131   -0.035263
      8          6           0       -3.693339    0.473321   -0.298226
      9          8           0       -4.679413   -0.136551    0.047183
     10          1           0        2.706869    2.178805    0.573091
     11          1           0        4.222182    1.286890    0.313068
     12          1           0        3.130205    1.605729   -1.050095
     13          1           0        2.485162   -0.168983    1.367055
     14          1           0        2.548814   -2.066872   -0.270942
     15          1           0        3.001798   -0.935946   -1.561141
     16          1           0        4.108693   -1.247219   -0.207654
     17          1           0        0.324869   -1.673447   -0.027324
     18          1           0        0.307306   -0.812052    1.514918
     19          1           0       -3.767512    1.426877   -0.859624
 ---------------------------------------------------------------------

 SCF Done:  E(RB3LYP) =  -423.151942366     A.U. after    1 cycles

 The electronic state is 1-A.
 Alpha  occ. eigenvalues --  -19.15366 -19.14339 -10.28940 -10.26969 -10.24635
 Alpha  occ. eigenvalues --  -10.21412 -10.19792 -10.18559 -10.18166  -1.04929
 Alpha  occ. eigenvalues --   -1.04842  -0.81216  -0.77732  -0.72249  -0.69739
 Alpha  occ. eigenvalues --   -0.64870  -0.59444  -0.52403  -0.51688  -0.49822
 Alpha  occ. eigenvalues --   -0.48510  -0.45095  -0.44540  -0.42029  -0.40373
 Alpha  occ. eigenvalues --   -0.39973  -0.39173  -0.36799  -0.36216  -0.32708
 Alpha  occ. eigenvalues --   -0.29343  -0.29184  -0.26776  -0.26654
 Alpha virt. eigenvalues --   -0.06081   0.01323   0.07749   0.09411   0.10869
 Alpha virt. eigenvalues --    0.12572   0.13385   0.13921   0.15112   0.15816
 Alpha virt. eigenvalues --    0.17781   0.18434   0.18830   0.19838   0.20668

 Mulliken charges:
               1
     1  C   -0.391654
     2  C    0.169650
     3  C   -0.397855
     4  O   -0.256721
     5  C   -0.223897
     6  C    0.057993
     7  C    0.083306
     8  C    0.020476
     9  O   -0.230209
    10  H    0.125806
    11  H    0.116135
    12  H    0.127696
    13  H    0.068323
    14  H    0.117657
    15  H    0.128394
    16  H    0.120776
    17  H    0.132798
    18  H    0.128601
    19  H    0.102725
 Sum of Mulliken charges =   0.00000

 Dipole moment (field-independent basis, Debye):
    X=              4.1188    Y=             -0.0967    Z=              0.1980  Tot=              4.1247
 Quadrupole moment (field-independent basis, Debye-Ang):
   XX=            -65.6139   YY=            -51.8748   ZZ=            -52.2457
   XY=             -5.1823   XZ=              3.3278   YZ=             -0.5084

  Exact polarizability: 129.635  -5.383  68.524   3.848  -3.612  59.507
 Approx polarizability: 180.387  -8.653  97.548   7.157  -7.891  89.729

                      1                      2                      3
                      A                      A                      A
 Frequencies --     32.3321                50.5664                63.8888
 Red. masses --      3.3790                 3.5410                 5.1727
 Frc consts  --      0.0021                 0.0053                 0.0124
 IR Inten    --      0.0161                 6.7314                 1.6625

                      4                      5                      6
                      A                      A                      A
 Frequencies --    109.4210               171.3652               180.3710
 Red. masses --      3.0777                 5.4338                 2.6900
 Frc consts  --      0.0217                 0.0940                 0.0516
 IR Inten    --      6.7091                 4.4049                 7.5897

                      7                      8                      9
                      A                      A                      A
 Frequencies --    206.4576               240.2041               261.7287
 Red. masses --      1.0686                 1.6454                 1.8649
 Frc consts  --      0.0268                 0.0559                 0.0753
 IR Inten    --      0.3641                 0.1126                 0.7731

                     10                     11                     12
                      A                      A                      A
 Frequencies --    344.5980               395.9045               431.5006
 Red. masses --      2.6357                 4.2207                 3.1888
 Frc consts  --      0.1844                 0.3898                 0.3498
 IR Inten    --      0.4931                 0.0098                 2.9549

                     13                     14                     15
                      A                      A                      A
 Frequencies --    447.2539               530.0526               619.0789
 Red. masses --      2.9918                 3.3791                 6.9529
 Frc consts  --      0.3526                 0.5594                 1.5700
 IR Inten    --      0.4056                 1.1740                 5.4453

                     16                     17                     18
                      A                      A                      A
 Frequencies --    821.7855               860.8457               928.1985
 Red. masses --      3.5507                 3.3682                 1.2244
 Frc consts  --      1.4128                 1.4706                 0.6215
 IR Inten    --     45.2891                24.6961                 0.4242

                     19                     20                     21
                      A                      A                      A
 Frequencies --    934.1111               946.7472              1011.6388
 Red. masses --      2.0494                 1.6966                 1.7119
 Frc consts  --      1.0536                 0.8960                 1.0322
 IR Inten    --     11.6541                 5.7548                 0.8673

                     22                     23                     24
                      A                      A                      A
 Frequencies --   1021.7076              1098.8460              1148.0751
 Red. masses --      1.7549                 4.8521                 2.2859
 Frc consts  --      1.0793                 3.4519                 1.7752
 IR Inten    --      0.9141                82.4019                76.6417

                     25                     26                     27
                      A                      A                      A
 Frequencies --   1157.2873              1169.8895              1201.4443
 Red. masses --      3.0293                 2.7516                 1.9612
 Frc consts  --      2.3904                 2.2188                 1.6680
 IR Inten    --     12.9828               218.1237                11.8510

                     28                     29                     30
                      A                      A                      A
 Frequencies --   1250.3939              1356.3470              1367.1552
 Red. masses --      1.0716                 1.2347                 1.3125
 Frc consts  --      0.9871                 1.3383                 1.4454
 IR Inten    --      3.9246                87.1449                26.3359

                     31                     32                     33
                      A                      A                      A
 Frequencies --   1398.8488              1415.2037              1420.9440
 Red. masses --      1.3204                 1.2398                 1.1951
 Frc consts  --      1.5223                 1.4630                 1.4217
 IR Inten    --     12.7400                21.3179                 9.1789

                     34                     35                     36
                      A                      A                      A
 Frequencies --   1423.9124              1480.1600              1482.1055
 Red. masses --      1.4401                 1.0497                 1.0575
 Frc consts  --      1.7203                 1.3550                 1.3686
 IR Inten    --     30.7335                 1.5775                 2.9184

                     37                     38                     39
                      A                      A                      A
 Frequencies --   1489.4700              1496.6870              1511.9634
 Red. masses --      1.0585                 1.0559                 1.0582
 Frc consts  --      1.3836                 1.3935                 1.4253
 IR Inten    --      4.6851                 2.8994                 8.4390

                     40                     41                     42
                      A                      A                      A
 Frequencies --   1768.3896              2332.8516              2920.4940
 Red. masses --     10.4938                11.9382                 1.0817
 Frc consts  --     19.3347                38.2794                 5.4358
 IR Inten    --    260.2701               113.6597                86.1846

                     43                     44                     45
                      A                      A                      A
 Frequencies --   2950.4526              2955.7282              2980.7334
 Red. masses --      1.0649                 1.0800                 1.0922
 Frc consts  --      5.4618                 5.5590                 5.7175
 IR Inten    --     10.0519                63.5241                19.2056

                     46                     47                     48
                      A                      A                      A
 Frequencies --   3039.4553              3045.5596              3110.1932
 Red. masses --      1.0349                 1.0352                 1.1007
 Frc consts  --      5.6328                 5.6572                 6.2734
 IR Inten    --     16.2130                11.2924                23.8701

                     49                     50                     51
                      A                      A                      A
 Frequencies --   3113.9760              3120.3929              3126.8153
 Red. masses --      1.1023                 1.1015                 1.1022
 Frc consts  --      6.2978                 6.3192                 6.3494
 IR Inten    --     11.0667                40.0128                22.1964

 - Thermochemistry -
 -------------------
 Temperature   298.150 Kelvin.  Pressure   1.00000 Atm.
 Atom     1 has atomic number  6 and mass  12.00000

 Molecular mass:   126.06808 amu.
 Principal axes and moments of inertia in atomic units:
                           1         2         3
     Eigenvalues --   306.791523652.350903840.75793
           X            0.99999  -0.00369   0.00044
           Y            0.00370   0.99997  -0.00748
           Z           -0.00042   0.00748   0.99997
 This molecule is an asymmetric top.
 Rotational symmetry number  1.
 Rotational temperatures (Kelvin)      0.28232     0.02371     0.02255
 Rotational constants (GHZ):           5.88263     0.49413     0.46989
 Zero-point vibrational energy     406392.6 (Joules/Mol)
                                   97.13016 (Kcal/Mol)
 Warning -- explicit consideration of  15 degrees of freedom as
           vibrations may cause significant error
 Vibrational temperatures:     46.52    72.75    91.92   157.43   246.56
          (Kelvin)            259.51   297.05   345.60   376.57   495.80
                              569.62   620.83   643.50   762.63   890.72
                             1182.36  1238.56  1335.47  1343.98  1362.16
                             1455.52  1470.01  1580.99  1651.82  1665.08
                             1683.21  1728.61  1799.04  1951.48  1967.03
                             2012.63  2036.16  2044.42  2048.69  2129.62
                             2132.42  2143.01  2153.40  2175.38  2544.32
                             3356.45  4201.93  4245.04  4252.63  4288.61
                             4373.09  4381.88  4474.87  4480.31  4489.54
                             4498.78

 Zero-point correction=                           0.154787 (Hartree/Particle)
 Thermal correction to Energy=                    0.165681
 Thermal correction to Enthalpy=                  0.166625
 Thermal correction to Gibbs Free Energy=         0.116834
 Sum of electronic and zero-point Energies=           -422.997156
 Sum of electronic and thermal Energies=              -422.986262
 Sum of electronic and thermal Enthalpies=            -422.985318
 Sum of electronic and thermal Free Energies=         -423.035109

                     E (Thermal)             CV                S
                      KCal/Mol        Cal/Mol-Kelvin    Cal/Mol-Kelvin
 Total                  103.966             36.611            104.794
 Electronic               0.000              0.000              0.000
 Translational            0.889              2.981             40.409
 Rotational               0.889              2.981             29.844
 Vibrational            102.189             30.649             34.542
 Vibration     1          0.594              1.983              5.681
 Vibration     2          0.595              1.977              4.795
 Vibration     3          0.597              1.972              4.333
 Vibration     4          0.606              1.942              3.279
 Vibration     5          0.626              1.878              2.420
 Vibration     6          0.629              1.866              2.325
 Vibration     7          0.641              1.831              2.075
 Vibration     8          0.657              1.779              1.801
 Vibration     9          0.669              1.743              1.650
 Vibration    10          0.723              1.586              1.191
 Vibration    11          0.763              1.479              0.978
 Vibration    12          0.793              1.402              0.854
 Vibration    13          0.806              1.367              0.804
 Vibration    14          0.885              1.184              0.587
 Vibration    15          0.979              0.992              0.418

 Optimization completed.
    -- Stationary point found.
 Normal termination of Gaussian 09 at Mon Jan 27 16:01:19 2020.
