 Gaussian 09, Revision D.01,
 Gaussian 09:  ES64L-G09RevD.01 24-Apr-2013

 -----------------------------
 # b3lyp 6-31G(2df,p) opt Freq
 -----------------------------

 -----
 titel
 -----
 Symbolic Z-matrix:
 Charge =  0 Multiplicity = 1

 SCF Done:  E(RB3LYP) =  -423.151253169     A.U. after   13 cycles
 SCF Done:  E(RB3LYP) =  -423.151253880     A.U. after    7 cycles
 SCF Done:  E(RB3LYP) =  -423.151254127     A.U. after    6 cycles
 Optimization completed.
    -- Stationary point found.
 Normal termination of Gaussian 09 at Mon Jan 27 12:32:27 2020.

 ----------------------------------------------------------------------
 #N Geom=AllCheck Guess=TCheck SCRF=Check GenChk RB3LYP/6-31G(2df,p) Fr
 eq
 ----------------------------------------------------------------------

 Structure from the checkpoint file:  "/scratch/puck/g09_7d40e0dd-34ce-4ccb-b427-b54ec81081aa/Gau-49171.chk"
 -----
 titel
 -----
 Charge =  0 Multiplicity = 1

                         Standard orientation:
 ---------------------------------------------------------------------
 Center     Atomic      Atomic             Coordinates (Angstroms)
 Number     Number       Type             X           Y           Z
 ---------------------------------------------------------------------
      1          6           0       -1.881823   -0.203643   -0.757226
      2          8           0       -1.101076   -1.317742   -0.278596
      3          6           0       -0.662399   -0.577204    0.879277
      4          6           0       -1.337083    0.721718    0.348455
      5          6           0       -0.213985    1.709515   -0.040699
      6          6           0        1.120349    0.970358    0.146820
      7          6           0        1.672309    0.015419   -0.941161
      8          8           0        1.605825   -1.115043   -0.044855
      9          6           0        0.869000   -0.347208    0.920851
     10          1           0       -1.631403    0.065796   -1.791167
     11          1           0       -2.958323   -0.409257   -0.695201
     12          1           0       -1.055255   -1.014413    1.804343
     13          1           0       -2.099952    1.183951    0.976050
     14          1           0       -0.341071    2.084488   -1.062632
     15          1           0       -0.244358    2.584720    0.616232
     16          1           0        1.898326    1.611065    0.564293
     17          1           0        1.023007   -0.119231   -1.815258
     18          1           0        2.697564    0.203652   -1.278544
     19          1           0        1.275275   -0.462222    1.931589
 ---------------------------------------------------------------------

 SCF Done:  E(RB3LYP) =  -423.151254127     A.U. after    1 cycles

 The electronic state is 1-A.
 Alpha  occ. eigenvalues --  -19.13097 -19.12690 -10.22973 -10.22926 -10.22835
 Alpha  occ. eigenvalues --  -10.22608 -10.19495 -10.19189 -10.19100  -1.04587
 Alpha  occ. eigenvalues --   -1.02471  -0.81304  -0.72558  -0.72255  -0.65873
 Alpha  occ. eigenvalues --   -0.64934  -0.55556  -0.53196  -0.52024  -0.47827
 Alpha  occ. eigenvalues --   -0.47590  -0.44732  -0.44315  -0.42228  -0.40749
 Alpha  occ. eigenvalues --   -0.40350  -0.37820  -0.33993  -0.31919  -0.31245
 Alpha  occ. eigenvalues --   -0.29678  -0.29380  -0.25398  -0.23713
 Alpha virt. eigenvalues --    0.04832   0.07290   0.09346   0.11937   0.12303
 Alpha virt. eigenvalues --    0.12558   0.14011   0.14838   0.15525   0.17352
 Alpha virt. eigenvalues --    0.17698   0.18718   0.19192   0.21354   0.22640

 Mulliken charges:
               1
     1  C   -0.078325
     2  O   -0.273951
     3  C    0.092562
     4  C   -0.072807
     5  C   -0.265917
     6  C   -0.062236
     7  C   -0.088269
     8  O   -0.272266
     9  C    0.103501
    10  H    0.098580
    11  H    0.100044
    12  H    0.070978
    13  H    0.078237
    14  H    0.105252
    15  H    0.104495
    16  H    0.081035
    17  H    0.104327
    18  H    0.102009
    19  H    0.072752
 Sum of Mulliken charges =   0.00000

 Dipole moment (field-independent basis, Debye):
    X=             -0.7996    Y=              3.1800    Z=              0.5775  Tot=              3.3295
 Quadrupole moment (field-independent basis, Debye-Ang):
   XX=            -52.0833   YY=            -57.7612   ZZ=            -49.6137
   XY=              1.4053   XZ=             -0.4184   YZ=             -1.2675

  Exact polarizability:  79.146   0.798  67.197  -0.086  -1.590  71.986
 Approx polarizability: 105.021  -1.246 101.807   0.409  -1.916 108.627

                      1                      2                      3
                      A                      A                      A
 Frequencies --     64.8898               111.6510               265.9186
 Red. masses --      3.6158                 2.5096                 7.8214
 Frc consts  --      0.0090                 0.0184                 0.3259
 IR Inten    --      3.5199                 1.5999                 1.6854

                      4                      5                      6
                      A                      A                      A
 Frequencies --    317.6627               359.1711               510.7175
 Red. masses --      2.2989                 1.7738                 5.7396
 Frc consts  --      0.1367                 0.1348                 0.8821
 IR Inten    --      0.6296                 0.2295                 8.0315

                      7                      8                      9
                      A                      A                      A
 Frequencies --    624.4866               652.9027               720.6317
 Red. masses --      4.4186                 5.0714                 2.6277
 Frc consts  --      1.0153                 1.2737                 0.8040
 IR Inten    --      1.6474                 0.9120                 2.5033

                     10                     11                     12
                      A                      A                      A
 Frequencies --    812.6391               827.8964               857.8656
 Red. masses --      3.2086                 1.9173                 2.1095
 Frc consts  --      1.2484                 0.7743                 0.9147
 IR Inten    --      3.6676                 3.0426                 2.6359

                     13                     14                     15
                      A                      A                      A
 Frequencies --    872.4914               887.3691               917.9783
 Red. masses --      1.7305                 3.8927                 2.8587
 Frc consts  --      0.7761                 1.8060                 1.4193
 IR Inten    --      2.8649                14.9565                14.7892

                     16                     17                     18
                      A                      A                      A
 Frequencies --    938.1557               996.1630              1013.7702
 Red. masses --      2.0226                 2.7937                 2.4563
 Frc consts  --      1.0488                 1.6334                 1.4873
 IR Inten    --     14.6999                13.9490                15.7545

                     19                     20                     21
                      A                      A                      A
 Frequencies --   1029.7740              1035.8694              1051.0508
 Red. masses --      3.0168                 6.4694                 3.1241
 Frc consts  --      1.8848                 4.0900                 2.0334
 IR Inten    --     28.9006                43.8007                51.7774

                     22                     23                     24
                      A                      A                      A
 Frequencies --   1101.5546              1111.6416              1117.8036
 Red. masses --      2.4889                 1.6381                 2.3246
 Frc consts  --      1.7794                 1.1926                 1.7113
 IR Inten    --     18.0138                 2.7046                 1.1402

                     25                     26                     27
                      A                      A                      A
 Frequencies --   1156.0628              1165.1022              1186.6014
 Red. masses --      1.1619                 1.1356                 1.4643
 Frc consts  --      0.9149                 0.9083                 1.2148
 IR Inten    --      1.2850                 0.0203                 1.8004

                     28                     29                     30
                      A                      A                      A
 Frequencies --   1200.0401              1249.1579              1252.6533
 Red. masses --      1.9248                 1.5043                 1.3138
 Frc consts  --      1.6332                 1.3830                 1.2146
 IR Inten    --      2.3044                 0.1826                 0.8113

                     31                     32                     33
                      A                      A                      A
 Frequencies --   1271.2834              1303.1281              1320.1526
 Red. masses --      1.3912                 1.5671                 1.3208
 Frc consts  --      1.3248                 1.5679                 1.3562
 IR Inten    --      0.2364                 0.3316                 0.5901

                     34                     35                     36
                      A                      A                      A
 Frequencies --   1328.2421              1344.9582              1360.0625
 Red. masses --      1.3456                 1.3454                 1.3578
 Frc consts  --      1.3987                 1.4339                 1.4798
 IR Inten    --      0.5622                 4.3971                 7.1296

                     37                     38                     39
                      A                      A                      A
 Frequencies --   1365.6494              1379.3553              1486.6890
 Red. masses --      1.5533                 1.5418                 1.0861
 Frc consts  --      1.7068                 1.7284                 1.4144
 IR Inten    --      0.8887                 0.2227                 3.7359

                     40                     41                     42
                      A                      A                      A
 Frequencies --   1516.7509              1527.6557              3005.8896
 Red. masses --      1.1059                 1.0984                 1.0551
 Frc consts  --      1.4990                 1.5104                 5.6167
 IR Inten    --      0.2369                 0.2509                68.2343

                     43                     44                     45
                      A                      A                      A
 Frequencies --   3018.7501              3031.0215              3038.9557
 Red. masses --      1.0561                 1.0857                 1.0631
 Frc consts  --      5.6702                 5.8769                 5.7845
 IR Inten    --     66.8866                21.0835                26.9999

                     46                     47                     48
                      A                      A                      A
 Frequencies --   3048.1323              3051.8464              3064.9353
 Red. masses --      1.1078                 1.0884                 1.1084
 Frc consts  --      6.0643                 5.9726                 6.1344
 IR Inten    --     59.5935                69.5049                28.0353

                     49                     50                     51
                      A                      A                      A
 Frequencies --   3073.6089              3098.2966              3104.8800
 Red. masses --      1.1027                 1.0883                 1.0905
 Frc consts  --      6.1379                 6.1554                 6.1938
 IR Inten    --      6.5338                53.1482                45.4127

 - Thermochemistry -
 -------------------
 Temperature   298.150 Kelvin.  Pressure   1.00000 Atm.
 Atom     1 has atomic number  6 and mass  12.00000

 Molecular mass:   126.06808 amu.
 Principal axes and moments of inertia in atomic units:
                           1         2         3
     Eigenvalues --   646.63679 990.850141219.84006
           X            0.99992   0.01199  -0.00338
           Y           -0.01205   0.99976  -0.01847
           Z            0.00316   0.01851   0.99982
 This molecule is an asymmetric top.
 Rotational symmetry number  1.
 Warning -- assumption of classical behavior for rotation
           may cause significant error
 Rotational temperatures (Kelvin)      0.13395     0.08741     0.07100
 Rotational constants (GHZ):           2.79097     1.82141     1.47949
 Zero-point vibrational energy     425571.0 (Joules/Mol)
                                  101.71391 (Kcal/Mol)
 Warning -- explicit consideration of   6 degrees of freedom as
           vibrations may cause significant error
 Vibrational temperatures:     93.36   160.64   382.60   457.05   516.77
          (Kelvin)            734.81   898.50   939.38  1036.83  1169.20
                             1191.16  1234.28  1255.32  1276.72  1320.76
                             1349.80  1433.25  1458.59  1481.61  1490.38
                             1512.23  1584.89  1599.40  1608.27  1663.31
                             1676.32  1707.25  1726.59  1797.26  1802.29
                             1829.09  1874.91  1899.40  1911.04  1935.09
                             1956.82  1964.86  1984.58  2139.01  2182.26
                             2197.95  4324.80  4343.30  4360.96  4372.37
                             4385.58  4390.92  4409.75  4422.23  4457.75
                             4467.22

 Zero-point correction=                           0.162091 (Hartree/Particle)
 Thermal correction to Energy=                    0.169112
 Thermal correction to Enthalpy=                  0.170056
 Thermal correction to Gibbs Free Energy=         0.130126
 Sum of electronic and zero-point Energies=           -422.989163
 Sum of electronic and thermal Energies=              -422.982143
 Sum of electronic and thermal Enthalpies=            -422.981198
 Sum of electronic and thermal Free Energies=         -423.021128

                     E (Thermal)             CV                S
                      KCal/Mol        Cal/Mol-Kelvin    Cal/Mol-Kelvin
 Total                  106.119             27.582             84.039
 Electronic               0.000              0.000              0.000
 Translational            0.889              2.981             40.409
 Rotational               0.889              2.981             28.149
 Vibrational            104.342             21.620             15.482
 Vibration     1          0.597              1.971              4.303
 Vibration     2          0.607              1.940              3.240
 Vibration     3          0.672              1.736              1.623
 Vibration     4          0.704              1.640              1.322
 Vibration     5          0.734              1.556              1.126
 Vibration     6          0.866              1.226              0.632

 Optimization completed.
    -- Stationary point found.
 Normal termination of Gaussian 09 at Mon Jan 27 13:16:39 2020.
