 Gaussian 09, Revision D.01,
 Gaussian 09:  ES64L-G09RevD.01 24-Apr-2013

 -----------------------------
 # b3lyp 6-31G(2df,p) opt Freq
 -----------------------------

 -----
 titel
 -----
 Symbolic Z-matrix:
 Charge =  0 Multiplicity = 1

 SCF Done:  E(RB3LYP) =  -423.158616786     A.U. after   12 cycles
 Optimization completed.
    -- Stationary point found.
 Normal termination of Gaussian 09 at Mon Jan 27 18:55:48 2020.

 ----------------------------------------------------------------------
 #N Geom=AllCheck Guess=TCheck SCRF=Check GenChk RB3LYP/6-31G(2df,p) Fr
 eq
 ----------------------------------------------------------------------

 Structure from the checkpoint file:  "/scratch/puck/g09_1c4dba5e-dfd3-4cfa-80b1-8ff545213aae/Gau-90612.chk"
 -----
 titel
 -----
 Charge =  0 Multiplicity = 1

                         Standard orientation:
 ---------------------------------------------------------------------
 Center     Atomic      Atomic             Coordinates (Angstroms)
 Number     Number       Type             X           Y           Z
 ---------------------------------------------------------------------
      1          8           0        1.975252    0.915958    0.227489
      2          6           0        0.612726    0.598984    0.251793
      3          6           0       -0.421930    1.635480   -0.192790
      4          6           0       -1.501828    0.768366   -0.904522
      5          6           0       -1.232456   -0.661390   -0.394567
      6          6           0       -1.310382   -0.723466    1.169992
      7          6           0        0.201269   -0.518124    1.230370
      8          6           0        0.306944   -0.760205   -0.277772
      9          8           0        1.144636   -1.516010   -1.061892
     10          1           0        2.223030    1.308039    1.071089
     11          1           0       -0.836185    2.202878    0.648185
     12          1           0        0.044600    2.354051   -0.872425
     13          1           0       -2.522236    1.100810   -0.690524
     14          1           0       -1.361590    0.806239   -1.990264
     15          1           0       -1.756959   -1.450772   -0.931669
     16          1           0       -1.953287    0.022118    1.652413
     17          1           0       -1.592042   -1.717891    1.525513
     18          1           0        0.871188   -0.800764    2.036076
     19          1           0        1.998312   -1.062159   -1.068194
 ---------------------------------------------------------------------

 SCF Done:  E(RB3LYP) =  -423.158616786     A.U. after    1 cycles

 The electronic state is 1-A.
 Alpha  occ. eigenvalues --  -19.15456 -19.14280 -10.23084 -10.22685 -10.18592
 Alpha  occ. eigenvalues --  -10.18184 -10.18158 -10.17918 -10.17826  -1.04623
 Alpha  occ. eigenvalues --   -1.02073  -0.89461  -0.75703  -0.72416  -0.65434
 Alpha  occ. eigenvalues --   -0.60093  -0.57509  -0.54569  -0.51650  -0.48057
 Alpha  occ. eigenvalues --   -0.46414  -0.44658  -0.43225  -0.39338  -0.38119
 Alpha  occ. eigenvalues --   -0.37855  -0.37135  -0.35496  -0.33572  -0.32231
 Alpha  occ. eigenvalues --   -0.30734  -0.29005  -0.24900  -0.21925
 Alpha virt. eigenvalues --    0.06273   0.09481   0.10791   0.11495   0.12409
 Alpha virt. eigenvalues --    0.14340   0.15386   0.15774   0.16766   0.18051
 Alpha virt. eigenvalues --    0.18712   0.19431   0.21274   0.21720   0.23348

 Mulliken charges:
               1
     1  O   -0.495448
     2  C    0.323853
     3  C   -0.296462
     4  C   -0.211831
     5  C   -0.099055
     6  C   -0.236146
     7  C   -0.222484
     8  C    0.385525
     9  O   -0.475793
    10  H    0.287969
    11  H    0.093961
    12  H    0.105643
    13  H    0.095119
    14  H    0.103918
    15  H    0.077883
    16  H    0.086669
    17  H    0.105366
    18  H    0.077937
    19  H    0.293374
 Sum of Mulliken charges =   0.00000

 Dipole moment (field-independent basis, Debye):
    X=              0.0026    Y=              1.3752    Z=              1.4188  Tot=              1.9758
 Quadrupole moment (field-independent basis, Debye-Ang):
   XX=            -50.1539   YY=            -54.9545   ZZ=            -51.8172
   XY=              1.7161   XZ=              2.6839   YZ=             -0.0065

  Exact polarizability:  78.033   1.491  72.117   0.589  -1.166  71.442
 Approx polarizability: 110.386   2.441 105.459  -1.645   2.616 109.895

                      1                      2                      3
                      A                      A                      A
 Frequencies --    193.4916               209.2309               222.4914
 Red. masses --      2.9588                 2.4238                 3.7811
 Frc consts  --      0.0653                 0.0625                 0.1103
 IR Inten    --      1.8619                 1.4350                 2.4184

                      4                      5                      6
                      A                      A                      A
 Frequencies --    270.7414               327.1544               345.9653
 Red. masses --      1.2125                 1.5698                 1.6451
 Frc consts  --      0.0524                 0.0990                 0.1160
 IR Inten    --     54.9435                51.9575                19.3985

                      7                      8                      9
                      A                      A                      A
 Frequencies --    386.0703               412.6481               508.7777
 Red. masses --      2.4459                 2.6486                 3.3459
 Frc consts  --      0.2148                 0.2657                 0.5103
 IR Inten    --     49.3372                 6.7849                 5.4070

                     10                     11                     12
                      A                      A                      A
 Frequencies --    562.8993               626.3434               664.3744
 Red. masses --      5.5466                 2.7546                 4.5489
 Frc consts  --      1.0355                 0.6367                 1.1830
 IR Inten    --      5.3221                 2.2907                 2.9665

                     13                     14                     15
                      A                      A                      A
 Frequencies --    712.1452               794.6276               829.3149
 Red. masses --      2.8519                 4.8383                 2.4316
 Frc consts  --      0.8522                 1.8000                 0.9853
 IR Inten    --      2.3474                16.4882                 0.7705

                     16                     17                     18
                      A                      A                      A
 Frequencies --    855.0126               901.7017               928.5891
 Red. masses --      1.5761                 1.5832                 1.8444
 Frc consts  --      0.6789                 0.7584                 0.9370
 IR Inten    --      4.7648                 4.4979                 4.2906

                     19                     20                     21
                      A                      A                      A
 Frequencies --    943.0336               974.6318               998.1995
 Red. masses --      2.1054                 1.9916                 2.8409
 Frc consts  --      1.1032                 1.1146                 1.6678
 IR Inten    --      0.9588                 4.5566                20.0619

                     22                     23                     24
                      A                      A                      A
 Frequencies --   1033.7460              1041.0787              1083.1719
 Red. masses --      2.4152                 1.7664                 1.9192
 Frc consts  --      1.5206                 1.1280                 1.3267
 IR Inten    --      2.7441                 4.6949                 6.0459

                     25                     26                     27
                      A                      A                      A
 Frequencies --   1107.4519              1134.5035              1163.8119
 Red. masses --      1.4220                 1.3825                 1.6879
 Frc consts  --      1.0275                 1.0484                 1.3470
 IR Inten    --     12.4012                27.8269                30.2457

                     28                     29                     30
                      A                      A                      A
 Frequencies --   1201.2333              1214.5331              1240.2865
 Red. masses --      2.3124                 1.6903                 1.7369
 Frc consts  --      1.9660                 1.4690                 1.5743
 IR Inten    --     50.6742                 9.5729                20.2334

                     31                     32                     33
                      A                      A                      A
 Frequencies --   1261.2134              1268.7349              1277.3485
 Red. masses --      1.5727                 1.3398                 1.5974
 Frc consts  --      1.4739                 1.2707                 1.5356
 IR Inten    --     68.1808                 8.7022                29.5228

                     34                     35                     36
                      A                      A                      A
 Frequencies --   1307.4041              1330.4181              1348.0622
 Red. masses --      1.6067                 1.4164                 1.8750
 Frc consts  --      1.6181                 1.4771                 2.0076
 IR Inten    --     11.8560                 2.4431                49.8903

                     37                     38                     39
                      A                      A                      A
 Frequencies --   1399.4537              1473.7749              1486.2429
 Red. masses --      1.8509                 2.5308                 1.1126
 Frc consts  --      2.1357                 3.2388                 1.4480
 IR Inten    --     22.7027                43.4429                 2.6894

                     40                     41                     42
                      A                      A                      A
 Frequencies --   1494.3748              1513.9296              3029.8079
 Red. masses --      1.2146                 1.2322                 1.0626
 Frc consts  --      1.5981                 1.6639                 5.7469
 IR Inten    --      7.3752                14.0161                41.6077

                     43                     44                     45
                      A                      A                      A
 Frequencies --   3037.9583              3044.0360              3081.6274
 Red. masses --      1.0606                 1.0648                 1.0992
 Frc consts  --      5.7672                 5.8134                 6.1502
 IR Inten    --     40.8335                40.6381                11.4559

                     46                     47                     48
                      A                      A                      A
 Frequencies --   3093.2122              3097.5993              3122.5121
 Red. masses --      1.1018                 1.1044                 1.0895
 Frc consts  --      6.2109                 6.2435                 6.2585
 IR Inten    --     28.6548                36.0903                31.9541

                     49                     50                     51
                      A                      A                      A
 Frequencies --   3161.7948              3758.1298              3805.2384
 Red. masses --      1.0924                 1.0653                 1.0666
 Frc consts  --      6.4344                 8.8649                 9.0992
 IR Inten    --     20.0576                38.4927                25.2984

 - Thermochemistry -
 -------------------
 Temperature   298.150 Kelvin.  Pressure   1.00000 Atm.
 Atom     1 has atomic number  8 and mass  15.99491

 Molecular mass:   126.06808 amu.
 Principal axes and moments of inertia in atomic units:
                           1         2         3
     Eigenvalues --   791.33166 966.955511150.21034
           X            0.99982  -0.00549   0.01813
           Y            0.00663   0.99795  -0.06364
           Z           -0.01774   0.06375   0.99781
 This molecule is an asymmetric top.
 Rotational symmetry number  1.
 Warning -- assumption of classical behavior for rotation
           may cause significant error
 Rotational temperatures (Kelvin)      0.10945     0.08957     0.07530
 Rotational constants (GHZ):           2.28064     1.86642     1.56905
 Zero-point vibrational energy     420368.6 (Joules/Mol)
                                  100.47050 (Kcal/Mol)
 Warning -- explicit consideration of  10 degrees of freedom as
           vibrations may cause significant error
 Vibrational temperatures:    278.39   301.04   320.12   389.54   470.70
          (Kelvin)            497.77   555.47   593.71   732.02   809.89
                              901.17   955.89  1024.62  1143.29  1193.20
                             1230.17  1297.35  1336.03  1356.81  1402.28
                             1436.18  1487.33  1497.88  1558.44  1593.37
                             1632.30  1674.46  1728.30  1747.44  1784.49
                             1814.60  1825.42  1837.82  1881.06  1914.17
                             1939.56  2013.50  2120.43  2138.37  2150.07
                             2178.20  4359.21  4370.94  4379.68  4433.77
                             4450.44  4456.75  4492.59  4549.11  5407.10
                             5474.88

 Zero-point correction=                           0.160110 (Hartree/Particle)
 Thermal correction to Energy=                    0.167937
 Thermal correction to Enthalpy=                  0.168881
 Thermal correction to Gibbs Free Energy=         0.128530
 Sum of electronic and zero-point Energies=           -422.998507
 Sum of electronic and thermal Energies=              -422.990680
 Sum of electronic and thermal Enthalpies=            -422.989736
 Sum of electronic and thermal Free Energies=         -423.030087

                     E (Thermal)             CV                S
                      KCal/Mol        Cal/Mol-Kelvin    Cal/Mol-Kelvin
 Total                  105.382             31.976             84.926
 Electronic               0.000              0.000              0.000
 Translational            0.889              2.981             40.409
 Rotational               0.889              2.981             28.267
 Vibrational            103.605             26.014             16.251
 Vibration     1          0.635              1.849              2.194
 Vibration     2          0.642              1.827              2.050
 Vibration     3          0.648              1.807              1.939
 Vibration     4          0.674              1.727              1.591
 Vibration     5          0.711              1.621              1.274
 Vibration     6          0.724              1.583              1.185
 Vibration     7          0.755              1.500              1.015
 Vibration     8          0.776              1.443              0.917
 Vibration     9          0.864              1.231              0.637
 Vibration    10          0.919              1.112              0.518

 Normal termination of Gaussian 09 at Mon Jan 27 19:45:05 2020.
