 Gaussian 09, Revision D.01,
 Gaussian 09:  ES64L-G09RevD.01 24-Apr-2013

 -----------------------------
 # b3lyp 6-31G(2df,p) opt Freq
 -----------------------------

 -----
 titel
 -----
 Symbolic Z-matrix:
 Charge =  0 Multiplicity = 1

 SCF Done:  E(RB3LYP) =  -423.170421866     A.U. after   14 cycles
 Optimization completed.
    -- Stationary point found.
 Normal termination of Gaussian 09 at Tue Jan 28 01:53:26 2020.

 ----------------------------------------------------------------------
 #N Geom=AllCheck Guess=TCheck SCRF=Check GenChk RB3LYP/6-31G(2df,p) Fr
 eq
 ----------------------------------------------------------------------

 Structure from the checkpoint file:  "/scratch/puck/g09_69f1aad7-c542-4303-91a8-83bb38763df7/Gau-190662.chk"
 -----
 titel
 -----
 Charge =  0 Multiplicity = 1

                         Standard orientation:
 ---------------------------------------------------------------------
 Center     Atomic      Atomic             Coordinates (Angstroms)
 Number     Number       Type             X           Y           Z
 ---------------------------------------------------------------------
      1          6           0       -2.379011   -1.199786   -0.229792
      2          6           0       -1.647478   -0.062842    0.483061
      3          8           0       -0.273152   -0.431276    0.725315
      4          6           0        0.590221    0.501398    0.094467
      5          6           0        1.943715    0.715903    0.735922
      6          6           0        1.822637   -0.126744   -0.519153
      7          8           0        1.928599   -1.511355   -0.443576
      8          6           0       -0.272913    1.523228   -0.524712
      9          6           0       -1.549298    1.216964   -0.308635
     10          1           0       -2.329708   -2.114808    0.367498
     11          1           0       -3.433701   -0.943675   -0.375778
     12          1           0       -1.927846   -1.391923   -1.207636
     13          1           0       -2.123151    0.107724    1.461628
     14          1           0        2.398626    1.699352    0.670089
     15          1           0        2.118312    0.180716    1.663307
     16          1           0        2.211985    0.275735   -1.450951
     17          1           0        1.097420   -1.819831   -0.054311
     18          1           0        0.116384    2.372875   -1.069974
     19          1           0       -2.419130    1.766156   -0.644736
 ---------------------------------------------------------------------

 SCF Done:  E(RB3LYP) =  -423.170421866     A.U. after    1 cycles

 The electronic state is 1-A.
 Alpha  occ. eigenvalues --  -19.15168 -19.13040 -10.24459 -10.24253 -10.22984
 Alpha  occ. eigenvalues --  -10.19478 -10.18994 -10.18186 -10.17938  -1.05344
 Alpha  occ. eigenvalues --   -1.01351  -0.84005  -0.79812  -0.74601  -0.64581
 Alpha  occ. eigenvalues --   -0.60291  -0.57979  -0.56268  -0.52628  -0.49450
 Alpha  occ. eigenvalues --   -0.46853  -0.44964  -0.42919  -0.41294  -0.39160
 Alpha  occ. eigenvalues --   -0.38709  -0.38027  -0.36924  -0.34600  -0.33843
 Alpha  occ. eigenvalues --   -0.32767  -0.28371  -0.24476  -0.21605
 Alpha virt. eigenvalues --    0.00773   0.07783   0.10708   0.11819   0.13111
 Alpha virt. eigenvalues --    0.13743   0.14471   0.15348   0.15963   0.16527
 Alpha virt. eigenvalues --    0.17371   0.18574   0.19594   0.21230   0.22169

 Mulliken charges:
               1
     1  C   -0.392490
     2  C    0.072052
     3  O   -0.333366
     4  C    0.376312
     5  C   -0.387132
     6  C    0.073678
     7  O   -0.433594
     8  C   -0.171975
     9  C   -0.112873
    10  H    0.125952
    11  H    0.116340
    12  H    0.125541
    13  H    0.090461
    14  H    0.112394
    15  H    0.127459
    16  H    0.096634
    17  H    0.291926
    18  H    0.114255
    19  H    0.108426
 Sum of Mulliken charges =   0.00000

 Dipole moment (field-independent basis, Debye):
    X=             -2.0816    Y=              1.6793    Z=             -0.2335  Tot=              2.6847
 Quadrupole moment (field-independent basis, Debye-Ang):
   XX=            -52.8299   YY=            -52.3921   ZZ=            -53.6102
   XY=              4.3299   XZ=              0.5362   YZ=             -2.4803

  Exact polarizability: 101.616   4.408  74.352  -0.798  -3.129  61.775
 Approx polarizability: 145.342   4.097 106.932  -5.177  -4.950  94.197

                      1                      2                      3
                      A                      A                      A
 Frequencies --     61.2254               140.9814               205.4452
 Red. masses --      3.9826                 3.5350                 2.7388
 Frc consts  --      0.0088                 0.0414                 0.0681
 IR Inten    --      0.4247                 1.1338                 3.8781

                      4                      5                      6
                      A                      A                      A
 Frequencies --    243.0486               264.9882               307.9558
 Red. masses --      1.3093                 2.6883                 2.8405
 Frc consts  --      0.0456                 0.1112                 0.1587
 IR Inten    --      1.9536                 2.6112                 0.2785

                      7                      8                      9
                      A                      A                      A
 Frequencies --    380.0570               418.9817               452.8463
 Red. masses --      1.6034                 2.1856                 1.5967
 Frc consts  --      0.1365                 0.2261                 0.1929
 IR Inten    --     27.8277                21.4631                11.2898

                     10                     11                     12
                      A                      A                      A
 Frequencies --    515.7956               534.9780               631.2515
 Red. masses --      3.0264                 3.7897                 3.3408
 Frc consts  --      0.4744                 0.6390                 0.7843
 IR Inten    --      1.7456                 4.6355                 8.0538

                     13                     14                     15
                      A                      A                      A
 Frequencies --    731.4693               761.5464               808.1318
 Red. masses --      1.8627                 2.1507                 2.8771
 Frc consts  --      0.5872                 0.7349                 1.1071
 IR Inten    --     10.3608                 6.1310                 6.7780

                     16                     17                     18
                      A                      A                      A
 Frequencies --    837.6425               868.1379               881.1303
 Red. masses --      2.9666                 2.3477                 1.9152
 Frc consts  --      1.2264                 1.0425                 0.8761
 IR Inten    --     30.9272                14.8442                 8.5574

                     19                     20                     21
                      A                      A                      A
 Frequencies --    913.6426               937.9743               947.1501
 Red. masses --      3.6409                 1.9064                 1.3659
 Frc consts  --      1.7907                 0.9882                 0.7220
 IR Inten    --     31.9611                32.3255                 5.5121

                     22                     23                     24
                      A                      A                      A
 Frequencies --   1009.9672              1031.5311              1058.0633
 Red. masses --      1.8177                 1.4931                 1.6230
 Frc consts  --      1.0924                 0.9360                 1.0705
 IR Inten    --      2.0046                 7.1958                28.3571

                     25                     26                     27
                      A                      A                      A
 Frequencies --   1083.1076              1099.9157              1117.4773
 Red. masses --      1.4681                 1.6603                 2.0072
 Frc consts  --      1.0148                 1.1835                 1.4768
 IR Inten    --      7.5199                 5.5029                16.5484

                     28                     29                     30
                      A                      A                      A
 Frequencies --   1132.9976              1159.7356              1228.4461
 Red. masses --      1.8789                 2.8470                 1.9775
 Frc consts  --      1.4211                 2.2561                 1.7582
 IR Inten    --     55.8918               102.7773                23.8712

                     31                     32                     33
                      A                      A                      A
 Frequencies --   1280.0910              1331.7437              1350.0062
 Red. masses --      1.8044                 1.5712                 1.5346
 Frc consts  --      1.7420                 1.6418                 1.6479
 IR Inten    --     13.3975                20.1876                11.5215

                     34                     35                     36
                      A                      A                      A
 Frequencies --   1373.3599              1392.3461              1403.1277
 Red. masses --      1.4168                 1.6116                 1.3290
 Frc consts  --      1.5745                 1.8408                 1.5416
 IR Inten    --     10.1854                17.2654                16.5439

                     37                     38                     39
                      A                      A                      A
 Frequencies --   1420.9442              1470.1329              1486.3159
 Red. masses --      1.1731                 1.8836                 1.0535
 Frc consts  --      1.3955                 2.3986                 1.3713
 IR Inten    --     38.8120                44.3277                 2.6278

                     40                     41                     42
                      A                      A                      A
 Frequencies --   1495.1739              1675.5918              2976.0962
 Red. masses --      1.0504                 6.8931                 1.0832
 Frc consts  --      1.3836                11.4025                 5.6529
 IR Inten    --      3.0452                 2.6670                58.8200

                     43                     44                     45
                      A                      A                      A
 Frequencies --   3036.9865              3110.9165              3121.1366
 Red. masses --      1.0343                 1.1011                 1.1033
 Frc consts  --      5.6207                 6.2782                 6.3321
 IR Inten    --     18.4952                18.8766                22.8522

                     46                     47                     48
                      A                      A                      A
 Frequencies --   3123.3714              3136.7267              3211.4260
 Red. masses --      1.0540                 1.0894                 1.0859
 Frc consts  --      6.0582                 6.3155                 6.5983
 IR Inten    --      8.3172                24.0879                 0.8253

                     49                     50                     51
                      A                      A                      A
 Frequencies --   3222.0375              3234.9652              3725.0380
 Red. masses --      1.1169                 1.1064                 1.0651
 Frc consts  --      6.8315                 6.8219                 8.7076
 IR Inten    --      4.7999                 7.0682                51.0560

 - Thermochemistry -
 -------------------
 Temperature   298.150 Kelvin.  Pressure   1.00000 Atm.
 Atom     1 has atomic number  6 and mass  12.00000

 Molecular mass:   126.06808 amu.
 Principal axes and moments of inertia in atomic units:
                           1         2         3
     Eigenvalues --   621.238431316.689921651.68609
           X            0.99872   0.04953   0.00988
           Y           -0.04942   0.99872  -0.01081
           Z           -0.01040   0.01030   0.99989
 This molecule is an asymmetric top.
 Rotational symmetry number  1.
 Warning -- assumption of classical behavior for rotation
           may cause significant error
 Rotational temperatures (Kelvin)      0.13942     0.06578     0.05244
 Rotational constants (GHZ):           2.90507     1.37067     1.09267
 Zero-point vibrational energy     414764.2 (Joules/Mol)
                                   99.13102 (Kcal/Mol)
 Warning -- explicit consideration of  11 degrees of freedom as
           vibrations may cause significant error
 Vibrational temperatures:     88.09   202.84   295.59   349.69   381.26
          (Kelvin)            443.08   546.82   602.82   651.54   742.11
                              769.71   908.23  1052.42  1095.69  1162.72
                             1205.18  1249.06  1267.75  1314.53  1349.53
                             1362.74  1453.12  1484.14  1522.32  1558.35
                             1582.53  1607.80  1630.13  1668.60  1767.46
                             1841.76  1916.08  1942.36  1975.96  2003.27
                             2018.79  2044.42  2115.19  2138.47  2151.22
                             2410.80  4281.93  4369.54  4475.91  4490.61
                             4493.83  4513.04  4620.52  4635.79  4654.39
                             5359.49

 Zero-point correction=                           0.157975 (Hartree/Particle)
 Thermal correction to Energy=                    0.166546
 Thermal correction to Enthalpy=                  0.167491
 Thermal correction to Gibbs Free Energy=         0.124812
 Sum of electronic and zero-point Energies=           -423.012447
 Sum of electronic and thermal Energies=              -423.003875
 Sum of electronic and thermal Enthalpies=            -423.002931
 Sum of electronic and thermal Free Energies=         -423.045610

                     E (Thermal)             CV                S
                      KCal/Mol        Cal/Mol-Kelvin    Cal/Mol-Kelvin
 Total                  104.509             33.320             89.825
 Electronic               0.000              0.000              0.000
 Translational            0.889              2.981             40.409
 Rotational               0.889              2.981             28.693
 Vibrational            102.732             27.358             20.724
 Vibration     1          0.597              1.973              4.417
 Vibration     2          0.615              1.912              2.791
 Vibration     3          0.640              1.832              2.084
 Vibration     4          0.659              1.774              1.780
 Vibration     5          0.671              1.737              1.629
 Vibration     6          0.698              1.659              1.373
 Vibration     7          0.750              1.513              1.039
 Vibration     8          0.782              1.429              0.895
 Vibration     9          0.811              1.355              0.787
 Vibration    10          0.871              1.215              0.620
 Vibration    11          0.890              1.173              0.576

 Normal termination of Gaussian 09 at Tue Jan 28 02:41:23 2020.
