 Gaussian 09, Revision D.01,
 Gaussian 09:  ES64L-G09RevD.01 24-Apr-2013

 -----------------------------
 # b3lyp 6-31G(2df,p) opt Freq
 -----------------------------

 -----
 titel
 -----
 Symbolic Z-matrix:
 Charge =  0 Multiplicity = 1

 SCF Done:  E(RB3LYP) =  -423.193382601     A.U. after   14 cycles
 Optimization completed.
    -- Stationary point found.
 Normal termination of Gaussian 09 at Mon Jan 27 12:46:17 2020.

 ----------------------------------------------------------------------
 #N Geom=AllCheck Guess=TCheck SCRF=Check GenChk RB3LYP/6-31G(2df,p) Fr
 eq
 ----------------------------------------------------------------------

 Structure from the checkpoint file:  "/scratch/puck/g09_71776516-9f59-44e8-b92a-081b706fa3ab/Gau-73830.chk"
 -----
 titel
 -----
 Charge =  0 Multiplicity = 1

                         Standard orientation:
 ---------------------------------------------------------------------
 Center     Atomic      Atomic             Coordinates (Angstroms)
 Number     Number       Type             X           Y           Z
 ---------------------------------------------------------------------
      1          6           0        1.534725   -1.116880   -0.345213
      2          8           0        2.434719   -0.074575    0.019167
      3          6           0        1.707494    1.156911    0.129554
      4          6           0        0.253601    0.763149    0.161294
      5          6           0       -0.843979    1.449685   -0.129995
      6          6           0       -2.185445    0.763266   -0.205256
      7          6           0       -2.096033   -0.700939    0.251189
      8          8           0       -0.912984   -1.339016   -0.216913
      9          6           0        0.224688   -0.736251    0.350563
     10          1           0        1.367936   -1.162741   -1.432547
     11          1           0        1.966014   -2.062213   -0.008315
     12          1           0        2.045357    1.661954    1.043529
     13          1           0        1.930129    1.818204   -0.720431
     14          1           0       -0.801343    2.507566   -0.380032
     15          1           0       -2.930264    1.286305    0.408882
     16          1           0       -2.554714    0.817834   -1.238820
     17          1           0       -2.130228   -0.750686    1.351673
     18          1           0       -2.933888   -1.285329   -0.137417
     19          1           0        0.296819   -0.995813    1.422624
 ---------------------------------------------------------------------

 SCF Done:  E(RB3LYP) =  -423.193382601     A.U. after    1 cycles

 The electronic state is 1-A.
 Alpha  occ. eigenvalues --  -19.14305 -19.13653 -10.23294 -10.23156 -10.23107
 Alpha  occ. eigenvalues --  -10.22502 -10.19127 -10.18686 -10.18580  -1.04426
 Alpha  occ. eigenvalues --   -1.02727  -0.80880  -0.77534  -0.73189  -0.65988
 Alpha  occ. eigenvalues --   -0.62557  -0.59924  -0.53357  -0.50544  -0.48721
 Alpha  occ. eigenvalues --   -0.46938  -0.45962  -0.44531  -0.41777  -0.40594
 Alpha  occ. eigenvalues --   -0.39616  -0.38318  -0.37479  -0.35366  -0.32793
 Alpha  occ. eigenvalues --   -0.30040  -0.25575  -0.25340  -0.24157
 Alpha virt. eigenvalues --    0.01115   0.08545   0.10643   0.11598   0.12473
 Alpha virt. eigenvalues --    0.14178   0.14955   0.15908   0.16215   0.16585
 Alpha virt. eigenvalues --    0.17477   0.18149   0.19978   0.20346   0.22232

 Mulliken charges:
               1
     1  C   -0.112404
     2  O   -0.267300
     3  C   -0.157567
     4  C    0.274978
     5  C   -0.209641
     6  C   -0.254925
     7  C   -0.083071
     8  O   -0.259572
     9  C    0.041610
    10  H    0.100631
    11  H    0.111978
    12  H    0.115494
    13  H    0.109402
    14  H    0.087550
    15  H    0.107818
    16  H    0.116484
    17  H    0.092502
    18  H    0.109364
    19  H    0.076670
 Sum of Mulliken charges =   0.00000

 Dipole moment (field-independent basis, Debye):
    X=             -1.6681    Y=              1.1276    Z=              0.4265  Tot=              2.0582
 Quadrupole moment (field-independent basis, Debye-Ang):
   XX=            -54.7334   YY=            -51.9871   ZZ=            -52.7995
   XY=             -0.6476   XZ=             -0.4054   YZ=             -1.0816

  Exact polarizability:  94.261  -4.245  78.198   3.049  -2.326  60.064
 Approx polarizability: 129.544 -10.855 112.574   8.330  -3.211  94.314

                      1                      2                      3
                      A                      A                      A
 Frequencies --     96.8687               169.5358               229.7584
 Red. masses --      2.7711                 2.9522                 2.2341
 Frc consts  --      0.0153                 0.0500                 0.0695
 IR Inten    --      0.8224                 4.3673                 6.4479

                      4                      5                      6
                      A                      A                      A
 Frequencies --    283.2663               337.6226               364.4851
 Red. masses --      1.9027                 3.0162                 3.9711
 Frc consts  --      0.0900                 0.2026                 0.3108
 IR Inten    --      1.6764                 1.4179                 0.7188

                      7                      8                      9
                      A                      A                      A
 Frequencies --    466.2096               531.7812               615.9052
 Red. masses --      5.6429                 4.9526                 3.7485
 Frc consts  --      0.7226                 0.8252                 0.8378
 IR Inten    --      0.9265                 0.4713                 3.7001

                     10                     11                     12
                      A                      A                      A
 Frequencies --    639.1794               708.7278               796.4705
 Red. masses --      2.6714                 2.5060                 2.4429
 Frc consts  --      0.6430                 0.7416                 0.9131
 IR Inten    --      5.1112                 2.5715                 4.2994

                     13                     14                     15
                      A                      A                      A
 Frequencies --    855.0537               882.4625               911.3987
 Red. masses --      1.5444                 2.6804                 2.1795
 Frc consts  --      0.6653                 1.2298                 1.0666
 IR Inten    --     11.7687                 3.8485                20.1096

                     16                     17                     18
                      A                      A                      A
 Frequencies --    937.0854               977.3200              1020.0973
 Red. masses --      3.8043                 2.6295                 1.4976
 Frc consts  --      1.9683                 1.4798                 0.9182
 IR Inten    --     16.4090                27.9647                 3.7661

                     19                     20                     21
                      A                      A                      A
 Frequencies --   1055.5191              1065.4823              1074.4782
 Red. masses --      2.3257                 2.4085                 1.9084
 Frc consts  --      1.5266                 1.6110                 1.2981
 IR Inten    --     18.0977                 3.3810                 9.8863

                     22                     23                     24
                      A                      A                      A
 Frequencies --   1088.2686              1116.6205              1151.4826
 Red. masses --      5.0811                 2.5034                 4.6028
 Frc consts  --      3.5455                 1.8391                 3.5957
 IR Inten    --     80.3935                 4.9780                75.2963

                     25                     26                     27
                      A                      A                      A
 Frequencies --   1170.8060              1206.4162              1221.9203
 Red. masses --      2.6651                 1.1216                 1.2121
 Frc consts  --      2.1524                 0.9618                 1.0663
 IR Inten    --      5.0782                 3.1195                 2.6378

                     28                     29                     30
                      A                      A                      A
 Frequencies --   1235.1857              1293.4732              1306.6651
 Red. masses --      1.2839                 1.3208                 1.2747
 Frc consts  --      1.1541                 1.3019                 1.2823
 IR Inten    --      7.1788                10.8812                 4.5780

                     31                     32                     33
                      A                      A                      A
 Frequencies --   1324.8464              1337.5647              1358.6647
 Red. masses --      1.4641                 1.3908                 1.4706
 Frc consts  --      1.5141                 1.4660                 1.5995
 IR Inten    --      9.2115                 5.7061                21.8787

                     34                     35                     36
                      A                      A                      A
 Frequencies --   1371.7614              1406.6471              1421.8757
 Red. masses --      1.3465                 1.4207                 1.4052
 Frc consts  --      1.4928                 1.6563                 1.6739
 IR Inten    --      3.5729                 0.5017                 7.6789

                     37                     38                     39
                      A                      A                      A
 Frequencies --   1472.9181              1499.7225              1506.5927
 Red. masses --      1.0874                 1.0966                 1.0827
 Frc consts  --      1.3900                 1.4531                 1.4479
 IR Inten    --      2.4347                 1.7805                 0.1661

                     40                     41                     42
                      A                      A                      A
 Frequencies --   1520.3687              1768.1357              2932.6470
 Red. masses --      1.0945                 8.4371                 1.0803
 Frc consts  --      1.4906                15.5408                 5.4743
 IR Inten    --      1.7278                 1.1636                37.9781

                     43                     44                     45
                      A                      A                      A
 Frequencies --   2974.3016              2990.3740              2997.5663
 Red. masses --      1.0716                 1.0663                 1.0653
 Frc consts  --      5.5854                 5.6181                 5.6397
 IR Inten    --     54.2357                68.8083                45.7756

                     46                     47                     48
                      A                      A                      A
 Frequencies --   3010.5894              3032.3793              3042.2990
 Red. masses --      1.0615                 1.1003                 1.0981
 Frc consts  --      5.6685                 5.9611                 5.9881
 IR Inten    --     32.3200                33.6649                33.2358

                     49                     50                     51
                      A                      A                      A
 Frequencies --   3095.0937              3104.1486              3147.8488
 Red. masses --      1.0934                 1.0957                 1.0905
 Frc consts  --      6.1713                 6.2207                 6.3663
 IR Inten    --     37.3475                34.8399                19.7842

 - Thermochemistry -
 -------------------
 Temperature   298.150 Kelvin.  Pressure   1.00000 Atm.
 Atom     1 has atomic number  6 and mass  12.00000

 Molecular mass:   126.06808 amu.
 Principal axes and moments of inertia in atomic units:
                           1         2         3
     Eigenvalues --   536.093521247.374561675.85312
           X            0.99996  -0.00793  -0.00311
           Y            0.00789   0.99988  -0.01304
           Z            0.00322   0.01301   0.99991
 This molecule is an asymmetric top.
 Rotational symmetry number  1.
 Warning -- assumption of classical behavior for rotation
           may cause significant error
 Rotational temperatures (Kelvin)      0.16156     0.06944     0.05168
 Rotational constants (GHZ):           3.36647     1.44683     1.07691
 Zero-point vibrational energy     425427.3 (Joules/Mol)
                                  101.67956 (Kcal/Mol)
 Warning -- explicit consideration of   9 degrees of freedom as
           vibrations may cause significant error
 Vibrational temperatures:    139.37   243.92   330.57   407.56   485.76
          (Kelvin)            524.41   670.77   765.11   886.15   919.64
                             1019.70  1145.94  1230.23  1269.67  1311.30
                             1348.26  1406.14  1467.69  1518.65  1532.99
                             1545.93  1565.77  1606.57  1656.72  1684.53
                             1735.76  1758.07  1777.15  1861.02  1880.00
                             1906.16  1924.45  1954.81  1973.66  2023.85
                             2045.76  2119.20  2157.76  2167.65  2187.47
                             2543.95  4219.42  4279.35  4302.48  4312.82
                             4331.56  4362.91  4377.18  4453.14  4466.17
                             4529.05

 Zero-point correction=                           0.162037 (Hartree/Particle)
 Thermal correction to Energy=                    0.169439
 Thermal correction to Enthalpy=                  0.170383
 Thermal correction to Gibbs Free Energy=         0.130102
 Sum of electronic and zero-point Energies=           -423.031346
 Sum of electronic and thermal Energies=              -423.023943
 Sum of electronic and thermal Enthalpies=            -423.022999
 Sum of electronic and thermal Free Energies=         -423.063281

                     E (Thermal)             CV                S
                      KCal/Mol        Cal/Mol-Kelvin    Cal/Mol-Kelvin
 Total                  106.325             29.006             84.780
 Electronic               0.000              0.000              0.000
 Translational            0.889              2.981             40.409
 Rotational               0.889              2.981             28.507
 Vibrational            104.547             23.044             15.864
 Vibration     1          0.603              1.951              3.516
 Vibration     2          0.625              1.880              2.441
 Vibration     3          0.652              1.796              1.881
 Vibration     4          0.682              1.705              1.514
 Vibration     5          0.718              1.600              1.223
 Vibration     6          0.738              1.545              1.103
 Vibration     7          0.824              1.325              0.748
 Vibration     8          0.887              1.180              0.583
 Vibration     9          0.975              0.998              0.423

 Optimization completed.
    -- Stationary point found.
 Normal termination of Gaussian 09 at Mon Jan 27 13:27:56 2020.
