 Gaussian 09, Revision D.01,
 Gaussian 09:  ES64L-G09RevD.01 24-Apr-2013

 -----------------------------
 # b3lyp 6-31G(2df,p) opt Freq
 -----------------------------

 -----
 titel
 -----
 Symbolic Z-matrix:
 Charge =  0 Multiplicity = 1

 SCF Done:  E(RB3LYP) =  -423.194047780     A.U. after   13 cycles
 Optimization completed.
    -- Stationary point found.
 Normal termination of Gaussian 09 at Mon Jan 27 12:23:15 2020.

 ----------------------------------------------------------------------
 #N Geom=AllCheck Guess=TCheck SCRF=Check GenChk RB3LYP/6-31G(2df,p) Fr
 eq
 ----------------------------------------------------------------------

 Structure from the checkpoint file:  "/scratch/puck/g09_b49c7f97-6cbd-43c5-ba54-848865334eb6/Gau-52508.chk"
 -----
 titel
 -----
 Charge =  0 Multiplicity = 1

                         Standard orientation:
 ---------------------------------------------------------------------
 Center     Atomic      Atomic             Coordinates (Angstroms)
 Number     Number       Type             X           Y           Z
 ---------------------------------------------------------------------
      1          6           0       -1.735270    0.412979   -0.631760
      2          8           0       -1.191980   -0.884738   -0.856195
      3          6           0       -0.329314   -1.268272    0.206377
      4          6           0       -0.575543   -0.238503    1.313597
      5          6           0       -0.884752    1.030082    0.499010
      6          6           0        0.350256    1.694321   -0.052252
      7          6           0        1.516422    1.104267   -0.309945
      8          6           0        1.931343   -0.323665   -0.033324
      9          8           0        0.997982   -1.374556   -0.240836
     10          1           0       -1.688081    0.985025   -1.563873
     11          1           0       -2.789104    0.328698   -0.326899
     12          1           0       -0.604119   -2.289491    0.489506
     13          1           0       -1.454657   -0.538818    1.892053
     14          1           0        0.264441   -0.136020    2.002331
     15          1           0       -1.470120    1.755004    1.071611
     16          1           0        0.241299    2.746262   -0.308072
     17          1           0        2.314815    1.712497   -0.730422
     18          1           0        2.766949   -0.574680   -0.694088
     19          1           0        2.331713   -0.381378    0.993878
 ---------------------------------------------------------------------

 SCF Done:  E(RB3LYP) =  -423.194047780     A.U. after    1 cycles

 The electronic state is 1-A.
 Alpha  occ. eigenvalues --  -19.13525 -19.13158 -10.27202 -10.23383 -10.22658
 Alpha  occ. eigenvalues --  -10.19873 -10.18945 -10.18655 -10.18553  -1.05784
 Alpha  occ. eigenvalues --   -1.00173  -0.81990  -0.77036  -0.72463  -0.69239
 Alpha  occ. eigenvalues --   -0.60941  -0.58026  -0.53081  -0.51922  -0.50706
 Alpha  occ. eigenvalues --   -0.46095  -0.45734  -0.43935  -0.42278  -0.41293
 Alpha  occ. eigenvalues --   -0.40505  -0.36763  -0.35437  -0.33214  -0.33015
 Alpha  occ. eigenvalues --   -0.29592  -0.27006  -0.25421  -0.24659
 Alpha virt. eigenvalues --    0.01065   0.07700   0.10615   0.11588   0.13607
 Alpha virt. eigenvalues --    0.14072   0.14994   0.16156   0.16206   0.16914
 Alpha virt. eigenvalues --    0.18106   0.18633   0.19521   0.20899   0.22406

 Mulliken charges:
               1
     1  C   -0.064890
     2  O   -0.258818
     3  C    0.231412
     4  C   -0.299780
     5  C   -0.083111
     6  C   -0.066843
     7  C   -0.066035
     8  C   -0.125432
     9  O   -0.256743
    10  H    0.107779
    11  H    0.089915
    12  H    0.086598
    13  H    0.108271
    14  H    0.115720
    15  H    0.075724
    16  H    0.088774
    17  H    0.093402
    18  H    0.118322
    19  H    0.105735
 Sum of Mulliken charges =   0.00000

 Dipole moment (field-independent basis, Debye):
    X=             -0.0433    Y=              1.9405    Z=              1.7277  Tot=              2.5985
 Quadrupole moment (field-independent basis, Debye-Ang):
   XX=            -49.7078   YY=            -54.0714   ZZ=            -54.0137
   XY=             -0.3436   XZ=             -1.7807   YZ=             -3.3321

  Exact polarizability:  90.096  -3.475  75.375  -3.526  -3.993  61.589
 Approx polarizability: 131.555 -10.195 110.705  -5.309  -1.562  93.961

                      1                      2                      3
                      A                      A                      A
 Frequencies --     87.2149               150.6207               251.2096
 Red. masses --      5.8827                 2.1742                 2.3484
 Frc consts  --      0.0264                 0.0291                 0.0873
 IR Inten    --      1.7794                 2.3784                 0.4530

                      4                      5                      6
                      A                      A                      A
 Frequencies --    336.1676               401.4016               421.2332
 Red. masses --      2.8991                 3.7464                 2.9072
 Frc consts  --      0.1930                 0.3557                 0.3039
 IR Inten    --      0.6114                 0.1815                 3.8512

                      7                      8                      9
                      A                      A                      A
 Frequencies --    489.6802               535.2313               657.5017
 Red. masses --      4.6497                 2.8985                 1.8799
 Frc consts  --      0.6569                 0.4892                 0.4788
 IR Inten    --      2.9678                 1.2640                 6.5421

                     10                     11                     12
                      A                      A                      A
 Frequencies --    742.6834               782.8747               814.2984
 Red. masses --      3.5403                 3.6778                 2.8745
 Frc consts  --      1.1505                 1.3281                 1.1230
 IR Inten    --      6.0780                20.3501                 4.8182

                     13                     14                     15
                      A                      A                      A
 Frequencies --    835.4981               850.7898               896.3268
 Red. masses --      2.5949                 3.8722                 2.9548
 Frc consts  --      1.0672                 1.6514                 1.3987
 IR Inten    --     14.2777                 9.1272                11.2478

                     16                     17                     18
                      A                      A                      A
 Frequencies --    924.3649               939.1998               991.6293
 Red. masses --      3.0162                 2.5873                 1.9737
 Frc consts  --      1.5184                 1.3447                 1.1435
 IR Inten    --     18.0829                55.5827                 4.7677

                     19                     20                     21
                      A                      A                      A
 Frequencies --    997.3626              1014.6089              1033.2207
 Red. masses --      1.4468                 2.2502                 1.8289
 Frc consts  --      0.8479                 1.3648                 1.1503
 IR Inten    --      7.5335                41.9357                12.3001

                     22                     23                     24
                      A                      A                      A
 Frequencies --   1043.2052              1080.3575              1108.5741
 Red. masses --      2.0336                 3.7477                 1.6176
 Frc consts  --      1.3039                 2.5772                 1.1712
 IR Inten    --     18.1524                99.4062                13.9356

                     25                     26                     27
                      A                      A                      A
 Frequencies --   1148.9728              1202.9218              1224.7572
 Red. masses --      2.2873                 1.5927                 1.3673
 Frc consts  --      1.7791                 1.3578                 1.2084
 IR Inten    --     68.1580                53.1851                 5.6816

                     28                     29                     30
                      A                      A                      A
 Frequencies --   1233.1206              1266.9352              1291.1160
 Red. masses --      1.2922                 1.2726                 1.1016
 Frc consts  --      1.1577                 1.2035                 1.0819
 IR Inten    --      3.6667                17.2981                 4.8721

                     31                     32                     33
                      A                      A                      A
 Frequencies --   1316.7472              1328.3720              1375.1090
 Red. masses --      1.5212                 1.3882                 1.3556
 Frc consts  --      1.5540                 1.4432                 1.5102
 IR Inten    --      4.7250                 6.1432                 5.9689

                     34                     35                     36
                      A                      A                      A
 Frequencies --   1389.7773              1408.3493              1421.9206
 Red. masses --      1.5057                 1.1882                 1.2600
 Frc consts  --      1.7135                 1.3885                 1.5009
 IR Inten    --      5.9603                 1.0083                11.4391

                     37                     38                     39
                      A                      A                      A
 Frequencies --   1423.3965              1483.5494              1504.3394
 Red. masses --      1.5041                 1.1040                 1.0801
 Frc consts  --      1.7955                 1.4316                 1.4402
 IR Inten    --      2.8659                 7.2094                 5.7792

                     40                     41                     42
                      A                      A                      A
 Frequencies --   1524.0042              1729.1661              2950.4030
 Red. masses --      1.0903                 6.9639                 1.0736
 Frc consts  --      1.4921                12.2680                 5.5060
 IR Inten    --      0.7600                 1.5968                51.3952

                     43                     44                     45
                      A                      A                      A
 Frequencies --   2989.3669              3053.3071              3062.5223
 Red. masses --      1.0686                 1.0773                 1.0807
 Frc consts  --      5.6262                 5.9176                 5.9717
 IR Inten    --     78.8760                12.7264                51.1162

                     46                     47                     48
                      A                      A                      A
 Frequencies --   3068.8794              3071.3771              3073.5446
 Red. masses --      1.0868                 1.0944                 1.0812
 Frc consts  --      6.0306                 6.0826                 6.0176
 IR Inten    --     38.6893                18.2351                45.9132

                     49                     50                     51
                      A                      A                      A
 Frequencies --   3124.2332              3135.0929              3158.5905
 Red. masses --      1.1003                 1.0832                 1.0953
 Frc consts  --      6.3278                 6.2728                 6.4383
 IR Inten    --     13.8868                 7.7327                30.4815

 - Thermochemistry -
 -------------------
 Temperature   298.150 Kelvin.  Pressure   1.00000 Atm.
 Atom     1 has atomic number  6 and mass  12.00000

 Molecular mass:   126.06808 amu.
 Principal axes and moments of inertia in atomic units:
                           1         2         3
     Eigenvalues --   732.21086 906.177091236.21968
           X            0.99972  -0.01976  -0.01313
           Y            0.01915   0.99882  -0.04469
           Z            0.01399   0.04443   0.99891
 This molecule is an asymmetric top.
 Rotational symmetry number  1.
 Warning -- assumption of classical behavior for rotation
           may cause significant error
 Rotational temperatures (Kelvin)      0.11829     0.09558     0.07006
 Rotational constants (GHZ):           2.46478     1.99160     1.45989
 Zero-point vibrational energy     426738.6 (Joules/Mol)
                                  101.99298 (Kcal/Mol)
 Warning -- explicit consideration of   8 degrees of freedom as
           vibrations may cause significant error
 Vibrational temperatures:    125.48   216.71   361.43   483.67   577.53
          (Kelvin)            606.06   704.54   770.08   946.00  1068.55
                             1126.38  1171.59  1202.09  1224.10  1289.61
                             1329.95  1351.30  1426.73  1434.98  1459.79
                             1486.57  1500.94  1554.39  1594.99  1653.11
                             1730.73  1762.15  1774.18  1822.83  1857.63
                             1894.50  1911.23  1978.47  1999.58  2026.30
                             2045.82  2047.95  2134.49  2164.41  2192.70
                             2487.88  4244.97  4301.03  4393.02  4406.28
                             4415.43  4419.02  4422.14  4495.07  4510.69
                             4544.50

 Zero-point correction=                           0.162536 (Hartree/Particle)
 Thermal correction to Energy=                    0.169720
 Thermal correction to Enthalpy=                  0.170664
 Thermal correction to Gibbs Free Energy=         0.130850
 Sum of electronic and zero-point Energies=           -423.031512
 Sum of electronic and thermal Energies=              -423.024328
 Sum of electronic and thermal Enthalpies=            -423.023384
 Sum of electronic and thermal Free Energies=         -423.063197

                     E (Thermal)             CV                S
                      KCal/Mol        Cal/Mol-Kelvin    Cal/Mol-Kelvin
 Total                  106.501             28.639             83.795
 Electronic               0.000              0.000              0.000
 Translational            0.889              2.981             40.409
 Rotational               0.889              2.981             28.197
 Vibrational            104.723             22.678             15.189
 Vibration     1          0.601              1.958              3.722
 Vibration     2          0.618              1.902              2.664
 Vibration     3          0.663              1.761              1.722
 Vibration     4          0.717              1.603              1.230
 Vibration     5          0.767              1.467              0.958
 Vibration     6          0.784              1.424              0.888
 Vibration     7          0.846              1.273              0.684
 Vibration     8          0.890              1.172              0.576

 Optimization completed.
    -- Stationary point found.
 Normal termination of Gaussian 09 at Mon Jan 27 13:15:06 2020.
