 Gaussian 09, Revision D.01,
 Gaussian 09:  ES64L-G09RevD.01 24-Apr-2013

 -----------------------------
 # b3lyp 6-31G(2df,p) opt Freq
 -----------------------------

 -----
 titel
 -----
 Symbolic Z-matrix:
 Charge =  0 Multiplicity = 1

 SCF Done:  E(RB3LYP) =  -423.181255947     A.U. after   14 cycles
 Optimization completed.
    -- Stationary point found.
 Normal termination of Gaussian 09 at Tue Jan 28 02:19:41 2020.

 ----------------------------------------------------------------------
 #N Geom=AllCheck Guess=TCheck SCRF=Check GenChk RB3LYP/6-31G(2df,p) Fr
 eq
 ----------------------------------------------------------------------

 Structure from the checkpoint file:  "/scratch/puck/g09_940ef367-0f40-4a60-8ffd-49729e3182fd/Gau-112274.chk"
 -----
 titel
 -----
 Charge =  0 Multiplicity = 1

                         Standard orientation:
 ---------------------------------------------------------------------
 Center     Atomic      Atomic             Coordinates (Angstroms)
 Number     Number       Type             X           Y           Z
 ---------------------------------------------------------------------
      1          6           0       -2.833518    0.034021   -0.296716
      2          6           0       -1.549791   -0.500639    0.328104
      3          6           0       -0.724984    0.577881    1.094960
      4          6           0        0.374577    0.587946   -0.002561
      5          8           0        0.632860    1.835955   -0.537561
      6          6           0       -0.384786   -0.684623   -0.670068
      7          6           0        0.759222   -1.607477   -0.159444
      8          6           0        1.560353   -0.340490    0.179456
      9          8           0        2.736219   -0.087799    0.185077
     10          1           0       -3.562696    0.304121    0.474831
     11          1           0       -2.634736    0.929243   -0.896688
     12          1           0       -3.294761   -0.712857   -0.952095
     13          1           0       -1.767409   -1.401536    0.911560
     14          1           0       -1.215682    1.553015    1.138646
     15          1           0       -0.383440    0.315956    2.099360
     16          1           0        1.549221    1.836016   -0.844898
     17          1           0       -0.601708   -0.745179   -1.736479
     18          1           0        0.497189   -2.238077    0.694993
     19          1           0        1.254955   -2.225665   -0.911745
 ---------------------------------------------------------------------

 SCF Done:  E(RB3LYP) =  -423.181255947     A.U. after    1 cycles

 The electronic state is 1-A.
 Alpha  occ. eigenvalues --  -19.15308 -19.14101 -10.26893 -10.24416 -10.19865
 Alpha  occ. eigenvalues --  -10.19722 -10.19673 -10.19097 -10.18035  -1.05654
 Alpha  occ. eigenvalues --   -1.03189  -0.87550  -0.77370  -0.71379  -0.64673
 Alpha  occ. eigenvalues --   -0.63210  -0.57561  -0.54296  -0.49530  -0.48359
 Alpha  occ. eigenvalues --   -0.46114  -0.45125  -0.41889  -0.41618  -0.40188
 Alpha  occ. eigenvalues --   -0.39240  -0.38720  -0.36455  -0.35399  -0.33592
 Alpha  occ. eigenvalues --   -0.32075  -0.30829  -0.25918  -0.24329
 Alpha virt. eigenvalues --   -0.02276   0.07556   0.09494   0.09933   0.10473
 Alpha virt. eigenvalues --    0.11773   0.14667   0.15192   0.15465   0.16489
 Alpha virt. eigenvalues --    0.17219   0.18036   0.19924   0.21161   0.22448

 Mulliken charges:
               1
     1  C   -0.413005
     2  C    0.034020
     3  C   -0.300346
     4  C    0.330162
     5  O   -0.471880
     6  C   -0.104914
     7  C   -0.365218
     8  C    0.315851
     9  O   -0.322668
    10  H    0.117142
    11  H    0.127302
    12  H    0.115332
    13  H    0.069480
    14  H    0.125817
    15  H    0.108463
    16  H    0.293903
    17  H    0.081676
    18  H    0.124868
    19  H    0.134013
 Sum of Mulliken charges =   0.00000

 Dipole moment (field-independent basis, Debye):
    X=             -2.0132    Y=             -1.2746    Z=             -0.2112  Tot=              2.3922
 Quadrupole moment (field-independent basis, Debye-Ang):
   XX=            -59.7667   YY=            -53.5878   ZZ=            -51.0417
   XY=              0.9996   XZ=             -2.5217   YZ=              0.0057

  Exact polarizability:  90.789   0.484  74.556  -0.799   1.240  63.952
 Approx polarizability: 127.792   4.260 111.931   0.191   0.475  98.343

                      1                      2                      3
                      A                      A                      A
 Frequencies --     58.9796               105.4895               220.6343
 Red. masses --      3.8046                 3.8283                 2.8242
 Frc consts  --      0.0078                 0.0251                 0.0810
 IR Inten    --      1.8588                 5.7559                26.5506

                      4                      5                      6
                      A                      A                      A
 Frequencies --    249.3930               260.2644               328.6866
 Red. masses --      1.8171                 1.2504                 3.8862
 Frc consts  --      0.0666                 0.0499                 0.2474
 IR Inten    --      1.2434                 0.7501                 3.3011

                      7                      8                      9
                      A                      A                      A
 Frequencies --    330.8264               386.0711               398.6009
 Red. masses --      1.8479                 2.0532                 2.2281
 Frc consts  --      0.1192                 0.1803                 0.2086
 IR Inten    --     21.9766                22.0522                11.9485

                     10                     11                     12
                      A                      A                      A
 Frequencies --    480.5422               510.4766               649.6027
 Red. masses --      2.9902                 2.2047                 2.8360
 Frc consts  --      0.4068                 0.3385                 0.7051
 IR Inten    --      2.4218                 3.4207                 0.7409

                     13                     14                     15
                      A                      A                      A
 Frequencies --    689.2745               758.9694               784.3355
 Red. masses --      4.1825                 2.9261                 2.2558
 Frc consts  --      1.1708                 0.9931                 0.8176
 IR Inten    --      4.7863                 2.7183                 2.4524

                     16                     17                     18
                      A                      A                      A
 Frequencies --    845.1261               878.9488               893.8252
 Red. masses --      2.8210                 2.6660                 2.3100
 Frc consts  --      1.1871                 1.2135                 1.0873
 IR Inten    --      7.0039                 3.3525                 8.2078

                     19                     20                     21
                      A                      A                      A
 Frequencies --    952.5617               978.9887              1004.8519
 Red. masses --      1.6821                 1.9734                 1.7182
 Frc consts  --      0.8993                 1.1144                 1.0222
 IR Inten    --      4.7546                 5.0662                17.1089

                     22                     23                     24
                      A                      A                      A
 Frequencies --   1027.4864              1048.8125              1078.8414
 Red. masses --      2.4578                 2.0636                 1.8213
 Frc consts  --      1.5288                 1.3374                 1.2490
 IR Inten    --      1.6486                24.7051                 4.2539

                     25                     26                     27
                      A                      A                      A
 Frequencies --   1109.6272              1118.6434              1166.1096
 Red. masses --      1.7460                 1.8101                 1.8537
 Frc consts  --      1.2666                 1.3346                 1.4851
 IR Inten    --     44.4786                38.5013                50.9460

                     28                     29                     30
                      A                      A                      A
 Frequencies --   1196.6246              1209.9264              1245.2465
 Red. masses --      1.7475                 1.5264                 1.5601
 Frc consts  --      1.4743                 1.3166                 1.4254
 IR Inten    --      0.6248                 2.1529                 1.0965

                     31                     32                     33
                      A                      A                      A
 Frequencies --   1268.7270              1282.0340              1337.9894
 Red. masses --      1.4361                 1.4678                 3.6559
 Frc consts  --      1.3619                 1.4214                 3.8562
 IR Inten    --      3.8880                 4.0173                44.9624

                     34                     35                     36
                      A                      A                      A
 Frequencies --   1364.4623              1383.1764              1411.9312
 Red. masses --      1.5637                 1.4850                 1.2457
 Frc consts  --      1.7153                 1.6739                 1.4632
 IR Inten    --      8.1476                55.4584                 2.0882

                     37                     38                     39
                      A                      A                      A
 Frequencies --   1447.7588              1472.6011              1495.6497
 Red. masses --      1.0999                 1.1075                 1.0438
 Frc consts  --      1.3583                 1.4150                 1.3757
 IR Inten    --     14.0148                 3.4105                 4.3684

                     40                     41                     42
                      A                      A                      A
 Frequencies --   1500.5810              1850.3300              3025.6227
 Red. masses --      1.0503                12.6182                 1.0347
 Frc consts  --      1.3934                25.4535                 5.5810
 IR Inten    --      1.7996               309.3940                24.2125

                     43                     44                     45
                      A                      A                      A
 Frequencies --   3042.1906              3062.1180              3064.5256
 Red. masses --      1.0845                 1.0596                 1.0600
 Frc consts  --      5.9138                 5.8540                 5.8653
 IR Inten    --     21.9399                11.0572                22.4479

                     46                     47                     48
                      A                      A                      A
 Frequencies --   3096.0681              3097.0463              3111.7769
 Red. masses --      1.1016                 1.1015                 1.0964
 Frc consts  --      6.2217                 6.2249                 6.2549
 IR Inten    --     27.5591                26.6490                 7.0483

                     49                     50                     51
                      A                      A                      A
 Frequencies --   3121.0206              3123.4183              3760.4768
 Red. masses --      1.1067                 1.0989                 1.0656
 Frc consts  --      6.3513                 6.3163                 8.8783
 IR Inten    --      8.2610                23.4526                34.9032

 - Thermochemistry -
 -------------------
 Temperature   298.150 Kelvin.  Pressure   1.00000 Atm.
 Atom     1 has atomic number  6 and mass  12.00000

 Molecular mass:   126.06808 amu.
 Principal axes and moments of inertia in atomic units:
                           1         2         3
     Eigenvalues --   588.418461350.389731641.84532
           X            0.99998  -0.00519  -0.00360
           Y            0.00525   0.99985   0.01653
           Z            0.00352  -0.01655   0.99986
 This molecule is an asymmetric top.
 Rotational symmetry number  1.
 Warning -- assumption of classical behavior for rotation
           may cause significant error
 Rotational temperatures (Kelvin)      0.14720     0.06414     0.05275
 Rotational constants (GHZ):           3.06710     1.33646     1.09922
 Zero-point vibrational energy     414429.9 (Joules/Mol)
                                   99.05113 (Kcal/Mol)
 Warning -- explicit consideration of  11 degrees of freedom as
           vibrations may cause significant error
 Vibrational temperatures:     84.86   151.78   317.44   358.82   374.46
          (Kelvin)            472.91   475.98   555.47   573.50   691.39
                              734.46   934.63   991.71  1091.99  1128.48
                             1215.95  1264.61  1286.01  1370.52  1408.54
                             1445.76  1478.32  1509.01  1552.21  1596.50
                             1609.48  1677.77  1721.67  1740.81  1791.63
                             1825.41  1844.56  1925.07  1963.15  1990.08
                             2031.45  2083.00  2118.74  2151.90  2159.00
                             2662.21  4353.19  4377.03  4405.70  4409.16
                             4454.55  4455.95  4477.15  4490.45  4493.90
                             5410.48

 Zero-point correction=                           0.157848 (Hartree/Particle)
 Thermal correction to Energy=                    0.166578
 Thermal correction to Enthalpy=                  0.167523
 Thermal correction to Gibbs Free Energy=         0.124410
 Sum of electronic and zero-point Energies=           -423.023408
 Sum of electronic and thermal Energies=              -423.014678
 Sum of electronic and thermal Enthalpies=            -423.013733
 Sum of electronic and thermal Free Energies=         -423.056846

                     E (Thermal)             CV                S
                      KCal/Mol        Cal/Mol-Kelvin    Cal/Mol-Kelvin
 Total                  104.529             33.373             90.738
 Electronic               0.000              0.000              0.000
 Translational            0.889              2.981             40.409
 Rotational               0.889              2.981             28.658
 Vibrational            102.752             27.411             21.672
 Vibration     1          0.596              1.974              4.491
 Vibration     2          0.605              1.945              3.350
 Vibration     3          0.647              1.810              1.954
 Vibration     4          0.662              1.764              1.735
 Vibration     5          0.668              1.745              1.660
 Vibration     6          0.712              1.618              1.267
 Vibration     7          0.713              1.614              1.256
 Vibration     8          0.755              1.500              1.015
 Vibration     9          0.765              1.473              0.968
 Vibration    10          0.837              1.293              0.709
 Vibration    11          0.866              1.227              0.632

 Normal termination of Gaussian 09 at Tue Jan 28 03:02:45 2020.
