 Gaussian 09, Revision D.01,
 Gaussian 09:  ES64L-G09RevD.01 24-Apr-2013

 -----------------------------
 # b3lyp 6-31G(2df,p) opt Freq
 -----------------------------

 -----
 titel
 -----
 Symbolic Z-matrix:
 Charge =  0 Multiplicity = 1

 SCF Done:  E(RB3LYP) =  -423.172345684     A.U. after   14 cycles
 Optimization completed.
    -- Stationary point found.
 Normal termination of Gaussian 09 at Tue Jan 28 12:12:36 2020.

 ----------------------------------------------------------------------
 #N Geom=AllCheck Guess=TCheck SCRF=Check GenChk RB3LYP/6-31G(2df,p) Fr
 eq
 ----------------------------------------------------------------------

 Structure from the checkpoint file:  "/scratch/puck/g09_9becb077-058c-402b-87e8-2f0e832f9888/Gau-54398.chk"
 -----
 titel
 -----
 Charge =  0 Multiplicity = 1

                         Standard orientation:
 ---------------------------------------------------------------------
 Center     Atomic      Atomic             Coordinates (Angstroms)
 Number     Number       Type             X           Y           Z
 ---------------------------------------------------------------------
      1          8           0       -2.351263   -0.573737   -0.653056
      2          6           0       -1.806341    0.551114    0.016381
      3          6           0       -0.323436    0.376924    0.311408
      4          6           0        0.511050    1.643498    0.630153
      5          8           0        1.483306    1.300846   -0.377239
      6          6           0        0.672393    0.207498   -0.871603
      7          6           0        1.357977   -1.158403   -0.730432
      8          6           0        0.889448   -1.633504    0.627259
      9          6           0       -0.004802   -0.813071    1.183405
     10          1           0       -2.101039   -1.356553   -0.148878
     11          1           0       -1.960369    1.404345   -0.652808
     12          1           0       -2.350527    0.767849    0.952036
     13          1           0        0.000633    2.590078    0.401472
     14          1           0        0.954990    1.705102    1.630135
     15          1           0        0.293145    0.413831   -1.877795
     16          1           0        1.074401   -1.855818   -1.529128
     17          1           0        2.446549   -1.036914   -0.780645
     18          1           0        1.265430   -2.541465    1.087529
     19          1           0       -0.457299   -0.951661    2.161016
 ---------------------------------------------------------------------

 SCF Done:  E(RB3LYP) =  -423.172345684     A.U. after    1 cycles

 The electronic state is 1-A.
 Alpha  occ. eigenvalues --  -19.13597 -19.13081 -10.23031 -10.23026 -10.23026
 Alpha  occ. eigenvalues --  -10.19818 -10.19479 -10.18873 -10.18760  -1.03761
 Alpha  occ. eigenvalues --   -1.01723  -0.83739  -0.75813  -0.70860  -0.65823
 Alpha  occ. eigenvalues --   -0.65021  -0.56223  -0.53497  -0.52052  -0.48544
 Alpha  occ. eigenvalues --   -0.47844  -0.45038  -0.44008  -0.42409  -0.40395
 Alpha  occ. eigenvalues --   -0.38416  -0.38123  -0.36158  -0.33471  -0.31775
 Alpha  occ. eigenvalues --   -0.30322  -0.27037  -0.25365  -0.24752
 Alpha virt. eigenvalues --    0.00503   0.08446   0.09109   0.10482   0.12021
 Alpha virt. eigenvalues --    0.13048   0.13889   0.14402   0.15156   0.16203
 Alpha virt. eigenvalues --    0.17152   0.17548   0.19301   0.21139   0.22027

 Mulliken charges:
               1
     1  O   -0.421994
     2  C   -0.142733
     3  C    0.215028
     4  C   -0.122463
     5  O   -0.297141
     6  C    0.100962
     7  C   -0.284146
     8  C   -0.061490
     9  C   -0.170969
    10  H    0.282545
    11  H    0.109390
    12  H    0.085247
    13  H    0.093730
    14  H    0.102145
    15  H    0.079627
    16  H    0.110101
    17  H    0.124582
    18  H    0.100785
    19  H    0.096793
 Sum of Mulliken charges =   0.00000

 Dipole moment (field-independent basis, Debye):
    X=             -0.2022    Y=             -1.0278    Z=              1.5252  Tot=              1.8503
 Quadrupole moment (field-independent basis, Debye-Ang):
   XX=            -59.6822   YY=            -50.3265   ZZ=            -52.1040
   XY=             -4.0548   XZ=             -2.7423   YZ=              0.2574

  Exact polarizability:  74.672  -9.058  81.568  -4.602   2.835  71.228
 Approx polarizability: 110.323 -13.645 118.859  -9.345   7.361 109.192

                      1                      2                      3
                      A                      A                      A
 Frequencies --    108.9808               112.3733               175.1408
 Red. masses --      4.3455                 3.5583                 3.5983
 Frc consts  --      0.0304                 0.0265                 0.0650
 IR Inten    --      4.5240                 1.7438                 3.0714

                      4                      5                      6
                      A                      A                      A
 Frequencies --    244.2179               300.3133               353.4663
 Red. masses --      1.9887                 1.8840                 1.3646
 Frc consts  --      0.0699                 0.1001                 0.1005
 IR Inten    --      4.2822                25.4396                87.0665

                      7                      8                      9
                      A                      A                      A
 Frequencies --    386.1960               431.0880               486.8954
 Red. masses --      2.8250                 2.5345                 2.8238
 Frc consts  --      0.2482                 0.2775                 0.3944
 IR Inten    --     11.5190                10.5197                 1.6741

                     10                     11                     12
                      A                      A                      A
 Frequencies --    621.4952               699.2225               758.8863
 Red. masses --      4.0196                 3.1203                 2.0266
 Frc consts  --      0.9148                 0.8988                 0.6876
 IR Inten    --      1.2641                 1.2177                16.2922

                     13                     14                     15
                      A                      A                      A
 Frequencies --    770.3489               856.3095               878.9139
 Red. masses --      2.6454                 2.3589                 3.1765
 Frc consts  --      0.9250                 1.0191                 1.4458
 IR Inten    --     12.8953                14.6458                15.9695

                     16                     17                     18
                      A                      A                      A
 Frequencies --    910.4168               938.6326               960.7346
 Red. masses --      1.9113                 2.4205                 1.4492
 Frc consts  --      0.9334                 1.2565                 0.7881
 IR Inten    --      5.0771                 8.0436                 8.5943

                     19                     20                     21
                      A                      A                      A
 Frequencies --    979.2235              1011.6121              1023.8196
 Red. masses --      1.3576                 3.4099                 2.4542
 Frc consts  --      0.7670                 2.0560                 1.5157
 IR Inten    --      2.1759                36.8381                11.4224

                     22                     23                     24
                      A                      A                      A
 Frequencies --   1046.6204              1066.1874              1088.6838
 Red. masses --      3.1396                 4.3470                 2.2135
 Frc consts  --      2.0263                 2.9115                 1.5458
 IR Inten    --     10.4214                82.1420                21.0419

                     25                     26                     27
                      A                      A                      A
 Frequencies --   1125.6762              1147.5247              1166.7147
 Red. masses --      1.6684                 1.4669                 1.2127
 Frc consts  --      1.2456                 1.1381                 0.9726
 IR Inten    --     12.4906                 2.1267                15.5490

                     28                     29                     30
                      A                      A                      A
 Frequencies --   1174.7847              1207.2301              1268.3125
 Red. masses --      1.2350                 1.7669                 2.0671
 Frc consts  --      1.0042                 1.5172                 1.9592
 IR Inten    --      4.7476                 4.6557                 4.1000

                     31                     32                     33
                      A                      A                      A
 Frequencies --   1284.0136              1310.8030              1330.3238
 Red. masses --      1.5462                 1.4670                 1.5838
 Frc consts  --      1.5020                 1.4851                 1.6515
 IR Inten    --     11.5759                 6.8843                 4.0498

                     34                     35                     36
                      A                      A                      A
 Frequencies --   1356.7945              1365.5667              1395.0728
 Red. masses --      1.4132                 1.2979                 1.7867
 Frc consts  --      1.5328                 1.4260                 2.0488
 IR Inten    --      3.2928                 5.8360                 1.1376

                     37                     38                     39
                      A                      A                      A
 Frequencies --   1429.1035              1463.8408              1508.4508
 Red. masses --      1.2666                 1.0965                 1.0824
 Frc consts  --      1.5241                 1.3843                 1.4511
 IR Inten    --     53.9582                 4.1314                 0.5924

                     40                     41                     42
                      A                      A                      A
 Frequencies --   1519.9609              1670.8842              2954.9136
 Red. masses --      1.1030                 6.4070                 1.0714
 Frc consts  --      1.5014                10.5390                 5.5119
 IR Inten    --      0.7688                 2.4290                63.9254

                     43                     44                     45
                      A                      A                      A
 Frequencies --   2996.0253              3023.8538              3054.2294
 Red. masses --      1.0612                 1.0631                 1.0873
 Frc consts  --      5.6123                 5.7273                 5.9760
 IR Inten    --     84.4760                23.0904                42.5433

                     46                     47                     48
                      A                      A                      A
 Frequencies --   3058.5233              3065.7106              3069.2898
 Red. masses --      1.1018                 1.0994                 1.0912
 Frc consts  --      6.0728                 6.0882                 6.0565
 IR Inten    --     20.3358                17.3770                47.6782

                     49                     50                     51
                      A                      A                      A
 Frequencies --   3168.2199              3196.5624              3789.3185
 Red. masses --      1.0851                 1.1020                 1.0657
 Frc consts  --      6.4170                 6.6342                 9.0160
 IR Inten    --      5.4934                20.7046                20.3051

 - Thermochemistry -
 -------------------
 Temperature   298.150 Kelvin.  Pressure   1.00000 Atm.
 Atom     1 has atomic number  8 and mass  15.99491

 Molecular mass:   126.06808 amu.
 Principal axes and moments of inertia in atomic units:
                           1         2         3
     Eigenvalues --   788.873071062.183621361.13161
           X            0.99545  -0.09345  -0.01851
           Y            0.09388   0.99530   0.02364
           Z            0.01622  -0.02527   0.99955
 This molecule is an asymmetric top.
 Rotational symmetry number  1.
 Warning -- assumption of classical behavior for rotation
           may cause significant error
 Rotational temperatures (Kelvin)      0.10979     0.08154     0.06363
 Rotational constants (GHZ):           2.28775     1.69909     1.32591
 Zero-point vibrational energy     420556.1 (Joules/Mol)
                                  100.51531 (Kcal/Mol)
 Warning -- explicit consideration of   9 degrees of freedom as
           vibrations may cause significant error
 Vibrational temperatures:    156.80   161.68   251.99   351.37   432.08
          (Kelvin)            508.56   555.65   620.24   700.53   894.19
                             1006.02  1091.87  1108.36  1232.04  1264.56
                             1309.89  1350.48  1382.28  1408.88  1455.48
                             1473.05  1505.85  1534.00  1566.37  1619.59
                             1651.03  1678.64  1690.25  1736.93  1824.82
                             1847.41  1885.95  1914.04  1952.12  1964.74
                             2007.20  2056.16  2106.14  2170.32  2186.88
                             2404.03  4251.46  4310.61  4350.65  4394.35
                             4400.53  4410.87  4416.02  4558.36  4599.13
                             5451.98

 Zero-point correction=                           0.160181 (Hartree/Particle)
 Thermal correction to Energy=                    0.168242
 Thermal correction to Enthalpy=                  0.169186
 Thermal correction to Gibbs Free Energy=         0.127581
 Sum of electronic and zero-point Energies=           -423.012164
 Sum of electronic and thermal Energies=              -423.004104
 Sum of electronic and thermal Enthalpies=            -423.003160
 Sum of electronic and thermal Free Energies=         -423.044765

                     E (Thermal)             CV                S
                      KCal/Mol        Cal/Mol-Kelvin    Cal/Mol-Kelvin
 Total                  105.573             31.107             87.565
 Electronic               0.000              0.000              0.000
 Translational            0.889              2.981             40.409
 Rotational               0.889              2.981             28.524
 Vibrational            103.796             25.145             18.632
 Vibration     1          0.606              1.942              3.287
 Vibration     2          0.607              1.939              3.228
 Vibration     3          0.627              1.873              2.380
 Vibration     4          0.660              1.772              1.772
 Vibration     5          0.693              1.673              1.415
 Vibration     6          0.730              1.568              1.151
 Vibration     7          0.755              1.500              1.015
 Vibration     8          0.792              1.403              0.855
 Vibration     9          0.843              1.279              0.692

 Optimization completed.
    -- Stationary point found.
 Normal termination of Gaussian 09 at Tue Jan 28 13:00:27 2020.
