 Gaussian 09, Revision D.01,
 Gaussian 09:  ES64L-G09RevD.01 24-Apr-2013

 -----------------------------
 # b3lyp 6-31G(2df,p) opt Freq
 -----------------------------

 -----
 titel
 -----
 Symbolic Z-matrix:
 Charge =  0 Multiplicity = 1

 SCF Done:  E(RB3LYP) =  -423.152651649     A.U. after   13 cycles
 Optimization completed.
    -- Stationary point found.
 Normal termination of Gaussian 09 at Mon Jan 27 11:27:13 2020.

 ----------------------------------------------------------------------
 #N Geom=AllCheck Guess=TCheck SCRF=Check GenChk RB3LYP/6-31G(2df,p) Fr
 eq
 ----------------------------------------------------------------------

 Structure from the checkpoint file:  "/scratch/puck/g09_1a47906f-fa27-4ce3-835d-432ed7289618/Gau-61266.chk"
 -----
 titel
 -----
 Charge =  0 Multiplicity = 1

                         Standard orientation:
 ---------------------------------------------------------------------
 Center     Atomic      Atomic             Coordinates (Angstroms)
 Number     Number       Type             X           Y           Z
 ---------------------------------------------------------------------
      1          6           0       -1.674418   -0.438017    0.672917
      2          8           0       -1.244266   -1.523988   -0.155675
      3          6           0        0.030226   -1.345806   -0.749893
      4          6           0        1.066585   -0.960595    0.280897
      5          8           0        2.266730   -0.337869   -0.168453
      6          6           0        1.346046    0.448946    0.604143
      7          6           0        0.729266    1.644023   -0.112397
      8          6           0       -0.762131    1.732300   -0.331797
      9          6           0       -1.757723    0.894549   -0.032861
     10          1           0       -2.669960   -0.736709    1.010202
     11          1           0       -1.037998   -0.365939    1.563962
     12          1           0        0.279435   -2.310617   -1.202924
     13          1           0        0.006483   -0.593380   -1.549122
     14          1           0        1.209438   -1.697227    1.074420
     15          1           0        1.700264    0.650844    1.615451
     16          1           0        1.047009    2.557372    0.408835
     17          1           0        1.210070    1.706743   -1.097790
     18          1           0       -1.037308    2.645673   -0.859467
     19          1           0       -2.754252    1.185698   -0.356601
 ---------------------------------------------------------------------

 SCF Done:  E(RB3LYP) =  -423.152651649     A.U. after    1 cycles

 The electronic state is 1-A.
 Alpha  occ. eigenvalues --  -19.15348 -19.13994 -10.24212 -10.23641 -10.22987
 Alpha  occ. eigenvalues --  -10.22747 -10.20073 -10.19720 -10.18487  -1.07423
 Alpha  occ. eigenvalues --   -1.02713  -0.80772  -0.75486  -0.72131  -0.67913
 Alpha  occ. eigenvalues --   -0.61620  -0.59754  -0.52563  -0.51350  -0.49487
 Alpha  occ. eigenvalues --   -0.47611  -0.46657  -0.44739  -0.42871  -0.41126
 Alpha  occ. eigenvalues --   -0.39109  -0.37376  -0.36232  -0.35648  -0.32402
 Alpha  occ. eigenvalues --   -0.29479  -0.27028  -0.25797  -0.25200
 Alpha virt. eigenvalues --    0.00556   0.07627   0.08717   0.10292   0.10831
 Alpha virt. eigenvalues --    0.12566   0.13948   0.14927   0.16652   0.17111
 Alpha virt. eigenvalues --    0.18060   0.18291   0.20124   0.21007   0.22787

 Mulliken charges:
               1
     1  C   -0.119508
     2  O   -0.252522
     3  C   -0.108439
     4  C    0.039493
     5  O   -0.260828
     6  C    0.039676
     7  C   -0.286469
     8  C   -0.027506
     9  C   -0.088620
    10  H    0.110082
    11  H    0.100207
    12  H    0.114202
    13  H    0.103051
    14  H    0.094980
    15  H    0.098450
    16  H    0.119175
    17  H    0.138936
    18  H    0.093980
    19  H    0.091659
 Sum of Mulliken charges =   0.00000

 Dipole moment (field-independent basis, Debye):
    X=             -0.6278    Y=              1.5300    Z=              0.8232  Tot=              1.8474
 Quadrupole moment (field-independent basis, Debye-Ang):
   XX=            -57.8692   YY=            -51.8290   ZZ=            -51.6454
   XY=             -0.9731   XZ=              0.8731   YZ=             -0.9195

  Exact polarizability:  82.059   3.955  83.133  -0.950  -2.687  61.756
 Approx polarizability: 121.525  13.511 122.973  -6.689  -3.571  95.684

                      1                      2                      3
                      A                      A                      A
 Frequencies --     77.8742               212.6422               255.2914
 Red. masses --      2.4224                 3.2562                 3.3981
 Frc consts  --      0.0087                 0.0867                 0.1305
 IR Inten    --      0.2608                 3.1699                 1.4446

                      4                      5                      6
                      A                      A                      A
 Frequencies --    264.5412               278.6816               373.9822
 Red. masses --      2.8708                 5.0464                 3.0945
 Frc consts  --      0.1184                 0.2309                 0.2550
 IR Inten    --      5.1965                 5.2716                 3.7532

                      7                      8                      9
                      A                      A                      A
 Frequencies --    409.0990               453.4275               546.4582
 Red. masses --      2.3834                 4.3080                 2.4751
 Frc consts  --      0.2350                 0.5218                 0.4355
 IR Inten    --      7.8891                 1.6391                 5.2244

                     10                     11                     12
                      A                      A                      A
 Frequencies --    575.0350               689.2991               756.3234
 Red. masses --      2.7913                 2.2164                 2.3027
 Frc consts  --      0.5438                 0.6205                 0.7761
 IR Inten    --      3.0147                 4.1185                11.2446

                     13                     14                     15
                      A                      A                      A
 Frequencies --    784.8941               831.1414               877.9081
 Red. masses --      3.1186                 3.4960                 3.8094
 Frc consts  --      1.1320                 1.4229                 1.7298
 IR Inten    --      7.9973                15.6937                16.0570

                     16                     17                     18
                      A                      A                      A
 Frequencies --    919.2992               941.5960               989.6277
 Red. masses --      3.8722                 1.7572                 2.5486
 Frc consts  --      1.9281                 0.9179                 1.4706
 IR Inten    --     29.0280                14.1816                 3.7184

                     19                     20                     21
                      A                      A                      A
 Frequencies --   1005.4218              1024.6593              1046.6359
 Red. masses --      1.5726                 1.4474                 2.9082
 Frc consts  --      0.9366                 0.8954                 1.8770
 IR Inten    --      3.6764                 0.4852                11.8340

                     22                     23                     24
                      A                      A                      A
 Frequencies --   1076.0407              1082.9461              1120.3879
 Red. masses --      2.5877                 1.9161                 4.2362
 Frc consts  --      1.7653                 1.3240                 3.1330
 IR Inten    --     32.6276                13.3322                65.1843

                     25                     26                     27
                      A                      A                      A
 Frequencies --   1158.1290              1165.6915              1245.5719
 Red. masses --      1.6514                 1.4615                 1.1610
 Frc consts  --      1.3050                 1.1701                 1.0613
 IR Inten    --      4.7574                 2.8611                 2.2664

                     28                     29                     30
                      A                      A                      A
 Frequencies --   1257.0878              1279.8713              1297.5304
 Red. masses --      1.1565                 1.1898                 1.2623
 Frc consts  --      1.0768                 1.1483                 1.2521
 IR Inten    --     10.1480                 0.2611                 3.5966

                     31                     32                     33
                      A                      A                      A
 Frequencies --   1309.0067              1358.7370              1378.6289
 Red. masses --      1.1122                 1.2480                 1.5010
 Frc consts  --      1.1228                 1.3575                 1.6808
 IR Inten    --      1.2737                 2.6584                 0.2949

                     34                     35                     36
                      A                      A                      A
 Frequencies --   1397.4485              1407.6217              1436.3873
 Red. masses --      1.2511                 1.3868                 1.3857
 Frc consts  --      1.4395                 1.6189                 1.6844
 IR Inten    --     11.3482                 8.9054                 1.1454

                     37                     38                     39
                      A                      A                      A
 Frequencies --   1461.4181              1482.5371              1504.6805
 Red. masses --      1.1037                 2.8403                 1.1013
 Frc consts  --      1.3889                 3.6781                 1.4691
 IR Inten    --      9.0202                 5.1501                 0.3302

                     40                     41                     42
                      A                      A                      A
 Frequencies --   1508.6292              1725.2266              3015.0169
 Red. masses --      1.0894                 6.8076                 1.0615
 Frc consts  --      1.4608                11.9382                 5.6854
 IR Inten    --      7.0212                 8.4308                14.8389

                     43                     44                     45
                      A                      A                      A
 Frequencies --   3019.8262              3024.3330              3041.4293
 Red. masses --      1.0651                 1.0669                 1.0970
 Frc consts  --      5.7227                 5.7498                 5.9787
 IR Inten    --     68.6728                 2.5359                 8.5531

                     46                     47                     48
                      A                      A                      A
 Frequencies --   3076.5090              3090.6410              3093.7684
 Red. masses --      1.0918                 1.0913                 1.0946
 Frc consts  --      6.0884                 6.1416                 6.1726
 IR Inten    --     10.3880                35.6465                26.7916

                     49                     50                     51
                      A                      A                      A
 Frequencies --   3105.7530              3120.3001              3156.3266
 Red. masses --      1.0912                 1.0847                 1.0927
 Frc consts  --      6.2013                 6.2222                 6.4138
 IR Inten    --     44.9466                12.8860                29.9259

 - Thermochemistry -
 -------------------
 Temperature   298.150 Kelvin.  Pressure   1.00000 Atm.
 Atom     1 has atomic number  6 and mass  12.00000

 Molecular mass:   126.06808 amu.
 Principal axes and moments of inertia in atomic units:
                           1         2         3
     Eigenvalues --   769.461731013.001831545.14371
           X            0.99997  -0.00807   0.00159
           Y            0.00809   0.99989  -0.01265
           Z           -0.00149   0.01266   0.99992
 This molecule is an asymmetric top.
 Rotational symmetry number  1.
 Warning -- assumption of classical behavior for rotation
           may cause significant error
 Rotational temperatures (Kelvin)      0.11256     0.08550     0.05606
 Rotational constants (GHZ):           2.34546     1.78158     1.16801
 Zero-point vibrational energy     422947.6 (Joules/Mol)
                                  101.08691 (Kcal/Mol)
 Warning -- explicit consideration of  10 degrees of freedom as
           vibrations may cause significant error
 Vibrational temperatures:    112.04   305.94   367.31   380.62   400.96
          (Kelvin)            538.08   588.60   652.38   786.23   827.35
                              991.75  1088.18  1129.29  1195.83  1263.11
                             1322.66  1354.75  1423.85  1446.58  1474.25
                             1505.87  1548.18  1558.12  1611.99  1666.29
                             1677.17  1792.10  1808.67  1841.45  1866.85
                             1883.37  1954.92  1983.54  2010.61  2025.25
                             2066.64  2102.65  2133.04  2164.90  2170.58
                             2482.21  4337.93  4344.85  4351.34  4375.93
                             4426.40  4446.74  4451.24  4468.48  4489.41
                             4541.24

 Zero-point correction=                           0.161092 (Hartree/Particle)
 Thermal correction to Energy=                    0.168794
 Thermal correction to Enthalpy=                  0.169738
 Thermal correction to Gibbs Free Energy=         0.128901
 Sum of electronic and zero-point Energies=           -422.991559
 Sum of electronic and thermal Energies=              -422.983858
 Sum of electronic and thermal Enthalpies=            -422.982914
 Sum of electronic and thermal Free Energies=         -423.023751

                     E (Thermal)             CV                S
                      KCal/Mol        Cal/Mol-Kelvin    Cal/Mol-Kelvin
 Total                  105.920             30.262             85.949
 Electronic               0.000              0.000              0.000
 Translational            0.889              2.981             40.409
 Rotational               0.889              2.981             28.578
 Vibrational            104.142             24.300             16.962
 Vibration     1          0.599              1.964              3.944
 Vibration     2          0.644              1.822              2.021
 Vibration     3          0.666              1.754              1.694
 Vibration     4          0.671              1.738              1.632
 Vibration     5          0.679              1.713              1.542
 Vibration     6          0.745              1.525              1.063
 Vibration     7          0.773              1.450              0.930
 Vibration     8          0.812              1.353              0.785
 Vibration     9          0.902              1.147              0.552
 Vibration    10          0.931              1.085              0.495

 Normal termination of Gaussian 09 at Mon Jan 27 13:44:44 2020.
