 Gaussian 09, Revision D.01,
 Gaussian 09:  ES64L-G09RevD.01 24-Apr-2013

 -----------------------------
 # b3lyp 6-31G(2df,p) opt Freq
 -----------------------------

 -----
 titel
 -----
 Symbolic Z-matrix:
 Charge =  0 Multiplicity = 1

 SCF Done:  E(RB3LYP) =  -423.118640421     A.U. after   13 cycles
 Optimization completed.
    -- Stationary point found.
 Normal termination of Gaussian 09 at Tue Jan 28 02:11:22 2020.

 ----------------------------------------------------------------------
 #N Geom=AllCheck Guess=TCheck SCRF=Check GenChk RB3LYP/6-31G(2df,p) Fr
 eq
 ----------------------------------------------------------------------

 Structure from the checkpoint file:  "/scratch/puck/g09_03f9d4ea-c765-494a-b895-8df39f487d5a/Gau-194162.chk"
 -----
 titel
 -----
 Charge =  0 Multiplicity = 1

                         Standard orientation:
 ---------------------------------------------------------------------
 Center     Atomic      Atomic             Coordinates (Angstroms)
 Number     Number       Type             X           Y           Z
 ---------------------------------------------------------------------
      1          6           0       -3.291656    0.287053   -0.328797
      2          6           0       -1.893331   -0.273037   -0.314429
      3          8           0       -1.391358   -0.728232    0.948614
      4          6           0       -0.765921    0.412102    0.339162
      5          6           0        0.636682    0.250987   -0.102249
      6          6           0        1.567371    1.410104   -0.416942
      7          6           0        1.957559    0.416165    0.629172
      8          8           0        2.519953   -0.755646    0.042508
      9          6           0        1.262515   -1.037909   -0.631965
     10          1           0       -4.029653   -0.518900   -0.259315
     11          1           0       -3.446203    0.965465    0.514652
     12          1           0       -3.477468    0.834694   -1.258970
     13          1           0       -1.652430   -0.943103   -1.142705
     14          1           0       -0.981945    1.356657    0.842554
     15          1           0        2.109204    1.445394   -1.358423
     16          1           0        1.227817    2.371986   -0.042853
     17          1           0        2.202753    0.641444    1.660759
     18          1           0        1.385684   -1.141735   -1.716501
     19          1           0        0.794166   -1.933670   -0.211895
 ---------------------------------------------------------------------

 SCF Done:  E(RB3LYP) =  -423.118640421     A.U. after    1 cycles

 The electronic state is 1-A.
 Alpha  occ. eigenvalues --  -19.14880 -19.13793 -10.24253 -10.24182 -10.24077
 Alpha  occ. eigenvalues --  -10.23400 -10.20589 -10.19541 -10.18710  -1.06981
 Alpha  occ. eigenvalues --   -1.05166  -0.84121  -0.74827  -0.71362  -0.66793
 Alpha  occ. eigenvalues --   -0.60950  -0.59843  -0.54569  -0.52787  -0.49416
 Alpha  occ. eigenvalues --   -0.46549  -0.45755  -0.44237  -0.41507  -0.40494
 Alpha  occ. eigenvalues --   -0.39204  -0.38685  -0.37756  -0.34506  -0.32822
 Alpha  occ. eigenvalues --   -0.31749  -0.27009  -0.26319  -0.23343
 Alpha virt. eigenvalues --    0.07125   0.09219   0.10228   0.10814   0.11490
 Alpha virt. eigenvalues --    0.12271   0.12887   0.13505   0.15069   0.15904
 Alpha virt. eigenvalues --    0.16884   0.17662   0.18712   0.19772   0.21538

 Mulliken charges:
               1
     1  C   -0.419092
     2  C    0.070508
     3  O   -0.261127
     4  C   -0.086196
     5  C    0.302690
     6  C   -0.361368
     7  C    0.059129
     8  O   -0.284643
     9  C   -0.148050
    10  H    0.131383
    11  H    0.127607
    12  H    0.123644
    13  H    0.087628
    14  H    0.085440
    15  H    0.116799
    16  H    0.116860
    17  H    0.110776
    18  H    0.102378
    19  H    0.125633
 Sum of Mulliken charges =   0.00000

 Dipole moment (field-independent basis, Debye):
    X=             -1.5685    Y=              1.8236    Z=             -1.2853  Tot=              2.7273
 Quadrupole moment (field-independent basis, Debye-Ang):
   XX=            -56.8538   YY=            -52.1825   ZZ=            -52.4577
   XY=              1.5454   XZ=              2.5230   YZ=              3.3288

  Exact polarizability:  90.513   3.837  72.766   3.057   3.527  65.906
 Approx polarizability: 116.080   5.914 110.246   6.059   2.170 103.497

                      1                      2                      3
                      A                      A                      A
 Frequencies --     62.8478               117.9010               153.5117
 Red. masses --      3.5180                 3.8956                 2.7941
 Frc consts  --      0.0082                 0.0319                 0.0388
 IR Inten    --      0.6760                 0.3472                 2.5619

                      4                      5                      6
                      A                      A                      A
 Frequencies --    202.5249               265.4433               314.0330
 Red. masses --      1.1776                 3.3434                 2.3835
 Frc consts  --      0.0285                 0.1388                 0.1385
 IR Inten    --      0.9126                 3.3383                 3.1415

                      7                      8                      9
                      A                      A                      A
 Frequencies --    366.1897               407.1965               451.7283
 Red. masses --      3.1390                 2.7251                 2.2412
 Frc consts  --      0.2480                 0.2662                 0.2695
 IR Inten    --      1.3126                 1.9769                 1.3823

                     10                     11                     12
                      A                      A                      A
 Frequencies --    524.8343               698.8664               767.6119
 Red. masses --      4.2863                 3.5784                 2.9614
 Frc consts  --      0.6956                 1.0297                 1.0281
 IR Inten    --     13.6573                 2.9929                17.3747

                     13                     14                     15
                      A                      A                      A
 Frequencies --    789.2224               836.6962               878.5458
 Red. masses --      3.6153                 3.5007                 2.1019
 Frc consts  --      1.3268                 1.4439                 0.9559
 IR Inten    --      3.6094                11.0942                 6.8164

                     16                     17                     18
                      A                      A                      A
 Frequencies --    909.2668               933.5586               970.1748
 Red. masses --      2.3128                 1.9603                 2.4028
 Frc consts  --      1.1266                 1.0066                 1.3325
 IR Inten    --     35.7737                16.0636                15.3653

                     19                     20                     21
                      A                      A                      A
 Frequencies --    986.5397               999.6740              1022.6846
 Red. masses --      2.9720                 1.5131                 1.7741
 Frc consts  --      1.7042                 0.8909                 1.0932
 IR Inten    --     20.5924                 0.5211                47.6213

                     22                     23                     24
                      A                      A                      A
 Frequencies --   1042.1808              1061.4211              1083.2911
 Red. masses --      1.4871                 1.6856                 1.7822
 Frc consts  --      0.9516                 1.1189                 1.2323
 IR Inten    --      8.8107                 4.5964                16.8313

                     25                     26                     27
                      A                      A                      A
 Frequencies --   1088.0993              1106.3839              1162.6773
 Red. masses --      1.7707                 2.6573                 1.1810
 Frc consts  --      1.2352                 1.9165                 0.9407
 IR Inten    --      4.8160                 8.9171                 2.9085

                     28                     29                     30
                      A                      A                      A
 Frequencies --   1166.7251              1173.2504              1226.2677
 Red. masses --      1.5525                 1.6531                 1.8309
 Frc consts  --      1.2451                 1.3407                 1.6221
 IR Inten    --      2.8808                 6.9593                 5.3161

                     31                     32                     33
                      A                      A                      A
 Frequencies --   1273.4748              1289.9874              1320.8166
 Red. masses --      1.6956                 1.4984                 1.9842
 Frc consts  --      1.6201                 1.4691                 2.0395
 IR Inten    --      2.9332                 2.6533                 8.4423

                     34                     35                     36
                      A                      A                      A
 Frequencies --   1365.1010              1403.1846              1414.0115
 Red. masses --      1.2868                 1.5173                 1.4470
 Frc consts  --      1.4128                 1.7601                 1.7046
 IR Inten    --     13.1302                 2.2708                10.2494

                     37                     38                     39
                      A                      A                      A
 Frequencies --   1468.5070              1482.3843              1493.1538
 Red. masses --      1.3152                 1.1638                 1.1267
 Frc consts  --      1.6711                 1.5068                 1.4800
 IR Inten    --      9.4651                 7.2845                 5.2875

                     40                     41                     42
                      A                      A                      A
 Frequencies --   1513.4943              1517.6787              3026.6055
 Red. masses --      1.2384                 2.0777                 1.0566
 Frc consts  --      1.6714                 2.8196                 5.7027
 IR Inten    --      0.4884                 5.1002                50.9537

                     43                     44                     45
                      A                      A                      A
 Frequencies --   3036.2756              3081.2791              3087.7463
 Red. masses --      1.0354                 1.0880                 1.1088
 Frc consts  --      5.6241                 6.0863                 6.2288
 IR Inten    --     21.0211                 4.1892                23.9501

                     46                     47                     48
                      A                      A                      A
 Frequencies --   3089.2333              3101.9756              3110.8192
 Red. masses --      1.0858                 1.1008                 1.0538
 Frc consts  --      6.1052                 6.2409                 6.0084
 IR Inten    --     33.7665                17.5012                13.3556

                     49                     50                     51
                      A                      A                      A
 Frequencies --   3122.6262              3181.1228              3202.8967
 Red. masses --      1.1013                 1.0951                 1.1150
 Frc consts  --      6.3271                 6.5295                 6.7389
 IR Inten    --     28.6969                14.7334                10.5566

 - Thermochemistry -
 -------------------
 Temperature   298.150 Kelvin.  Pressure   1.00000 Atm.
 Atom     1 has atomic number  6 and mass  12.00000

 Molecular mass:   126.06808 amu.
 Principal axes and moments of inertia in atomic units:
                           1         2         3
     Eigenvalues --   430.643271824.272911959.80439
           X            0.99998  -0.00013   0.00705
           Y           -0.00045   0.99670   0.08123
           Z           -0.00703  -0.08123   0.99667
 This molecule is an asymmetric top.
 Rotational symmetry number  1.
 Rotational temperatures (Kelvin)      0.20113     0.04748     0.04420
 Rotational constants (GHZ):           4.19080     0.98929     0.92088
 Zero-point vibrational energy     414815.4 (Joules/Mol)
                                   99.14326 (Kcal/Mol)
 Warning -- explicit consideration of  10 degrees of freedom as
           vibrations may cause significant error
 Vibrational temperatures:     90.42   169.63   220.87   291.39   381.91
          (Kelvin)            451.82   526.86   585.86   649.94   755.12
                             1005.51  1104.42  1135.51  1203.82  1264.03
                             1308.23  1343.18  1395.86  1419.41  1438.31
                             1471.41  1499.46  1527.15  1558.61  1565.53
                             1591.84  1672.83  1678.66  1688.04  1764.32
                             1832.24  1856.00  1900.36  1964.07  2018.87
                             2034.44  2112.85  2132.82  2148.31  2177.58
                             2183.60  4354.60  4368.52  4433.27  4442.57
                             4444.71  4463.05  4475.77  4492.76  4576.92
                             4608.25

 Zero-point correction=                           0.157995 (Hartree/Particle)
 Thermal correction to Energy=                    0.166466
 Thermal correction to Enthalpy=                  0.167410
 Thermal correction to Gibbs Free Energy=         0.124500
 Sum of electronic and zero-point Energies=           -422.960646
 Sum of electronic and thermal Energies=              -422.952174
 Sum of electronic and thermal Enthalpies=            -422.951230
 Sum of electronic and thermal Free Energies=         -422.994140

                     E (Thermal)             CV                S
                      KCal/Mol        Cal/Mol-Kelvin    Cal/Mol-Kelvin
 Total                  104.459             31.877             90.312
 Electronic               0.000              0.000              0.000
 Translational            0.889              2.981             40.409
 Rotational               0.889              2.981             28.822
 Vibrational            102.682             25.916             21.081
 Vibration     1          0.597              1.972              4.366
 Vibration     2          0.608              1.934              3.134
 Vibration     3          0.619              1.899              2.628
 Vibration     4          0.639              1.836              2.110
 Vibration     5          0.671              1.736              1.626
 Vibration     6          0.702              1.647              1.341
 Vibration     7          0.739              1.542              1.096
 Vibration     8          0.772              1.455              0.937
 Vibration     9          0.810              1.357              0.791
 Vibration    10          0.880              1.195              0.599

 Normal termination of Gaussian 09 at Tue Jan 28 02:50:38 2020.
