 Gaussian 09, Revision D.01,
 Gaussian 09:  ES64L-G09RevD.01 24-Apr-2013

 -----------------------------
 # b3lyp 6-31G(2df,p) opt Freq
 -----------------------------

 -----
 titel
 -----
 Symbolic Z-matrix:
 Charge =  0 Multiplicity = 1

 SCF Done:  E(RB3LYP) =  -423.157864305     A.U. after   13 cycles
 Optimization completed.
    -- Stationary point found.
 Normal termination of Gaussian 09 at Mon Jan 27 11:18:54 2020.

 ----------------------------------------------------------------------
 #N Geom=AllCheck Guess=TCheck SCRF=Check GenChk RB3LYP/6-31G(2df,p) Fr
 eq
 ----------------------------------------------------------------------

 Structure from the checkpoint file:  "/scratch/puck/g09_69282f61-fc7f-4110-a905-d3fc7d838904/Gau-42035.chk"
 -----
 titel
 -----
 Charge =  0 Multiplicity = 1

                         Standard orientation:
 ---------------------------------------------------------------------
 Center     Atomic      Atomic             Coordinates (Angstroms)
 Number     Number       Type             X           Y           Z
 ---------------------------------------------------------------------
      1          6           0        1.504079   -0.301491   -0.934782
      2          6           0        1.289642    0.807733    0.125450
      3          6           0       -0.000001    1.636497    0.000000
      4          6           0       -1.289643    0.807732   -0.125447
      5          6           0       -1.504075   -0.301495    0.934783
      6          6           0       -0.770121   -1.168754   -0.109350
      7          8           0       -1.148271   -0.220075   -1.146723
      8          6           0        0.770122   -1.168754    0.109346
      9          8           0        1.148267   -0.220077    1.146723
     10          1           0        1.054859   -0.186390   -1.917635
     11          1           0        2.558987   -0.571212   -1.007343
     12          1           0        2.140970    1.463152    0.335491
     13          1           0       -0.088538    2.290388    0.877356
     14          1           0        0.088536    2.290386   -0.877358
     15          1           0       -2.140973    1.463150   -0.335483
     16          1           0       -1.054850   -0.186395    1.917634
     17          1           0       -2.558981   -0.571218    1.007348
     18          1           0       -1.147982   -2.169726   -0.336235
     19          1           0        1.147983   -2.169726    0.336230
 ---------------------------------------------------------------------

 SCF Done:  E(RB3LYP) =  -423.157864305     A.U. after    1 cycles

 The electronic state is 1-A.
 Alpha  occ. eigenvalues --  -19.13002 -19.13002 -10.23588 -10.23587 -10.23280
 Alpha  occ. eigenvalues --  -10.23263 -10.18524 -10.18150 -10.18149  -1.05023
 Alpha  occ. eigenvalues --   -1.02451  -0.77330  -0.74621  -0.74206  -0.65620
 Alpha  occ. eigenvalues --   -0.65181  -0.53194  -0.53082  -0.52153  -0.47913
 Alpha  occ. eigenvalues --   -0.47428  -0.46124  -0.42618  -0.41823  -0.40201
 Alpha  occ. eigenvalues --   -0.40185  -0.35866  -0.35067  -0.32695  -0.31494
 Alpha  occ. eigenvalues --   -0.30592  -0.29644  -0.26317  -0.23338
 Alpha virt. eigenvalues --    0.07601   0.08251   0.11043   0.11630   0.11831
 Alpha virt. eigenvalues --    0.14229   0.14555   0.15397   0.15974   0.16952
 Alpha virt. eigenvalues --    0.17629   0.18803   0.20214   0.21320   0.22534

 Mulliken charges:
               1
     1  C   -0.243324
     2  C    0.095436
     3  C   -0.233113
     4  C    0.095436
     5  C   -0.243324
     6  C    0.071303
     7  O   -0.289924
     8  C    0.071303
     9  O   -0.289923
    10  H    0.123200
    11  H    0.101880
    12  H    0.076849
    13  H    0.106675
    14  H    0.106675
    15  H    0.076849
    16  H    0.123200
    17  H    0.101879
    18  H    0.074461
    19  H    0.074461
 Sum of Mulliken charges =   0.00000

 Dipole moment (field-independent basis, Debye):
    X=              0.0000    Y=              0.3656    Z=              0.0000  Tot=              0.3656
 Quadrupole moment (field-independent basis, Debye-Ang):
   XX=            -52.4868   YY=            -48.5380   ZZ=            -57.5114
   XY=              0.0000   XZ=             -4.2280   YZ=              0.0000

  Exact polarizability:  76.836   0.000  78.130  -3.266   0.000  63.568
 Approx polarizability: 103.902   0.000 112.894   0.349   0.000 103.781

                      1                      2                      3
                      A                      A                      A
 Frequencies --    265.5580               282.9589               374.2131
 Red. masses --      3.5233                 2.4207                 3.0705
 Frc consts  --      0.1464                 0.1142                 0.2533
 IR Inten    --      2.9748                 5.0217                 0.7064

                      4                      5                      6
                      A                      A                      A
 Frequencies --    381.9612               409.9645               465.5345
 Red. masses --      5.4484                 2.2166                 2.8986
 Frc consts  --      0.4683                 0.2195                 0.3701
 IR Inten    --      0.0001                10.2331                 0.3297

                      7                      8                      9
                      A                      A                      A
 Frequencies --    565.2486               636.0546               758.4580
 Red. masses --      3.2336                 3.7121                 2.8093
 Frc consts  --      0.6087                 0.8848                 0.9522
 IR Inten    --      8.0001                 1.8393                 0.0463

                     10                     11                     12
                      A                      A                      A
 Frequencies --    772.9706               839.4906               856.7002
 Red. masses --      2.6779                 2.5064                 1.7377
 Frc consts  --      0.9427                 1.0407                 0.7514
 IR Inten    --      1.9525                15.4912                 1.0394

                     13                     14                     15
                      A                      A                      A
 Frequencies --    879.9977               895.7857               900.6232
 Red. masses --      2.5727                 5.1007                 2.4899
 Frc consts  --      1.1738                 2.4115                 1.1899
 IR Inten    --      4.9330                22.8438                15.7717

                     16                     17                     18
                      A                      A                      A
 Frequencies --    909.7761               947.0574               954.4757
 Red. masses --      5.9684                 2.6707                 4.2427
 Frc consts  --      2.9106                 1.4113                 2.2773
 IR Inten    --     31.9035                40.8444                 6.0016

                     19                     20                     21
                      A                      A                      A
 Frequencies --    992.5481              1002.6064              1069.4917
 Red. masses --      2.6026                 1.9158                 1.8621
 Frc consts  --      1.5106                 1.1346                 1.2549
 IR Inten    --     44.8633                16.8004                 7.9932

                     22                     23                     24
                      A                      A                      A
 Frequencies --   1070.5371              1083.8775              1087.2830
 Red. masses --      2.1767                 1.8941                 2.3122
 Frc consts  --      1.4698                 1.3110                 1.6105
 IR Inten    --     11.1064                 3.1849                 7.1338

                     25                     26                     27
                      A                      A                      A
 Frequencies --   1138.4359              1145.1813              1190.5309
 Red. masses --      1.3488                 1.4751                 1.1098
 Frc consts  --      1.0300                 1.1398                 0.9268
 IR Inten    --      0.3438                 3.7320                 7.1746

                     28                     29                     30
                      A                      A                      A
 Frequencies --   1216.2621              1252.8834              1259.2486
 Red. masses --      1.3696                 1.6600                 1.4574
 Frc consts  --      1.1937                 1.5353                 1.3616
 IR Inten    --      0.2330                 9.0818                 0.3128

                     31                     32                     33
                      A                      A                      A
 Frequencies --   1271.2164              1301.8794              1313.4913
 Red. masses --      1.3186                 1.4768                 1.7010
 Frc consts  --      1.2554                 1.4748                 1.7290
 IR Inten    --      0.3933                 8.6291                 4.0101

                     34                     35                     36
                      A                      A                      A
 Frequencies --   1330.7205              1349.8075              1351.2819
 Red. masses --      1.4573                 1.3354                 1.4677
 Frc consts  --      1.5205                 1.4335                 1.5790
 IR Inten    --      0.1237                 7.2545                 0.0488

                     37                     38                     39
                      A                      A                      A
 Frequencies --   1385.8151              1390.6625              1457.2080
 Red. masses --      1.3585                 1.4507                 1.0940
 Frc consts  --      1.5372                 1.6530                 1.3687
 IR Inten    --      0.3132                11.1654                 3.4935

                     40                     41                     42
                      A                      A                      A
 Frequencies --   1475.5258              1480.3100              3019.5907
 Red. masses --      1.1230                 1.1413                 1.0609
 Frc consts  --      1.4405                 1.4736                 5.6994
 IR Inten    --      0.0016                12.0909                 9.1957

                     43                     44                     45
                      A                      A                      A
 Frequencies --   3053.8560              3058.0051              3059.5841
 Red. masses --      1.0867                 1.0857                 1.0863
 Frc consts  --      5.9711                 5.9819                 5.9916
 IR Inten    --     48.0760                86.3026                 7.1365

                     46                     47                     48
                      A                      A                      A
 Frequencies --   3063.5232              3075.5367              3092.5326
 Red. masses --      1.1019                 1.0843                 1.0644
 Frc consts  --      6.0929                 6.0429                 5.9979
 IR Inten    --     20.6722                68.6946                74.4365

                     49                     50                     51
                      A                      A                      A
 Frequencies --   3095.1814              3174.1501              3174.6753
 Red. masses --      1.0688                 1.1045                 1.1044
 Frc consts  --      6.0331                 6.5562                 6.5583
 IR Inten    --     12.5375                 0.7346                15.5554

 - Thermochemistry -
 -------------------
 Temperature   298.150 Kelvin.  Pressure   1.00000 Atm.
 Atom     1 has atomic number  6 and mass  12.00000

 Molecular mass:   126.06808 amu.
 Principal axes and moments of inertia in atomic units:
                           1         2         3
     Eigenvalues --   657.34666 903.990401027.95657
           X            0.99766   0.00000  -0.06837
           Y            0.00000   1.00000   0.00000
           Z            0.06837   0.00000   0.99766
 This molecule is an asymmetric top.
 Rotational symmetry number  1.
 Warning -- assumption of classical behavior for rotation
           may cause significant error
 Rotational temperatures (Kelvin)      0.13176     0.09581     0.08426
 Rotational constants (GHZ):           2.74549     1.99642     1.75566
 Zero-point vibrational energy     428145.1 (Joules/Mol)
                                  102.32913 (Kcal/Mol)
 Warning -- explicit consideration of   7 degrees of freedom as
           vibrations may cause significant error
 Vibrational temperatures:    382.08   407.11   538.41   549.56   589.85
          (Kelvin)            669.80   813.27   915.14  1091.25  1112.13
                             1207.84  1232.60  1266.12  1288.83  1295.79
                             1308.96  1362.60  1373.28  1428.05  1442.53
                             1538.76  1540.26  1559.46  1564.36  1637.95
                             1647.66  1712.91  1749.93  1802.62  1811.78
                             1828.99  1873.11  1889.82  1914.61  1942.07
                             1944.19  1993.88  2000.85  2096.59  2122.95
                             2129.83  4344.51  4393.81  4399.78  4402.05
                             4407.72  4425.01  4449.46  4453.27  4566.89
                             4567.64

 Zero-point correction=                           0.163072 (Hartree/Particle)
 Thermal correction to Energy=                    0.169343
 Thermal correction to Enthalpy=                  0.170287
 Thermal correction to Gibbs Free Energy=         0.132901
 Sum of electronic and zero-point Energies=           -422.994792
 Sum of electronic and thermal Energies=              -422.988521
 Sum of electronic and thermal Enthalpies=            -422.987577
 Sum of electronic and thermal Free Energies=         -423.024963

                     E (Thermal)             CV                S
                      KCal/Mol        Cal/Mol-Kelvin    Cal/Mol-Kelvin
 Total                  106.264             27.235             78.686
 Electronic               0.000              0.000              0.000
 Translational            0.889              2.981             40.409
 Rotational               0.889              2.981             27.904
 Vibrational            104.487             21.273             10.373
 Vibration     1          0.671              1.736              1.625
 Vibration     2          0.682              1.705              1.516
 Vibration     3          0.745              1.525              1.062
 Vibration     4          0.751              1.509              1.031
 Vibration     5          0.774              1.449              0.927
 Vibration     6          0.823              1.327              0.750
 Vibration     7          0.921              1.106              0.513

 Optimization completed.
    -- Stationary point found.
 Normal termination of Gaussian 09 at Mon Jan 27 12:09:06 2020.
