 Gaussian 09, Revision D.01,
 Gaussian 09:  ES64L-G09RevD.01 24-Apr-2013

 -----------------------------
 # b3lyp 6-31G(2df,p) opt Freq
 -----------------------------

 -----
 titel
 -----
 Symbolic Z-matrix:
 Charge =  0 Multiplicity = 1

 SCF Done:  E(RB3LYP) =  -423.173346541     A.U. after   14 cycles
 Optimization completed.
    -- Stationary point found.
 Normal termination of Gaussian 09 at Tue Jan 28 09:22:20 2020.

 ----------------------------------------------------------------------
 #N Geom=AllCheck Guess=TCheck SCRF=Check GenChk RB3LYP/6-31G(2df,p) Fr
 eq
 ----------------------------------------------------------------------

 Structure from the checkpoint file:  "/scratch/puck/g09_51ee1a16-a8e2-4574-99c8-4782b1928615/Gau-84276.chk"
 -----
 titel
 -----
 Charge =  0 Multiplicity = 1

                         Standard orientation:
 ---------------------------------------------------------------------
 Center     Atomic      Atomic             Coordinates (Angstroms)
 Number     Number       Type             X           Y           Z
 ---------------------------------------------------------------------
      1          6           0        2.485576   -1.242542   -0.235478
      2          6           0        2.107423    0.243129   -0.188489
      3          6           0        0.653629    0.469548    0.134837
      4          8           0        0.090474    1.743327   -0.283492
      5          6           0       -0.453130    0.546707   -0.838138
      6          6           0       -1.738835    0.066094   -0.159401
      7          8           0       -2.294834   -1.076431   -0.797607
      8          6           0       -1.285615   -0.195780    1.264818
      9          6           0        0.029397   -0.012301    1.412492
     10          1           0        3.549722   -1.366449   -0.455470
     11          1           0        2.282970   -1.738101    0.719631
     12          1           0        1.918272   -1.769647   -1.009667
     13          1           0        2.721808    0.758668    0.561271
     14          1           0        2.321750    0.724604   -1.147807
     15          1           0       -0.336693    0.406757   -1.910877
     16          1           0       -2.516099    0.836788   -0.205448
     17          1           0       -1.704226   -1.817576   -0.621601
     18          1           0       -1.984072   -0.479944    2.043710
     19          1           0        0.590781   -0.139394    2.331207
 ---------------------------------------------------------------------

 SCF Done:  E(RB3LYP) =  -423.173346541     A.U. after    1 cycles

 The electronic state is 1-A.
 Alpha  occ. eigenvalues --  -19.14668 -19.14298 -10.24094 -10.23868 -10.22916
 Alpha  occ. eigenvalues --  -10.19446 -10.19217 -10.19092 -10.18495  -1.06861
 Alpha  occ. eigenvalues --   -1.02308  -0.81657  -0.78099  -0.70366  -0.66670
 Alpha  occ. eigenvalues --   -0.62769  -0.57992  -0.55443  -0.51984  -0.47452
 Alpha  occ. eigenvalues --   -0.45838  -0.44710  -0.43129  -0.42182  -0.40779
 Alpha  occ. eigenvalues --   -0.40176  -0.36909  -0.35814  -0.35135  -0.33282
 Alpha  occ. eigenvalues --   -0.30750  -0.29278  -0.26113  -0.24530
 Alpha virt. eigenvalues --   -0.01114   0.07575   0.09545   0.11340   0.12245
 Alpha virt. eigenvalues --    0.13287   0.14181   0.14959   0.16225   0.16419
 Alpha virt. eigenvalues --    0.17107   0.17630   0.19065   0.20725   0.22052

 Mulliken charges:
               1
     1  C   -0.383041
     2  C   -0.288915
     3  C    0.402614
     4  O   -0.300606
     5  C   -0.087904
     6  C    0.065371
     7  O   -0.424452
     8  C   -0.136237
     9  C   -0.131135
    10  H    0.120991
    11  H    0.120987
    12  H    0.116966
    13  H    0.107382
    14  H    0.114937
    15  H    0.097530
    16  H    0.110885
    17  H    0.279954
    18  H    0.108451
    19  H    0.106225
 Sum of Mulliken charges =   0.00000

 Dipole moment (field-independent basis, Debye):
    X=              1.4751    Y=             -1.8269    Z=              0.8037  Tot=              2.4819
 Quadrupole moment (field-independent basis, Debye-Ang):
   XX=            -54.2052   YY=            -56.3288   ZZ=            -51.1641
   XY=             -1.6394   XZ=             -2.1168   YZ=             -0.5228

  Exact polarizability:  91.264   1.573  63.999   2.169  -2.036  71.629
 Approx polarizability: 131.527   6.357 101.102   9.609  -2.186 106.918

                      1                      2                      3
                      A                      A                      A
 Frequencies --     73.4498               113.6164               178.1345
 Red. masses --      2.8382                 2.7283                 2.7722
 Frc consts  --      0.0090                 0.0207                 0.0518
 IR Inten    --      0.5693                 0.1582                 1.4667

                      4                      5                      6
                      A                      A                      A
 Frequencies --    202.8539               281.3533               321.2843
 Red. masses --      1.3189                 2.3203                 1.6407
 Frc consts  --      0.0320                 0.1082                 0.0998
 IR Inten    --      0.5695                 1.0555                15.5533

                      7                      8                      9
                      A                      A                      A
 Frequencies --    354.3114               392.5467               421.6467
 Red. masses --      1.5756                 4.4121                 3.8906
 Frc consts  --      0.1165                 0.4006                 0.4075
 IR Inten    --     63.9693                 9.9014                 2.1440

                     10                     11                     12
                      A                      A                      A
 Frequencies --    488.9997               580.5781               625.7160
 Red. masses --      4.5566                 3.8163                 3.5498
 Frc consts  --      0.6420                 0.7579                 0.8189
 IR Inten    --      8.1156                 1.4260                 7.6305

                     13                     14                     15
                      A                      A                      A
 Frequencies --    726.7310               778.5169               795.7855
 Red. masses --      2.7005                 1.7372                 2.0709
 Frc consts  --      0.8403                 0.6204                 0.7727
 IR Inten    --      2.5468                 2.2006                 2.2291

                     16                     17                     18
                      A                      A                      A
 Frequencies --    804.5834               869.5195               903.6986
 Red. masses --      2.2184                 3.4448                 2.5596
 Frc consts  --      0.8461                 1.5345                 1.2316
 IR Inten    --     28.1877                29.6764                15.5053

                     19                     20                     21
                      A                      A                      A
 Frequencies --    945.8101               962.6326               976.4426
 Red. masses --      2.5102                 1.5219                 1.7164
 Frc consts  --      1.3230                 0.8309                 0.9642
 IR Inten    --     12.1658                 5.1396                 7.8291

                     22                     23                     24
                      A                      A                      A
 Frequencies --   1025.3618              1065.8107              1070.4500
 Red. masses --      1.4196                 2.7583                 2.3072
 Frc consts  --      0.8794                 1.8461                 1.5577
 IR Inten    --     20.2989                18.3078                12.0874

                     25                     26                     27
                      A                      A                      A
 Frequencies --   1078.9336              1107.1416              1144.7694
 Red. masses --      2.0541                 1.7223                 1.3800
 Frc consts  --      1.4089                 1.2439                 1.0655
 IR Inten    --     65.3153                24.5530                 2.7881

                     28                     29                     30
                      A                      A                      A
 Frequencies --   1227.5135              1239.6870              1271.7363
 Red. masses --      1.8143                 1.3022                 1.6322
 Frc consts  --      1.6107                 1.1791                 1.5553
 IR Inten    --      5.4539                 8.0719                 5.4496

                     31                     32                     33
                      A                      A                      A
 Frequencies --   1284.3979              1297.1436              1356.1266
 Red. masses --      1.3532                 1.6035                 1.5471
 Frc consts  --      1.3153                 1.5896                 1.6764
 IR Inten    --      1.5012                 2.8759                 3.0123

                     34                     35                     36
                      A                      A                      A
 Frequencies --   1368.5182              1406.4877              1412.0212
 Red. masses --      1.9417                 1.2942                 1.2379
 Frc consts  --      2.1426                 1.5084                 1.4542
 IR Inten    --      9.3674                36.1342                32.1454

                     37                     38                     39
                      A                      A                      A
 Frequencies --   1443.7808              1485.7250              1497.0027
 Red. masses --      3.5135                 1.0639                 1.0403
 Frc consts  --      4.3151                 1.3837                 1.3736
 IR Inten    --     13.9822                 1.4097                 6.0309

                     40                     41                     42
                      A                      A                      A
 Frequencies --   1507.8567              1656.6011              3026.4968
 Red. masses --      1.0913                 6.6380                 1.0659
 Frc consts  --      1.4619                10.7331                 5.7521
 IR Inten    --      4.3716                 2.9180                22.3590

                     43                     44                     45
                      A                      A                      A
 Frequencies --   3036.6961              3060.8232              3077.0648
 Red. masses --      1.0355                 1.0840                 1.0957
 Frc consts  --      5.6261                 5.9836                 6.1124
 IR Inten    --     22.7749                19.9573                 3.1744

                     46                     47                     48
                      A                      A                      A
 Frequencies --   3105.9198              3112.2515              3139.8882
 Red. masses --      1.1019                 1.1010                 1.0912
 Frc consts  --      6.2629                 6.2834                 6.3387
 IR Inten    --     33.5710                33.0049                17.2787

                     49                     50                     51
                      A                      A                      A
 Frequencies --   3188.2121              3212.4125              3799.1629
 Red. masses --      1.0851                 1.1044                 1.0661
 Frc consts  --      6.4986                 6.7147                 9.0663
 IR Inten    --      5.3358                12.7746                13.7091

 - Thermochemistry -
 -------------------
 Temperature   298.150 Kelvin.  Pressure   1.00000 Atm.
 Atom     1 has atomic number  6 and mass  12.00000

 Molecular mass:   126.06808 amu.
 Principal axes and moments of inertia in atomic units:
                           1         2         3
     Eigenvalues --   672.020861448.111221535.95373
           X            0.99939  -0.03203  -0.01396
           Y            0.03187   0.99943  -0.01136
           Z            0.01432   0.01091   0.99984
 This molecule is an asymmetric top.
 Rotational symmetry number  1.
 Warning -- assumption of classical behavior for rotation
           may cause significant error
 Rotational temperatures (Kelvin)      0.12889     0.05981     0.05639
 Rotational constants (GHZ):           2.68554     1.24627     1.17500
 Zero-point vibrational energy     415727.5 (Joules/Mol)
                                   99.36125 (Kcal/Mol)
 Warning -- explicit consideration of  11 degrees of freedom as
           vibrations may cause significant error
 Vibrational temperatures:    105.68   163.47   256.30   291.86   404.80
          (Kelvin)            462.26   509.77   564.79   606.65   703.56
                              835.32   900.26  1045.60  1120.11  1144.96
                             1157.61  1251.04  1300.22  1360.81  1385.01
                             1404.88  1475.27  1533.46  1540.14  1552.34
                             1592.93  1647.07  1766.12  1783.63  1829.74
                             1847.96  1866.30  1951.16  1968.99  2023.62
                             2031.58  2077.28  2137.62  2153.85  2169.47
                             2383.48  4354.45  4369.12  4403.84  4427.20
                             4468.72  4477.83  4517.59  4587.12  4621.94
                             5466.14

 Zero-point correction=                           0.158342 (Hartree/Particle)
 Thermal correction to Energy=                    0.167041
 Thermal correction to Enthalpy=                  0.167985
 Thermal correction to Gibbs Free Energy=         0.124943
 Sum of electronic and zero-point Energies=           -423.015004
 Sum of electronic and thermal Energies=              -423.006305
 Sum of electronic and thermal Enthalpies=            -423.005361
 Sum of electronic and thermal Free Energies=         -423.048404

                     E (Thermal)             CV                S
                      KCal/Mol        Cal/Mol-Kelvin    Cal/Mol-Kelvin
 Total                  104.820             33.209             90.591
 Electronic               0.000              0.000              0.000
 Translational            0.889              2.981             40.409
 Rotational               0.889              2.981             28.793
 Vibrational            103.042             27.248             21.389
 Vibration     1          0.599              1.967              4.059
 Vibration     2          0.607              1.938              3.206
 Vibration     3          0.629              1.869              2.348
 Vibration     4          0.639              1.836              2.107
 Vibration     5          0.681              1.708              1.525
 Vibration     6          0.707              1.633              1.304
 Vibration     7          0.730              1.566              1.147
 Vibration     8          0.760              1.486              0.990
 Vibration     9          0.784              1.423              0.886
 Vibration    10          0.845              1.274              0.686
 Vibration    11          0.937              1.073              0.484

 Normal termination of Gaussian 09 at Tue Jan 28 10:10:20 2020.
