 Gaussian 09, Revision D.01,
 Gaussian 09:  ES64L-G09RevD.01 24-Apr-2013

 -----------------------------
 # b3lyp 6-31G(2df,p) opt Freq
 -----------------------------

 -----
 titel
 -----
 Symbolic Z-matrix:
 Charge =  0 Multiplicity = 1

 SCF Done:  E(RB3LYP) =  -423.199934354     A.U. after   14 cycles
 SCF Done:  E(RB3LYP) =  -423.199934537     A.U. after    6 cycles
 SCF Done:  E(RB3LYP) =  -423.199934434     A.U. after    7 cycles
 Optimization completed.
    -- Stationary point found.
 Normal termination of Gaussian 09 at Tue Jan 28 14:12:45 2020.

 ----------------------------------------------------------------------
 #N Geom=AllCheck Guess=TCheck SCRF=Check GenChk RB3LYP/6-31G(2df,p) Fr
 eq
 ----------------------------------------------------------------------

 Structure from the checkpoint file:  "/scratch/puck/g09_380e7117-842b-4d25-b547-83e10286df6a/Gau-28487.chk"
 -----
 titel
 -----
 Charge =  0 Multiplicity = 1

                         Standard orientation:
 ---------------------------------------------------------------------
 Center     Atomic      Atomic             Coordinates (Angstroms)
 Number     Number       Type             X           Y           Z
 ---------------------------------------------------------------------
      1          8           0       -2.783262   -0.691767    0.174557
      2          6           0       -1.810256    0.319056    0.369480
      3          6           0       -0.523778    0.069622   -0.444555
      4          6           0        0.166669   -1.226605   -0.070635
      5          6           0        1.477369   -1.536233   -0.747381
      6          6           0        1.484450   -0.909817    0.624227
      7          6           0        1.655697    0.593906    0.692649
      8          6           0        0.501043    1.178170   -0.135873
      9          8           0        0.389660    2.329035   -0.471698
     10          1           0       -3.075547   -0.648602   -0.741931
     11          1           0       -2.198041    1.317584    0.125627
     12          1           0       -1.582847    0.302171    1.441113
     13          1           0       -0.781363    0.130466   -1.510389
     14          1           0       -0.458307   -2.046563    0.261290
     15          1           0        1.767606   -2.578193   -0.824844
     16          1           0        1.782482   -0.930012   -1.597145
     17          1           0        1.820992   -1.509589    1.461463
     18          1           0        1.554479    0.967146    1.720140
     19          1           0        2.612186    0.968864    0.314328
 ---------------------------------------------------------------------

 SCF Done:  E(RB3LYP) =  -423.199934434     A.U. after    1 cycles

 The electronic state is 1-A.
 Alpha  occ. eigenvalues --  -19.14382 -19.13335 -10.27005 -10.23631 -10.19844
 Alpha  occ. eigenvalues --  -10.19584 -10.19417 -10.19405 -10.19127  -1.04422
 Alpha  occ. eigenvalues --   -1.02452  -0.88717  -0.76713  -0.73886  -0.65245
 Alpha  occ. eigenvalues --   -0.60050  -0.56999  -0.54203  -0.50931  -0.49313
 Alpha  occ. eigenvalues --   -0.47312  -0.43842  -0.43473  -0.42741  -0.42065
 Alpha  occ. eigenvalues --   -0.40119  -0.36793  -0.36575  -0.35837  -0.33111
 Alpha  occ. eigenvalues --   -0.29814  -0.28391  -0.27302  -0.24048
 Alpha virt. eigenvalues --   -0.02202   0.07102   0.09403   0.11019   0.11134
 Alpha virt. eigenvalues --    0.11984   0.14839   0.15727   0.16054   0.17017
 Alpha virt. eigenvalues --    0.17835   0.18275   0.20827   0.21124   0.23276

 Mulliken charges:
               1
     1  O   -0.415512
     2  C   -0.077780
     3  C   -0.137509
     4  C   -0.026586
     5  C   -0.310794
     6  C   -0.035812
     7  C   -0.332654
     8  C    0.369783
     9  O   -0.317243
    10  H    0.284655
    11  H    0.111770
    12  H    0.113863
    13  H    0.090475
    14  H    0.102037
    15  H    0.116518
    16  H    0.111957
    17  H    0.089975
    18  H    0.131675
    19  H    0.131183
 Sum of Mulliken charges =   0.00000

 Dipole moment (field-independent basis, Debye):
    X=              0.4894    Y=             -1.7826    Z=             -0.2035  Tot=              1.8597
 Quadrupole moment (field-independent basis, Debye-Ang):
   XX=            -52.5481   YY=            -60.3034   ZZ=            -50.4517
   XY=             -2.9015   XZ=              4.7660   YZ=              2.7736

  Exact polarizability:  81.043  -0.716  77.817   3.173   0.660  65.950
 Approx polarizability: 109.618   1.997 115.845   4.398  -2.758 103.641

                      1                      2                      3
                      A                      A                      A
 Frequencies --     63.4953               113.5210               158.2683
 Red. masses --      3.6277                 2.9811                 5.1522
 Frc consts  --      0.0086                 0.0226                 0.0760
 IR Inten    --      4.0873                 5.4768                 2.3774

                      4                      5                      6
                      A                      A                      A
 Frequencies --    198.8826               298.5465               323.1916
 Red. masses --      2.2413                 2.9117                 1.2283
 Frc consts  --      0.0522                 0.1529                 0.0756
 IR Inten    --      4.9656                 4.9652                93.3545

                      7                      8                      9
                      A                      A                      A
 Frequencies --    361.7266               444.6675               508.0406
 Red. masses --      2.5009                 3.2756                 3.3011
 Frc consts  --      0.1928                 0.3816                 0.5020
 IR Inten    --     12.5329                10.0823                13.0511

                     10                     11                     12
                      A                      A                      A
 Frequencies --    560.3973               614.5978               666.4581
 Red. masses --      2.9742                 5.3215                 3.3480
 Frc consts  --      0.5503                 1.1843                 0.8762
 IR Inten    --      3.1168                 1.4383                 6.3180

                     13                     14                     15
                      A                      A                      A
 Frequencies --    776.1095               804.6584               826.3176
 Red. masses --      2.3907                 2.3829                 1.5312
 Frc consts  --      0.8484                 0.9090                 0.6160
 IR Inten    --      1.4365                10.4742                 9.6861

                     16                     17                     18
                      A                      A                      A
 Frequencies --    865.5252               870.6913               938.1122
 Red. masses --      1.9283                 2.5841                 1.6497
 Frc consts  --      0.8511                 1.1542                 0.8554
 IR Inten    --      0.0946                 4.9716                 1.0773

                     19                     20                     21
                      A                      A                      A
 Frequencies --   1013.1223              1018.4621              1036.5877
 Red. masses --      1.9751                 2.2916                 1.9427
 Frc consts  --      1.1945                 1.4005                 1.2299
 IR Inten    --     20.6565                16.1729                 8.9838

                     22                     23                     24
                      A                      A                      A
 Frequencies --   1066.8430              1077.1392              1086.0147
 Red. masses --      1.5524                 2.3186                 1.6572
 Frc consts  --      1.0410                 1.5850                 1.1516
 IR Inten    --     15.8884               129.2786                 2.5004

                     25                     26                     27
                      A                      A                      A
 Frequencies --   1105.8020              1128.0634              1157.7484
 Red. masses --      1.5631                 1.3934                 2.7045
 Frc consts  --      1.1262                 1.0447                 2.1358
 IR Inten    --      2.7628                 3.4638                33.2547

                     28                     29                     30
                      A                      A                      A
 Frequencies --   1173.2589              1197.5487              1204.9456
 Red. masses --      1.2988                 1.3489                 1.6415
 Frc consts  --      1.0533                 1.1397                 1.4042
 IR Inten    --     14.7352                13.0778                 2.9019

                     31                     32                     33
                      A                      A                      A
 Frequencies --   1253.2359              1283.5099              1322.5673
 Red. masses --      1.4850                 1.7023                 1.3477
 Frc consts  --      1.3742                 1.6523                 1.3889
 IR Inten    --      1.1791                10.5630                 6.6596

                     34                     35                     36
                      A                      A                      A
 Frequencies --   1359.7388              1385.1591              1386.9469
 Red. masses --      1.6569                 1.3430                 2.0888
 Frc consts  --      1.8049                 1.5182                 2.3674
 IR Inten    --      0.9341                 1.8636                 0.3172

                     37                     38                     39
                      A                      A                      A
 Frequencies --   1418.5231              1450.1446              1489.3040
 Red. masses --      1.2037                 1.0906                 1.2358
 Frc consts  --      1.4271                 1.3512                 1.6150
 IR Inten    --     51.9028                 8.0571                 2.6423

                     40                     41                     42
                      A                      A                      A
 Frequencies --   1504.7366              1836.5132              3012.1870
 Red. masses --      1.0913                12.7397                 1.0635
 Frc consts  --      1.4559                25.3161                 5.6853
 IR Inten    --      1.5500               186.1935                35.7794

                     43                     44                     45
                      A                      A                      A
 Frequencies --   3018.6374              3033.3437              3075.2063
 Red. masses --      1.0817                 1.0639                 1.1014
 Frc consts  --      5.8075                 5.7677                 6.1367
 IR Inten    --     16.9176                14.8095                28.5485

                     46                     47                     48
                      A                      A                      A
 Frequencies --   3080.7005              3114.2415              3176.3358
 Red. masses --      1.0977                 1.0571                 1.0902
 Frc consts  --      6.1378                 6.0402                 6.4808
 IR Inten    --     10.5784                14.0034                10.7494

                     49                     50                     51
                      A                      A                      A
 Frequencies --   3187.6748              3207.3348              3811.1873
 Red. masses --      1.0938                 1.1106                 1.0661
 Frc consts  --      6.5482                 6.7315                 9.1238
 IR Inten    --      2.6802                15.8705                22.4526

 - Thermochemistry -
 -------------------
 Temperature   298.150 Kelvin.  Pressure   1.00000 Atm.
 Atom     1 has atomic number  8 and mass  15.99491

 Molecular mass:   126.06808 amu.
 Principal axes and moments of inertia in atomic units:
                           1         2         3
     Eigenvalues --   820.284591191.907411734.50769
           X            0.99854  -0.05313   0.00973
           Y            0.05289   0.99832   0.02375
           Z           -0.01098  -0.02321   0.99967
 This molecule is an asymmetric top.
 Rotational symmetry number  1.
 Warning -- assumption of classical behavior for rotation
           may cause significant error
 Rotational temperatures (Kelvin)      0.10559     0.07267     0.04994
 Rotational constants (GHZ):           2.20014     1.51416     1.04049
 Zero-point vibrational energy     419087.6 (Joules/Mol)
                                  100.16433 (Kcal/Mol)
 Warning -- explicit consideration of  11 degrees of freedom as
           vibrations may cause significant error
 Vibrational temperatures:     91.36   163.33   227.71   286.15   429.54
          (Kelvin)            465.00   520.44   639.78   730.96   806.29
                              884.27   958.88  1116.65  1157.72  1188.89
                             1245.30  1252.73  1349.73  1457.66  1465.34
                             1491.42  1534.95  1549.76  1562.53  1591.00
                             1623.03  1665.74  1688.06  1723.00  1733.65
                             1803.12  1846.68  1902.88  1956.36  1992.93
                             1995.50  2040.94  2086.43  2142.77  2164.98
                             2642.33  4333.86  4343.14  4364.30  4424.53
                             4432.44  4480.69  4570.03  4586.35  4614.63
                             5483.44

 Zero-point correction=                           0.159622 (Hartree/Particle)
 Thermal correction to Energy=                    0.168062
 Thermal correction to Enthalpy=                  0.169006
 Thermal correction to Gibbs Free Energy=         0.126153
 Sum of electronic and zero-point Energies=           -423.040312
 Sum of electronic and thermal Energies=              -423.031873
 Sum of electronic and thermal Enthalpies=            -423.030929
 Sum of electronic and thermal Free Energies=         -423.073781

                     E (Thermal)             CV                S
                      KCal/Mol        Cal/Mol-Kelvin    Cal/Mol-Kelvin
 Total                  105.460             32.094             90.191
 Electronic               0.000              0.000              0.000
 Translational            0.889              2.981             40.409
 Rotational               0.889              2.981             28.918
 Vibrational            103.683             26.133             20.864
 Vibration     1          0.597              1.972              4.346
 Vibration     2          0.607              1.938              3.208
 Vibration     3          0.621              1.893              2.570
 Vibration     4          0.637              1.841              2.143
 Vibration     5          0.692              1.676              1.425
 Vibration     6          0.708              1.629              1.294
 Vibration     7          0.736              1.551              1.115
 Vibration     8          0.804              1.373              0.812
 Vibration     9          0.863              1.232              0.638
 Vibration    10          0.916              1.117              0.523
 Vibration    11          0.974              1.001              0.425

 Optimization completed.
    -- Stationary point found.
 Normal termination of Gaussian 09 at Tue Jan 28 14:57:19 2020.
 Normal termination of Gaussian 09 at Tue Jan 28 14:06:26 2020.
