 Gaussian 09, Revision D.01,
 Gaussian 09:  ES64L-G09RevD.01 24-Apr-2013

 -----------------------------
 # b3lyp 6-31G(2df,p) opt Freq
 -----------------------------

 -----
 titel
 -----
 Symbolic Z-matrix:
 Charge =  0 Multiplicity = 1

 SCF Done:  E(RB3LYP) =  -423.149808562     A.U. after   15 cycles
 Optimization completed.
    -- Stationary point found.
 Normal termination of Gaussian 09 at Tue Jan 28 12:08:21 2020.

 ----------------------------------------------------------------------
 #N Geom=AllCheck Guess=TCheck SCRF=Check GenChk RB3LYP/6-31G(2df,p) Fr
 eq
 ----------------------------------------------------------------------

 Structure from the checkpoint file:  "/scratch/puck/g09_74e6ec22-0332-4884-b98a-9210d80ccbda/Gau-1500.chk"
 -----
 titel
 -----
 Charge =  0 Multiplicity = 1

                         Standard orientation:
 ---------------------------------------------------------------------
 Center     Atomic      Atomic             Coordinates (Angstroms)
 Number     Number       Type             X           Y           Z
 ---------------------------------------------------------------------
      1          6           0        2.516195   -1.910971    0.005797
      2          8           0        1.440585   -1.007594   -0.127359
      3          6           0        1.819588    0.332527    0.064434
      4          6           0        0.632846    1.283152   -0.112199
      5          8           0        0.787662    2.459028    0.119768
      6          6           0       -0.693288    0.704908   -0.573314
      7          6           0       -1.436409    0.005125    0.596675
      8          6           0       -2.730251   -0.522566    0.186023
      9          6           0       -3.793723   -0.949656   -0.176181
     10          1           0        2.961400   -1.865755    1.011307
     11          1           0        2.120861   -2.914651   -0.164174
     12          1           0        3.307558   -1.707149   -0.731557
     13          1           0        2.242090    0.498299    1.068631
     14          1           0        2.595313    0.637736   -0.659028
     15          1           0       -1.299138    1.527905   -0.957657
     16          1           0       -0.524752   -0.028834   -1.365734
     17          1           0       -0.808534   -0.805814    0.979741
     18          1           0       -1.574668    0.722081    1.415385
     19          1           0       -4.735859   -1.330417   -0.483601
 ---------------------------------------------------------------------

 SCF Done:  E(RB3LYP) =  -423.149808562     A.U. after    1 cycles

 The electronic state is 1-A.
 Alpha  occ. eigenvalues --  -19.16158 -19.13400 -10.27471 -10.24464 -10.23953
 Alpha  occ. eigenvalues --  -10.21431 -10.19492 -10.18069 -10.16949  -1.05737
 Alpha  occ. eigenvalues --   -1.04265  -0.81049  -0.75809  -0.72624  -0.67103
 Alpha  occ. eigenvalues --   -0.65703  -0.54609  -0.52571  -0.50382  -0.49672
 Alpha  occ. eigenvalues --   -0.48991  -0.45914  -0.44967  -0.43292  -0.41633
 Alpha  occ. eigenvalues --   -0.41125  -0.39606  -0.36508  -0.35440  -0.34058
 Alpha  occ. eigenvalues --   -0.27536  -0.26871  -0.26224  -0.24649
 Alpha virt. eigenvalues --   -0.02332   0.05363   0.05827   0.07940   0.11775
 Alpha virt. eigenvalues --    0.12872   0.13043   0.13792   0.14641   0.14789
 Alpha virt. eigenvalues --    0.15634   0.15872   0.17984   0.19633   0.20862

 Mulliken charges:
               1
     1  C   -0.231667
     2  O   -0.229118
     3  C   -0.154089
     4  C    0.324167
     5  O   -0.297660
     6  C   -0.270122
     7  C   -0.355745
     8  C    0.295056
     9  C   -0.436551
    10  H    0.112637
    11  H    0.135935
    12  H    0.112674
    13  H    0.122848
    14  H    0.123520
    15  H    0.128757
    16  H    0.132840
    17  H    0.150189
    18  H    0.140906
    19  H    0.195421
 Sum of Mulliken charges =   0.00000

 Dipole moment (field-independent basis, Debye):
    X=              1.4905    Y=             -2.3877    Z=             -0.1260  Tot=              2.8175
 Quadrupole moment (field-independent basis, Debye-Ang):
   XX=            -46.6320   YY=            -59.8031   ZZ=            -52.1381
   XY=             -3.5218   XZ=              1.1214   YZ=             -0.5499

  Exact polarizability: 101.117   7.948  78.383   5.971   2.517  59.054
 Approx polarizability: 133.729  17.545 115.089  12.884   7.655  90.258

                      1                      2                      3
                      A                      A                      A
 Frequencies --     46.5531                53.7492                92.1166
 Red. masses --      2.7198                 2.8313                 2.6588
 Frc consts  --      0.0035                 0.0048                 0.0133
 IR Inten    --      5.7836                 2.2723                 0.0555

                      4                      5                      6
                      A                      A                      A
 Frequencies --     95.7098               135.1666               173.0858
 Red. masses --      2.9092                 3.8792                 3.8386
 Frc consts  --      0.0157                 0.0418                 0.0678
 IR Inten    --      0.1675                 1.7764                 2.9517

                      7                      8                      9
                      A                      A                      A
 Frequencies --    226.4206               231.2498               337.9178
 Red. masses --      1.2175                 3.5964                 3.0653
 Frc consts  --      0.0368                 0.1133                 0.2062
 IR Inten    --      1.5640                 3.3459                 2.5117

                     10                     11                     12
                      A                      A                      A
 Frequencies --    361.5382               442.5262               489.9241
 Red. masses --      3.3576                 6.5549                 3.6741
 Frc consts  --      0.2586                 0.7563                 0.5196
 IR Inten    --      2.4645                 6.5931                 1.0324

                     13                     14                     15
                      A                      A                      A
 Frequencies --    551.2622               589.5906               616.5921
 Red. masses --      3.5789                 3.1634                 1.1989
 Frc consts  --      0.6408                 0.6479                 0.2685
 IR Inten    --     27.2698                 1.6451                44.4754

                     16                     17                     18
                      A                      A                      A
 Frequencies --    639.9056               781.8320               816.4371
 Red. masses --      1.2242                 1.2870                 3.0001
 Frc consts  --      0.2954                 0.4635                 1.1782
 IR Inten    --     41.3823                 2.3717                 2.5888

                     19                     20                     21
                      A                      A                      A
 Frequencies --    916.1312               984.0770              1004.6240
 Red. masses --      2.7934                 2.6773                 3.4973
 Frc consts  --      1.3813                 1.5276                 2.0796
 IR Inten    --      1.8965                 8.6499                35.0663

                     22                     23                     24
                      A                      A                      A
 Frequencies --   1024.8690              1051.6604              1143.2357
 Red. masses --      3.1459                 2.3919                 2.4736
 Frc consts  --      1.9468                 1.5587                 1.9048
 IR Inten    --      1.9920                 0.0765               137.3558

                     25                     26                     27
                      A                      A                      A
 Frequencies --   1170.4431              1185.3138              1229.9965
 Red. masses --      1.9830                 1.2869                 1.7656
 Frc consts  --      1.6006                 1.0653                 1.5738
 IR Inten    --     39.9668                 3.3347                50.2416

                     28                     29                     30
                      A                      A                      A
 Frequencies --   1242.1580              1253.3487              1280.0618
 Red. masses --      1.2086                 1.6102                 1.4685
 Frc consts  --      1.0987                 1.4903                 1.4177
 IR Inten    --      9.2912                38.7562                12.5326

                     31                     32                     33
                      A                      A                      A
 Frequencies --   1313.5358              1356.2567              1381.6232
 Red. masses --      1.1293                 1.4097                 1.4532
 Frc consts  --      1.1480                 1.5278                 1.6343
 IR Inten    --     19.6513                17.3100                 7.3417

                     34                     35                     36
                      A                      A                      A
 Frequencies --   1465.4877              1466.8072              1484.4963
 Red. masses --      1.1011                 1.0861                 1.0980
 Frc consts  --      1.3933                 1.3768                 1.4256
 IR Inten    --     14.5126                12.2884                 5.2173

                     37                     38                     39
                      A                      A                      A
 Frequencies --   1485.7283              1488.9006              1514.1064
 Red. masses --      1.0467                 1.1084                 1.0814
 Frc consts  --      1.3613                 1.4477                 1.4607
 IR Inten    --      5.0755                 5.0387                 2.9352

                     40                     41                     42
                      A                      A                      A
 Frequencies --   1813.8337              2239.9977              2961.3903
 Red. masses --     11.7423                 5.9317                 1.0564
 Frc consts  --     22.7614                17.5357                 5.4584
 IR Inten    --    165.0569                 3.0097                30.5003

                     43                     44                     45
                      A                      A                      A
 Frequencies --   2980.4637              2997.4968              3028.2493
 Red. masses --      1.0387                 1.0988                 1.1039
 Frc consts  --      5.4365                 5.8168                 5.9641
 IR Inten    --     62.1598                31.8165                45.1902

                     46                     47                     48
                      A                      A                      A
 Frequencies --   3033.5116              3071.0861              3081.9846
 Red. masses --      1.0622                 1.0577                 1.0965
 Frc consts  --      5.7589                 5.8775                 6.1363
 IR Inten    --      9.9459                 7.9205                 2.2080

                     49                     50                     51
                      A                      A                      A
 Frequencies --   3123.7759              3134.5412              3507.4203
 Red. masses --      1.0970                 1.1068                 1.1622
 Frc consts  --      6.3069                 6.4070                 8.4238
 IR Inten    --     21.4651                 9.5945                69.0982

 - Thermochemistry -
 -------------------
 Temperature   298.150 Kelvin.  Pressure   1.00000 Atm.
 Atom     1 has atomic number  6 and mass  12.00000

 Molecular mass:   126.06808 amu.
 Principal axes and moments of inertia in atomic units:
                           1         2         3
     Eigenvalues --   847.069141926.431662638.54786
           X            0.99935  -0.03582   0.00432
           Y            0.03583   0.99935  -0.00320
           Z           -0.00420   0.00335   0.99999
 This molecule is an asymmetric top.
 Rotational symmetry number  1.
 Warning -- assumption of classical behavior for rotation
           may cause significant error
 Rotational temperatures (Kelvin)      0.10225     0.04496     0.03283
 Rotational constants (GHZ):           2.13057     0.93683     0.68399
 Zero-point vibrational energy     407317.6 (Joules/Mol)
                                   97.35125 (Kcal/Mol)
 Warning -- explicit consideration of  15 degrees of freedom as
           vibrations may cause significant error
 Vibrational temperatures:     66.98    77.33   132.54   137.70   194.47
          (Kelvin)            249.03   325.77   332.72   486.19   520.17
                              636.70   704.89   793.14   848.29   887.14
                              920.68  1124.88  1174.67  1318.11  1415.87
                             1445.43  1474.56  1513.10  1644.86  1684.00
                             1705.40  1769.69  1787.19  1803.29  1841.72
                             1889.88  1951.35  1987.85  2108.51  2110.41
                             2135.86  2137.63  2142.19  2178.46  2609.70
                             3222.85  4260.77  4288.22  4312.72  4356.97
                             4364.54  4418.60  4434.28  4494.41  4509.90
                             5046.39

 Zero-point correction=                           0.155139 (Hartree/Particle)
 Thermal correction to Energy=                    0.165832
 Thermal correction to Enthalpy=                  0.166776
 Thermal correction to Gibbs Free Energy=         0.117804
 Sum of electronic and zero-point Energies=           -422.994669
 Sum of electronic and thermal Energies=              -422.983977
 Sum of electronic and thermal Enthalpies=            -422.983033
 Sum of electronic and thermal Free Energies=         -423.032005

                     E (Thermal)             CV                S
                      KCal/Mol        Cal/Mol-Kelvin    Cal/Mol-Kelvin
 Total                  104.061             36.637            103.070
 Electronic               0.000              0.000              0.000
 Translational            0.889              2.981             40.409
 Rotational               0.889              2.981             29.844
 Vibrational            102.283             30.676             32.817
 Vibration     1          0.595              1.979              4.959
 Vibration     2          0.596              1.976              4.674
 Vibration     3          0.602              1.955              3.615
 Vibration     4          0.603              1.952              3.540
 Vibration     5          0.613              1.918              2.871
 Vibration     6          0.627              1.876              2.402
 Vibration     7          0.650              1.801              1.907
 Vibration     8          0.653              1.793              1.869
 Vibration     9          0.718              1.600              1.222
 Vibration    10          0.736              1.551              1.115
 Vibration    11          0.802              1.377              0.819
 Vibration    12          0.846              1.272              0.684
 Vibration    13          0.907              1.137              0.542
 Vibration    14          0.947              1.054              0.468
 Vibration    15          0.976              0.997              0.422

 Optimization completed.
    -- Stationary point found.
 Normal termination of Gaussian 09 at Tue Jan 28 12:48:12 2020.
