 Gaussian 09, Revision D.01,
 Gaussian 09:  ES64L-G09RevD.01 24-Apr-2013

 -----------------------------
 # b3lyp 6-31G(2df,p) opt Freq
 -----------------------------

 -----
 titel
 -----
 Symbolic Z-matrix:
 Charge =  0 Multiplicity = 1

 SCF Done:  E(RB3LYP) =  -423.157237755     A.U. after   13 cycles
 Optimization completed.
    -- Stationary point found.
 Normal termination of Gaussian 09 at Tue Jan 28 02:55:50 2020.

 ----------------------------------------------------------------------
 #N Geom=AllCheck Guess=TCheck SCRF=Check GenChk RB3LYP/6-31G(2df,p) Fr
 eq
 ----------------------------------------------------------------------

 Structure from the checkpoint file:  "/scratch/puck/g09_f2ffbea9-7bb6-402b-ba75-fd8cf0fd03ed/Gau-65409.chk"
 -----
 titel
 -----
 Charge =  0 Multiplicity = 1

                         Standard orientation:
 ---------------------------------------------------------------------
 Center     Atomic      Atomic             Coordinates (Angstroms)
 Number     Number       Type             X           Y           Z
 ---------------------------------------------------------------------
      1          8           0        2.214144    0.788432   -0.288658
      2          6           0        1.405906   -0.380619   -0.269620
      3          6           0        0.927906   -0.746413    1.168559
      4          6           0       -0.485183   -0.166751    1.229779
      5          6           0       -1.557948   -0.714134    0.257158
      6          6           0       -0.868260   -1.390856   -0.926036
      7          6           0        0.092310   -0.160133   -1.031445
      8          6           0       -0.820320    0.583254   -0.019195
      9          8           0       -1.177624    1.911914   -0.181169
     10          1           0        1.643665    1.541644   -0.095222
     11          1           0        2.022999   -1.168809   -0.711612
     12          1           0        0.943858   -1.827776    1.343217
     13          1           0        1.598671   -0.285919    1.899062
     14          1           0       -0.890658    0.190250    2.172197
     15          1           0       -2.566714   -0.896207    0.609960
     16          1           0       -0.398123   -2.366237   -0.757196
     17          1           0       -1.526442   -1.461652   -1.795042
     18          1           0        0.220377    0.277341   -2.020810
     19          1           0       -1.506255    2.248506    0.658861
 ---------------------------------------------------------------------

 SCF Done:  E(RB3LYP) =  -423.157237755     A.U. after    1 cycles

 The electronic state is 1-A.
 Alpha  occ. eigenvalues --  -19.15725 -19.12724 -10.23840 -10.22554 -10.19097
 Alpha  occ. eigenvalues --  -10.18947 -10.18601 -10.18564 -10.17701  -1.04077
 Alpha  occ. eigenvalues --   -1.01046  -0.90359  -0.74370  -0.73692  -0.65884
 Alpha  occ. eigenvalues --   -0.60638  -0.57344  -0.54182  -0.52237  -0.49119
 Alpha  occ. eigenvalues --   -0.46565  -0.45459  -0.41616  -0.39268  -0.39060
 Alpha  occ. eigenvalues --   -0.37763  -0.37239  -0.36221  -0.34693  -0.32602
 Alpha  occ. eigenvalues --   -0.30154  -0.26895  -0.25576  -0.23037
 Alpha virt. eigenvalues --    0.06614   0.08992   0.09987   0.10401   0.13706
 Alpha virt. eigenvalues --    0.14239   0.14492   0.15219   0.15924   0.17976
 Alpha virt. eigenvalues --    0.18844   0.19450   0.19531   0.21318   0.22934

 Mulliken charges:
               1
     1  O   -0.445718
     2  C    0.142523
     3  C   -0.267016
     4  C   -0.133317
     5  C   -0.149646
     6  C   -0.242712
     7  C   -0.111413
     8  C    0.380676
     9  O   -0.474986
    10  H    0.284951
    11  H    0.080359
    12  H    0.100158
    13  H    0.105822
    14  H    0.076369
    15  H    0.084202
    16  H    0.093049
    17  H    0.107432
    18  H    0.082442
    19  H    0.286826
 Sum of Mulliken charges =   0.00000

 Dipole moment (field-independent basis, Debye):
    X=             -1.8030    Y=             -0.2225    Z=              1.4975  Tot=              2.3543
 Quadrupole moment (field-independent basis, Debye-Ang):
   XX=            -57.5059   YY=            -51.2352   ZZ=            -51.2854
   XY=             -2.0717   XZ=             -1.4144   YZ=              4.3635

  Exact polarizability:  75.363   0.126  74.041  -0.056   2.414  71.029
 Approx polarizability: 107.030   0.941 113.772  -0.704   1.104 105.988

                      1                      2                      3
                      A                      A                      A
 Frequencies --    113.1311               147.7894               219.8479
 Red. masses --      4.9967                 1.1137                 3.6023
 Frc consts  --      0.0377                 0.0143                 0.1026
 IR Inten    --      2.5594                67.0693                11.6842

                      4                      5                      6
                      A                      A                      A
 Frequencies --    293.5707               322.9285               351.6385
 Red. masses --      1.9857                 1.1773                 3.3511
 Frc consts  --      0.1008                 0.0723                 0.2441
 IR Inten    --      8.8124                74.5873                11.5042

                      7                      8                      9
                      A                      A                      A
 Frequencies --    404.5891               422.1298               485.5009
 Red. masses --      3.4596                 3.7869                 2.0793
 Frc consts  --      0.3337                 0.3976                 0.2888
 IR Inten    --     12.5366                 1.2737                 0.1587

                     10                     11                     12
                      A                      A                      A
 Frequencies --    600.4564               686.2839               723.1099
 Red. masses --      4.0352                 3.4562                 4.0904
 Frc consts  --      0.8572                 0.9591                 1.2602
 IR Inten    --     13.1539                 0.6724                 0.2866

                     13                     14                     15
                      A                      A                      A
 Frequencies --    739.7285               825.0734               839.7708
 Red. masses --      3.7845                 2.6166                 2.0140
 Frc consts  --      1.2201                 1.0495                 0.8368
 IR Inten    --      1.2024                 5.2134                 9.9990

                     16                     17                     18
                      A                      A                      A
 Frequencies --    884.5041               914.8877               940.8972
 Red. masses --      2.2553                 1.9274                 2.1021
 Frc consts  --      1.0395                 0.9505                 1.0964
 IR Inten    --      0.9989                 5.1614                 1.5478

                     19                     20                     21
                      A                      A                      A
 Frequencies --    950.7357               980.7232              1015.2722
 Red. masses --      2.4753                 1.6439                 2.1556
 Frc consts  --      1.3183                 0.9316                 1.3091
 IR Inten    --     25.3282                 0.9185                12.8073

                     22                     23                     24
                      A                      A                      A
 Frequencies --   1021.2336              1045.8745              1073.2923
 Red. masses --      1.6060                 2.0350                 1.8495
 Frc consts  --      0.9869                 1.3115                 1.2553
 IR Inten    --     13.4256                13.8551                30.3185

                     25                     26                     27
                      A                      A                      A
 Frequencies --   1093.4566              1100.6535              1117.5774
 Red. masses --      1.9936                 2.3171                 1.2661
 Frc consts  --      1.4044                 1.6538                 0.9317
 IR Inten    --     34.8400                75.2093                 2.6314

                     28                     29                     30
                      A                      A                      A
 Frequencies --   1163.3574              1194.0514              1222.0842
 Red. masses --      1.5273                 1.3198                 1.6822
 Frc consts  --      1.2178                 1.1086                 1.4802
 IR Inten    --      1.0260                22.1926                24.1135

                     31                     32                     33
                      A                      A                      A
 Frequencies --   1256.7397              1271.6737              1281.7907
 Red. masses --      1.6554                 1.4718                 1.7096
 Frc consts  --      1.5405                 1.4024                 1.6549
 IR Inten    --     39.7366                 7.4449                 6.5723

                     34                     35                     36
                      A                      A                      A
 Frequencies --   1288.4709              1308.0974              1325.4622
 Red. masses --      1.5101                 1.5601                 1.5193
 Frc consts  --      1.4770                 1.5728                 1.5727
 IR Inten    --      2.6296                20.1210                 2.7723

                     37                     38                     39
                      A                      A                      A
 Frequencies --   1370.3790              1430.8647              1457.6835
 Red. masses --      1.7833                 1.2412                 2.9445
 Frc consts  --      1.9731                 1.4973                 3.6862
 IR Inten    --     24.5953                73.3330                60.3230

                     40                     41                     42
                      A                      A                      A
 Frequencies --   1481.5583              1502.8807              3035.2804
 Red. masses --      1.1213                 1.2026                 1.0633
 Frc consts  --      1.4502                 1.6004                 5.7717
 IR Inten    --      1.8406                18.7826                30.9468

                     43                     44                     45
                      A                      A                      A
 Frequencies --   3044.5730              3070.2839              3095.4285
 Red. masses --      1.0643                 1.0846                 1.1008
 Frc consts  --      5.8126                 6.0241                 6.2146
 IR Inten    --     32.9781                48.5500                22.9395

                     46                     47                     48
                      A                      A                      A
 Frequencies --   3101.2486              3126.9347              3153.8205
 Red. masses --      1.1024                 1.0894                 1.0892
 Frc consts  --      6.2467                 6.2757                 6.3833
 IR Inten    --     16.9033                23.5043                11.7374

                     49                     50                     51
                      A                      A                      A
 Frequencies --   3176.0182              3790.3635              3816.0650
 Red. masses --      1.0930                 1.0660                 1.0660
 Frc consts  --      6.4961                 9.0234                 9.1462
 IR Inten    --     25.7509                16.8321                27.6366

 - Thermochemistry -
 -------------------
 Temperature   298.150 Kelvin.  Pressure   1.00000 Atm.
 Atom     1 has atomic number  8 and mass  15.99491

 Molecular mass:   126.06808 amu.
 Principal axes and moments of inertia in atomic units:
                           1         2         3
     Eigenvalues --   758.501371024.381261208.46111
           X            0.99998  -0.00090   0.00631
           Y            0.00056   0.99849   0.05491
           Z           -0.00635  -0.05491   0.99847
 This molecule is an asymmetric top.
 Rotational symmetry number  1.
 Warning -- assumption of classical behavior for rotation
           may cause significant error
 Rotational temperatures (Kelvin)      0.11419     0.08455     0.07167
 Rotational constants (GHZ):           2.37935     1.76179     1.49342
 Zero-point vibrational energy     420366.4 (Joules/Mol)
                                  100.46997 (Kcal/Mol)
 Warning -- explicit consideration of  10 degrees of freedom as
           vibrations may cause significant error
 Vibrational temperatures:    162.77   212.64   316.31   422.38   464.62
          (Kelvin)            505.93   582.11   607.35   698.53   863.92
                              987.41  1040.39  1064.30  1187.10  1208.24
                             1272.60  1316.32  1353.74  1367.89  1411.04
                             1460.75  1469.33  1504.78  1544.23  1573.24
                             1583.59  1607.94  1673.81  1717.97  1758.30
                             1808.17  1829.65  1844.21  1853.82  1882.06
                             1907.04  1971.67  2058.69  2097.28  2131.63
                             2162.31  4367.09  4380.46  4417.45  4453.63
                             4462.00  4498.96  4537.64  4569.58  5453.48
                             5490.46

 Zero-point correction=                           0.160109 (Hartree/Particle)
 Thermal correction to Energy=                    0.168049
 Thermal correction to Enthalpy=                  0.168993
 Thermal correction to Gibbs Free Energy=         0.128026
 Sum of electronic and zero-point Energies=           -422.997129
 Sum of electronic and thermal Energies=              -422.989189
 Sum of electronic and thermal Enthalpies=            -422.988245
 Sum of electronic and thermal Free Energies=         -423.029211

                     E (Thermal)             CV                S
                      KCal/Mol        Cal/Mol-Kelvin    Cal/Mol-Kelvin
 Total                  105.452             31.761             86.222
 Electronic               0.000              0.000              0.000
 Translational            0.889              2.981             40.409
 Rotational               0.889              2.981             28.331
 Vibrational            103.675             25.800             17.482
 Vibration     1          0.607              1.939              3.214
 Vibration     2          0.617              1.905              2.701
 Vibration     3          0.647              1.811              1.960
 Vibration     4          0.688              1.686              1.453
 Vibration     5          0.708              1.630              1.295
 Vibration     6          0.728              1.572              1.159
 Vibration     7          0.770              1.460              0.946
 Vibration     8          0.784              1.422              0.885
 Vibration     9          0.842              1.282              0.695
 Vibration    10          0.959              1.031              0.449

 Optimization completed.
    -- Stationary point found.
 Normal termination of Gaussian 09 at Tue Jan 28 03:59:45 2020.
