 Gaussian 09, Revision D.01,
 Gaussian 09:  ES64L-G09RevD.01 24-Apr-2013

 -----------------------------
 # b3lyp 6-31G(2df,p) opt Freq
 -----------------------------

 -----
 titel
 -----
 Symbolic Z-matrix:
 Charge =  0 Multiplicity = 1

 SCF Done:  E(RB3LYP) =  -423.188452759     A.U. after   14 cycles
 Optimization completed.
    -- Stationary point found.
 Normal termination of Gaussian 09 at Tue Jan 28 03:14:49 2020.

 ----------------------------------------------------------------------
 #N Geom=AllCheck Guess=TCheck SCRF=Check GenChk RB3LYP/6-31G(2df,p) Fr
 eq
 ----------------------------------------------------------------------

 Structure from the checkpoint file:  "/scratch/puck/g09_6c70ce39-6fe6-4e53-9a5f-27ef02a9f0b3/Gau-45099.chk"
 -----
 titel
 -----
 Charge =  0 Multiplicity = 1

                         Standard orientation:
 ---------------------------------------------------------------------
 Center     Atomic      Atomic             Coordinates (Angstroms)
 Number     Number       Type             X           Y           Z
 ---------------------------------------------------------------------
      1          6           0        2.153492    0.880462    0.019507
      2          6           0        1.421927   -0.463327   -0.050186
      3          6           0        0.589195   -0.760541    1.228274
      4          6           0       -0.897592   -0.387826    1.032378
      5          6           0       -1.438968   -1.218872   -0.175468
      6          6           0       -0.731144   -0.190886   -1.108686
      7          8           0        0.637125   -0.524445   -1.257987
      8          6           0       -0.974940    0.804579    0.063749
      9          8           0       -1.312658    1.948968    0.147305
     10          1           0        2.680508    1.061599   -0.920770
     11          1           0        1.467198    1.714344    0.192551
     12          1           0        2.886999    0.869767    0.832748
     13          1           0        2.170700   -1.251958   -0.176495
     14          1           0        0.645085   -1.822956    1.488618
     15          1           0        1.014503   -0.198982    2.065745
     16          1           0       -1.455010   -0.348806    1.968993
     17          1           0       -1.077738   -2.245487   -0.263186
     18          1           0       -2.527485   -1.182412   -0.261221
     19          1           0       -1.132322    0.027169   -2.098933
 ---------------------------------------------------------------------

 SCF Done:  E(RB3LYP) =  -423.188452759     A.U. after    1 cycles

 The electronic state is 1-A.
 Alpha  occ. eigenvalues --  -19.14816 -19.14250 -10.27015 -10.24367 -10.24246
 Alpha  occ. eigenvalues --  -10.20601 -10.20135 -10.19670 -10.17742  -1.05514
 Alpha  occ. eigenvalues --   -1.03719  -0.85286  -0.79299  -0.70609  -0.64470
 Alpha  occ. eigenvalues --   -0.63491  -0.60912  -0.52262  -0.48618  -0.47647
 Alpha  occ. eigenvalues --   -0.46838  -0.45574  -0.42719  -0.41672  -0.40491
 Alpha  occ. eigenvalues --   -0.39346  -0.38694  -0.37976  -0.36284  -0.35787
 Alpha  occ. eigenvalues --   -0.32781  -0.31000  -0.26264  -0.23121
 Alpha virt. eigenvalues --   -0.02208   0.08281   0.10454   0.12204   0.12327
 Alpha virt. eigenvalues --    0.12671   0.14220   0.14902   0.15483   0.16373
 Alpha virt. eigenvalues --    0.16887   0.18022   0.19165   0.19866   0.20550

 Mulliken charges:
               1
     1  C   -0.400885
     2  C    0.123731
     3  C   -0.247125
     4  C   -0.139696
     5  C   -0.253574
     6  C    0.016598
     7  O   -0.285466
     8  C    0.399762
     9  O   -0.323311
    10  H    0.127466
    11  H    0.141932
    12  H    0.113249
    13  H    0.088539
    14  H    0.111022
    15  H    0.115721
    16  H    0.088328
    17  H    0.110925
    18  H    0.115390
    19  H    0.097394
 Sum of Mulliken charges =   0.00000

 Dipole moment (field-independent basis, Debye):
    X=              0.5727    Y=             -2.3235    Z=              1.1251  Tot=              2.6443
 Quadrupole moment (field-independent basis, Debye-Ang):
   XX=            -51.2051   YY=            -58.2919   ZZ=            -53.2254
   XY=              3.9076   XZ=              2.3285   YZ=             -1.6225

  Exact polarizability:  79.448   0.450  74.457   2.177  -1.157  70.192
 Approx polarizability: 108.016  -5.523 118.435   1.779   0.570 106.080

                      1                      2                      3
                      A                      A                      A
 Frequencies --    115.7984               142.5921               202.3495
 Red. masses --      3.4759                 5.4204                 2.3055
 Frc consts  --      0.0275                 0.0649                 0.0556
 IR Inten    --      1.0274                 4.6700                 1.7683

                      4                      5                      6
                      A                      A                      A
 Frequencies --    253.0630               355.1584               378.2603
 Red. masses --      1.2033                 2.7044                 2.4112
 Frc consts  --      0.0454                 0.2010                 0.2033
 IR Inten    --      0.6609                 0.0388                 2.0003

                      7                      8                      9
                      A                      A                      A
 Frequencies --    428.0486               450.6845               475.1903
 Red. masses --      3.9201                 3.2892                 3.1869
 Frc consts  --      0.4232                 0.3936                 0.4240
 IR Inten    --      0.0368                 3.8005                 5.1211

                     10                     11                     12
                      A                      A                      A
 Frequencies --    553.9709               679.6113               759.6593
 Red. masses --      3.9103                 3.0110                 3.1867
 Frc consts  --      0.7070                 0.8194                 1.0835
 IR Inten    --      1.6744                 1.3988                 3.3314

                     13                     14                     15
                      A                      A                      A
 Frequencies --    783.5031               826.7311               860.0597
 Red. masses --      3.8119                 2.8359                 2.7253
 Frc consts  --      1.3787                 1.1420                 1.1877
 IR Inten    --      5.4140                 6.1729                 1.9780

                     16                     17                     18
                      A                      A                      A
 Frequencies --    887.3641               914.5501               943.8541
 Red. masses --      2.8452                 1.6478                 2.2059
 Frc consts  --      1.3200                 0.8120                 1.1578
 IR Inten    --     19.5740                 2.7413                 4.1024

                     19                     20                     21
                      A                      A                      A
 Frequencies --    997.1997              1008.4022              1030.7122
 Red. masses --      2.4445                 1.9979                 2.1425
 Frc consts  --      1.4322                 1.1970                 1.3410
 IR Inten    --     25.2557                10.6526                20.4506

                     22                     23                     24
                      A                      A                      A
 Frequencies --   1057.1987              1092.6511              1111.5284
 Red. masses --      1.4746                 1.7634                 2.4107
 Frc consts  --      0.9711                 1.2404                 1.7548
 IR Inten    --     21.3451                19.6908                19.9116

                     25                     26                     27
                      A                      A                      A
 Frequencies --   1117.2539              1145.6594              1166.9667
 Red. masses --      1.6409                 2.0656                 2.0633
 Frc consts  --      1.2068                 1.5974                 1.6555
 IR Inten    --      0.6753                 5.4836                64.8757

                     28                     29                     30
                      A                      A                      A
 Frequencies --   1208.8446              1232.2998              1263.3956
 Red. masses --      1.6905                 1.6776                 1.4454
 Frc consts  --      1.4555                 1.5010                 1.3593
 IR Inten    --      0.2974                 2.4378                11.4609

                     31                     32                     33
                      A                      A                      A
 Frequencies --   1276.7646              1331.9307              1356.5230
 Red. masses --      1.3674                 1.2714                 1.4753
 Frc consts  --      1.3133                 1.3289                 1.5995
 IR Inten    --      0.5161                 2.4553                 1.6567

                     34                     35                     36
                      A                      A                      A
 Frequencies --   1364.3591              1388.7996              1411.3654
 Red. masses --      1.3457                 1.2610                 1.2526
 Frc consts  --      1.4759                 1.4330                 1.4701
 IR Inten    --     10.6848                 2.9996                12.3074

                     37                     38                     39
                      A                      A                      A
 Frequencies --   1474.6835              1488.3975              1497.6169
 Red. masses --      1.1016                 1.0610                 1.0748
 Frc consts  --      1.4114                 1.3849                 1.4203
 IR Inten    --      2.0447                 2.9767                 0.3346

                     40                     41                     42
                      A                      A                      A
 Frequencies --   1498.5580              1885.4156              3037.3977
 Red. masses --      1.0525                12.0504                 1.0643
 Frc consts  --      1.3926                25.2386                 5.7851
 IR Inten    --      4.6996               245.3443                12.9819

                     43                     44                     45
                      A                      A                      A
 Frequencies --   3040.9719              3052.9754              3067.2547
 Red. masses --      1.0412                 1.0775                 1.0568
 Frc consts  --      5.6731                 5.9172                 5.8578
 IR Inten    --     10.5887                42.6719                14.3864

                     46                     47                     48
                      A                      A                      A
 Frequencies --   3087.4808              3108.3331              3113.2696
 Red. masses --      1.1035                 1.0886                 1.0995
 Frc consts  --      6.1978                 6.1970                 6.2786
 IR Inten    --     21.2192                25.0966                29.1846

                     49                     50                     51
                      A                      A                      A
 Frequencies --   3115.9837              3128.2352              3133.3803
 Red. masses --      1.0908                 1.1024                 1.1096
 Frc consts  --      6.2399                 6.3563                 6.4186
 IR Inten    --     20.7874                19.7619                15.8672

 - Thermochemistry -
 -------------------
 Temperature   298.150 Kelvin.  Pressure   1.00000 Atm.
 Atom     1 has atomic number  6 and mass  12.00000

 Molecular mass:   126.06808 amu.
 Principal axes and moments of inertia in atomic units:
                           1         2         3
     Eigenvalues --   768.660291052.359031191.90826
           X            0.99220   0.12229   0.02409
           Y           -0.12061   0.99076  -0.06201
           Z           -0.03145   0.05863   0.99778
 This molecule is an asymmetric top.
 Rotational symmetry number  1.
 Warning -- assumption of classical behavior for rotation
           may cause significant error
 Rotational temperatures (Kelvin)      0.11268     0.08230     0.07267
 Rotational constants (GHZ):           2.34790     1.71495     1.51416
 Zero-point vibrational energy     420500.9 (Joules/Mol)
                                  100.50212 (Kcal/Mol)
 Warning -- explicit consideration of  10 degrees of freedom as
           vibrations may cause significant error
 Vibrational temperatures:    166.61   205.16   291.14   364.10   510.99
          (Kelvin)            544.23   615.87   648.43   683.69   797.04
                              977.81  1092.98  1127.28  1189.48  1237.43
                             1276.72  1315.83  1357.99  1434.75  1450.86
                             1482.96  1521.07  1572.08  1599.24  1607.48
                             1648.35  1679.00  1739.26  1773.00  1817.74
                             1836.98  1916.35  1951.73  1963.01  1998.17
                             2030.64  2121.74  2141.47  2154.73  2156.09
                             2712.69  4370.13  4375.27  4392.55  4413.09
                             4442.19  4472.19  4479.30  4483.20  4500.83
                             4508.23

 Zero-point correction=                           0.160160 (Hartree/Particle)
 Thermal correction to Energy=                    0.168007
 Thermal correction to Enthalpy=                  0.168951
 Thermal correction to Gibbs Free Energy=         0.128048
 Sum of electronic and zero-point Energies=           -423.028292
 Sum of electronic and thermal Energies=              -423.020446
 Sum of electronic and thermal Enthalpies=            -423.019502
 Sum of electronic and thermal Free Energies=         -423.060405

                     E (Thermal)             CV                S
                      KCal/Mol        Cal/Mol-Kelvin    Cal/Mol-Kelvin
 Total                  105.426             30.893             86.088
 Electronic               0.000              0.000              0.000
 Translational            0.889              2.981             40.409
 Rotational               0.889              2.981             28.357
 Vibrational            103.648             24.932             17.322
 Vibration     1          0.608              1.936              3.169
 Vibration     2          0.616              1.911              2.769
 Vibration     3          0.639              1.837              2.112
 Vibration     4          0.664              1.758              1.709
 Vibration     5          0.731              1.565              1.143
 Vibration     6          0.749              1.516              1.046
 Vibration     7          0.790              1.409              0.865
 Vibration     8          0.809              1.359              0.794
 Vibration     9          0.832              1.305              0.723
 Vibration    10          0.909              1.131              0.536

 Optimization completed.
    -- Stationary point found.
 Normal termination of Gaussian 09 at Tue Jan 28 05:17:52 2020.
