 Gaussian 09, Revision D.01,
 Gaussian 09:  ES64L-G09RevD.01 24-Apr-2013

 -----------------------------
 # b3lyp 6-31G(2df,p) opt Freq
 -----------------------------

 -----
 titel
 -----
 Symbolic Z-matrix:
 Charge =  0 Multiplicity = 1

 SCF Done:  E(RB3LYP) =  -423.172350340     A.U. after   13 cycles
 Optimization completed.
    -- Stationary point found.
 Normal termination of Gaussian 09 at Mon Jan 27 21:59:12 2020.

 ----------------------------------------------------------------------
 #N Geom=AllCheck Guess=TCheck SCRF=Check GenChk RB3LYP/6-31G(2df,p) Fr
 eq
 ----------------------------------------------------------------------

 Structure from the checkpoint file:  "/scratch/puck/g09_aeeb062c-7359-4929-81fb-217fc9622b81/Gau-99232.chk"
 -----
 titel
 -----
 Charge =  0 Multiplicity = 1

                         Standard orientation:
 ---------------------------------------------------------------------
 Center     Atomic      Atomic             Coordinates (Angstroms)
 Number     Number       Type             X           Y           Z
 ---------------------------------------------------------------------
      1          6           0       -3.063400   -0.795270    0.000018
      2          6           0       -1.674799   -0.245942   -0.000038
      3          6           0       -0.510051   -0.890418   -0.000087
      4          6           0        0.630273    0.076895   -0.000032
      5          6           0        1.771186   -0.127016   -1.035311
      6          8           0        2.693136   -0.518703    0.000060
      7          6           0        1.771090   -0.127045    1.035354
      8          8           0        0.023994    1.358418   -0.000062
      9          6           0       -1.394631    1.235520    0.000043
     10          1           0       -3.624298   -0.453644   -0.878913
     11          1           0       -3.062710   -1.887927   -0.000593
     12          1           0       -3.623818   -0.454649    0.879651
     13          1           0       -0.362606   -1.963407   -0.000151
     14          1           0        1.634469   -0.910909   -1.789208
     15          1           0        2.059541    0.813287   -1.522743
     16          1           0        1.634316   -0.910950    1.789227
     17          1           0        2.059393    0.813256    1.522827
     18          1           0       -1.814606    1.738369    0.885611
     19          1           0       -1.814727    1.738506   -0.885385
 ---------------------------------------------------------------------

 SCF Done:  E(RB3LYP) =  -423.172350340     A.U. after    1 cycles

 The electronic state is 1-A.
 Alpha  occ. eigenvalues --  -19.14180 -19.12775 -10.24156 -10.23458 -10.22130
 Alpha  occ. eigenvalues --  -10.22130 -10.19942 -10.19524 -10.18408  -1.04971
 Alpha  occ. eigenvalues --   -1.02411  -0.81171  -0.75876  -0.70374  -0.68700
 Alpha  occ. eigenvalues --   -0.64947  -0.55928  -0.54603  -0.50322  -0.47821
 Alpha  occ. eigenvalues --   -0.46920  -0.45814  -0.43679  -0.42327  -0.41372
 Alpha  occ. eigenvalues --   -0.39954  -0.38573  -0.36969  -0.35526  -0.32502
 Alpha  occ. eigenvalues --   -0.30481  -0.27129  -0.24411  -0.23303
 Alpha virt. eigenvalues --    0.01226   0.08190   0.09005   0.10334   0.12077
 Alpha virt. eigenvalues --    0.13360   0.14814   0.16074   0.16207   0.16655
 Alpha virt. eigenvalues --    0.17585   0.18726   0.18902   0.19223   0.22136

 Mulliken charges:
               1
     1  C   -0.492648
     2  C    0.286560
     3  C   -0.270933
     4  C    0.340035
     5  C   -0.120024
     6  O   -0.273793
     7  C   -0.120023
     8  O   -0.308170
     9  C   -0.170132
    10  H    0.132801
    11  H    0.132245
    12  H    0.132816
    13  H    0.109831
    14  H    0.098889
    15  H    0.105364
    16  H    0.098888
    17  H    0.105362
    18  H    0.106464
    19  H    0.106469
 Sum of Mulliken charges =   0.00000

 Dipole moment (field-independent basis, Debye):
    X=             -3.0476    Y=             -0.5810    Z=              0.0001  Tot=              3.1025
 Quadrupole moment (field-independent basis, Debye-Ang):
   XX=            -55.8669   YY=            -53.6620   ZZ=            -51.2411
   XY=              1.0736   XZ=             -0.0006   YZ=              0.0003

  Exact polarizability:  99.498  -5.386  71.826  -0.002   0.001  65.708
 Approx polarizability: 133.764 -15.330 108.829  -0.003   0.001  96.302

                      1                      2                      3
                      A                      A                      A
 Frequencies --     80.7990                85.8724               157.5971
 Red. masses --      4.3253                 3.2343                 2.3037
 Frc consts  --      0.0166                 0.0141                 0.0337
 IR Inten    --      4.4327                 0.7073                 0.3547

                      4                      5                      6
                      A                      A                      A
 Frequencies --    171.1882               265.3944               298.2385
 Red. masses --      1.0572                 2.3331                 2.9348
 Frc consts  --      0.0183                 0.0968                 0.1538
 IR Inten    --      0.0325                 0.8844                 1.3262

                      7                      8                      9
                      A                      A                      A
 Frequencies --    387.4556               392.9151               451.4145
 Red. masses --      2.3019                 2.7258                 4.9046
 Frc consts  --      0.2036                 0.2479                 0.5888
 IR Inten    --      1.0831                 7.9936                 0.0197

                     10                     11                     12
                      A                      A                      A
 Frequencies --    514.2496               614.5191               797.3082
 Red. masses --      2.5519                 4.5432                 4.5708
 Frc consts  --      0.3976                 1.0108                 1.7120
 IR Inten    --      0.4890                 1.6884                10.2271

                     13                     14                     15
                      A                      A                      A
 Frequencies --    844.8548               863.9241               899.7940
 Red. masses --      1.3236                 3.8488                 2.2586
 Frc consts  --      0.5567                 1.6925                 1.0774
 IR Inten    --      8.4258                 9.2634                 6.1195

                     16                     17                     18
                      A                      A                      A
 Frequencies --    916.9488               943.1072               985.8293
 Red. masses --      2.6285                 1.3877                 4.2390
 Frc consts  --      1.3021                 0.7272                 2.4273
 IR Inten    --     11.4127                 0.2752                 9.1589

                     19                     20                     21
                      A                      A                      A
 Frequencies --    997.4306              1012.4264              1031.0880
 Red. masses --      1.3647                 1.6247                10.7523
 Frc consts  --      0.7999                 0.9812                 6.7351
 IR Inten    --     10.7189                20.4832                81.8432

                     22                     23                     24
                      A                      A                      A
 Frequencies --   1051.6246              1070.0309              1093.6166
 Red. masses --      5.3349                 4.6465                 1.7653
 Frc consts  --      3.4761                 3.1345                 1.2439
 IR Inten    --     10.7961                10.8354                 0.0125

                     25                     26                     27
                      A                      A                      A
 Frequencies --   1116.6983              1149.0150              1159.8500
 Red. masses --      3.1622                 1.0807                 1.3355
 Frc consts  --      2.3233                 0.8407                 1.0585
 IR Inten    --     88.6939                 0.0764                 0.4088

                     28                     29                     30
                      A                      A                      A
 Frequencies --   1200.8542              1229.2793              1263.0942
 Red. masses --      1.0895                 1.7839                 2.7997
 Frc consts  --      0.9257                 1.5883                 2.6317
 IR Inten    --      0.8286                20.9430                31.8974

                     31                     32                     33
                      A                      A                      A
 Frequencies --   1289.8593              1337.8216              1368.6769
 Red. masses --      1.2975                 2.4413                 1.7144
 Frc consts  --      1.2718                 2.5744                 1.8922
 IR Inten    --      0.9733                 8.1945                 1.7142

                     34                     35                     36
                      A                      A                      A
 Frequencies --   1385.7628              1414.8715              1479.7294
 Red. masses --      1.7039                 1.2861                 1.0436
 Frc consts  --      1.9278                 1.5169                 1.3463
 IR Inten    --      1.8614                 1.1400                 7.2497

                     37                     38                     39
                      A                      A                      A
 Frequencies --   1488.9837              1495.7228              1517.6551
 Red. masses --      1.0621                 1.0761                 1.0864
 Frc consts  --      1.3874                 1.4184                 1.4743
 IR Inten    --      6.6594                 0.6575                 1.4347

                     40                     41                     42
                      A                      A                      A
 Frequencies --   1525.4531              1730.1227              2974.3163
 Red. masses --      1.1141                 7.4373                 1.0556
 Frc consts  --      1.5274                13.1166                 5.5022
 IR Inten    --      1.9113                10.7863                82.9949

                     43                     44                     45
                      A                      A                      A
 Frequencies --   2992.6288              3006.4337              3018.1615
 Red. masses --      1.1058                 1.0523                 1.0574
 Frc consts  --      5.8351                 5.6040                 5.6751
 IR Inten    --     36.3537               104.9991                11.2189

                     46                     47                     48
                      A                      A                      A
 Frequencies --   3021.8742              3067.0412              3067.4067
 Red. masses --      1.0389                 1.1092                 1.1123
 Frc consts  --      5.5893                 6.1477                 6.1663
 IR Inten    --     31.8727                 5.7581                62.2138

                     49                     50                     51
                      A                      A                      A
 Frequencies --   3068.1934              3118.7601              3211.0382
 Red. masses --      1.0987                 1.0989                 1.0955
 Frc consts  --      6.0938                 6.2976                 6.6553
 IR Inten    --     19.4201                15.0775                 4.3677

 - Thermochemistry -
 -------------------
 Temperature   298.150 Kelvin.  Pressure   1.00000 Atm.
 Atom     1 has atomic number  6 and mass  12.00000

 Molecular mass:   126.06808 amu.
 Principal axes and moments of inertia in atomic units:
                           1         2         3
     Eigenvalues --   454.756451660.910261830.04201
           X            0.99993   0.01152   0.00000
           Y           -0.01152   0.99993   0.00001
           Z            0.00000  -0.00001   1.00000
 This molecule is an asymmetric top.
 Rotational symmetry number  1.
 Warning -- assumption of classical behavior for rotation
           may cause significant error
 Rotational temperatures (Kelvin)      0.19046     0.05215     0.04733
 Rotational constants (GHZ):           3.96859     1.08660     0.98617
 Zero-point vibrational energy     416461.5 (Joules/Mol)
                                   99.53669 (Kcal/Mol)
 Warning -- explicit consideration of  11 degrees of freedom as
           vibrations may cause significant error
 Vibrational temperatures:    116.25   123.55   226.75   246.30   381.84
          (Kelvin)            429.10   557.46   565.32   649.48   739.89
                              884.15  1147.15  1215.56  1242.99  1294.60
                             1319.28  1356.92  1418.39  1435.08  1456.65
                             1483.50  1513.05  1539.53  1573.47  1606.68
                             1653.17  1668.76  1727.76  1768.66  1817.31
                             1855.82  1924.82  1969.22  1993.80  2035.68
                             2129.00  2142.31  2152.01  2183.56  2194.78
                             2489.26  4279.37  4305.72  4325.58  4342.46
                             4347.80  4412.78  4413.31  4414.44  4487.19
                             4619.96

 Zero-point correction=                           0.158622 (Hartree/Particle)
 Thermal correction to Energy=                    0.167145
 Thermal correction to Enthalpy=                  0.168089
 Thermal correction to Gibbs Free Energy=         0.125048
 Sum of electronic and zero-point Energies=           -423.013729
 Sum of electronic and thermal Energies=              -423.005205
 Sum of electronic and thermal Enthalpies=            -423.004261
 Sum of electronic and thermal Free Energies=         -423.047302

                     E (Thermal)             CV                S
                      KCal/Mol        Cal/Mol-Kelvin    Cal/Mol-Kelvin
 Total                  104.885             31.551             90.587
 Electronic               0.000              0.000              0.000
 Translational            0.889              2.981             40.409
 Rotational               0.889              2.981             28.715
 Vibrational            103.108             25.589             21.463
 Vibration     1          0.600              1.962              3.871
 Vibration     2          0.601              1.959              3.752
 Vibration     3          0.621              1.894              2.578
 Vibration     4          0.626              1.878              2.422
 Vibration     5          0.671              1.736              1.626
 Vibration     6          0.691              1.677              1.427
 Vibration     7          0.756              1.497              1.010
 Vibration     8          0.760              1.485              0.989
 Vibration     9          0.810              1.358              0.792
 Vibration    10          0.869              1.218              0.623
 Vibration    11          0.974              1.001              0.425

 Optimization completed.
    -- Stationary point found.
 Normal termination of Gaussian 09 at Mon Jan 27 22:37:41 2020.
