 Gaussian 09, Revision D.01,
 Gaussian 09:  ES64L-G09RevD.01 24-Apr-2013

 -----------------------------
 # b3lyp 6-31G(2df,p) opt Freq
 -----------------------------

 -----
 titel
 -----
 Symbolic Z-matrix:
 Charge =  0 Multiplicity = 1

 SCF Done:  E(RB3LYP) =  -423.146499907     A.U. after   14 cycles
 Optimization completed.
    -- Stationary point found.
 Normal termination of Gaussian 09 at Mon Jan 27 22:01:06 2020.

 ----------------------------------------------------------------------
 #N Geom=AllCheck Guess=TCheck SCRF=Check GenChk RB3LYP/6-31G(2df,p) Fr
 eq
 ----------------------------------------------------------------------

 Structure from the checkpoint file:  "/scratch/puck/g09_6cdd4055-c0cc-45a5-90fe-3c89b11912a8/Gau-98605.chk"
 -----
 titel
 -----
 Charge =  0 Multiplicity = 1

                         Standard orientation:
 ---------------------------------------------------------------------
 Center     Atomic      Atomic             Coordinates (Angstroms)
 Number     Number       Type             X           Y           Z
 ---------------------------------------------------------------------
      1          6           0       -0.552828    2.183769    0.015945
      2          6           0       -0.481062    0.793816   -0.593333
      3          6           0       -1.206503   -0.421886    0.045284
      4          8           0       -2.578553   -0.472460    0.181100
      5          6           0       -0.282289   -1.341637   -0.816924
      6          6           0        0.635759   -0.246761   -0.176308
      7          6           0       -0.114274   -0.476972    1.161396
      8          6           0        2.096868   -0.106022   -0.392019
      9          8           0        2.926634   -0.128950    0.483623
     10          1           0       -0.372392    2.197865    1.092882
     11          1           0        0.180006    2.848554   -0.452912
     12          1           0       -1.545551    2.611306   -0.159606
     13          1           0       -0.622658    0.849068   -1.678530
     14          1           0       -2.811166   -1.247931    0.703170
     15          1           0       -0.118075   -2.360953   -0.458151
     16          1           0       -0.418887   -1.300198   -1.900131
     17          1           0        0.051232   -1.448650    1.633642
     18          1           0       -0.091891    0.326096    1.896572
     19          1           0        2.390710    0.030285   -1.458965
 ---------------------------------------------------------------------

 SCF Done:  E(RB3LYP) =  -423.146499907     A.U. after    1 cycles

 The electronic state is 1-A.
 Alpha  occ. eigenvalues --  -19.15506 -19.13816 -10.26976 -10.25898 -10.21673
 Alpha  occ. eigenvalues --  -10.20696 -10.19933 -10.19170 -10.18041  -1.04445
 Alpha  occ. eigenvalues --   -1.04206  -0.92002  -0.74538  -0.68823  -0.68117
 Alpha  occ. eigenvalues --   -0.63684  -0.58646  -0.53373  -0.52022  -0.47879
 Alpha  occ. eigenvalues --   -0.45404  -0.44276  -0.43927  -0.41938  -0.39654
 Alpha  occ. eigenvalues --   -0.39192  -0.37595  -0.36162  -0.35617  -0.32537
 Alpha  occ. eigenvalues --   -0.32034  -0.30301  -0.26998  -0.24933
 Alpha virt. eigenvalues --   -0.02733   0.07198   0.09832   0.11762   0.12372
 Alpha virt. eigenvalues --    0.12723   0.14033   0.14668   0.15091   0.15200
 Alpha virt. eigenvalues --    0.16875   0.17877   0.18934   0.21747   0.23162

 Mulliken charges:
               1
     1  C   -0.446494
     2  C   -0.032247
     3  C    0.388624
     4  O   -0.470063
     5  C   -0.337476
     6  C    0.243391
     7  C   -0.346871
     8  C    0.033986
     9  O   -0.250480
    10  H    0.126758
    11  H    0.122405
    12  H    0.133317
    13  H    0.074035
    14  H    0.285616
    15  H    0.098087
    16  H    0.101730
    17  H    0.097114
    18  H    0.108927
    19  H    0.069640
 Sum of Mulliken charges =   0.00000

 Dipole moment (field-independent basis, Debye):
    X=             -1.9603    Y=             -0.7975    Z=             -0.7259  Tot=              2.2373
 Quadrupole moment (field-independent basis, Debye-Ang):
   XX=            -64.2474   YY=            -49.2046   ZZ=            -51.7229
   XY=              3.3396   XZ=             -5.9145   YZ=             -1.4434

  Exact polarizability:  84.573   0.504  75.531   0.427  -1.334  72.603
 Approx polarizability: 125.072   0.488 105.903   7.872  -2.615 115.175

                      1                      2                      3
                      A                      A                      A
 Frequencies --     63.6446               147.6905               163.5604
 Red. masses --      5.1926                 2.1788                 1.4219
 Frc consts  --      0.0124                 0.0280                 0.0224
 IR Inten    --      4.7853                 3.8973                 3.3989

                      4                      5                      6
                      A                      A                      A
 Frequencies --    191.1508               225.2725               241.9627
 Red. masses --      2.4318                 1.6279                 1.5922
 Frc consts  --      0.0524                 0.0487                 0.0549
 IR Inten    --      0.7202                34.1685                62.8683

                      7                      8                      9
                      A                      A                      A
 Frequencies --    318.2808               396.0712               437.8304
 Red. masses --      3.0640                 3.7137                 3.2664
 Frc consts  --      0.1829                 0.3432                 0.3689
 IR Inten    --      1.4273                 7.0852                 2.4110

                     10                     11                     12
                      A                      A                      A
 Frequencies --    472.3104               545.3348               588.1249
 Red. masses --      3.6404                 2.1448                 2.2803
 Frc consts  --      0.4785                 0.3758                 0.4647
 IR Inten    --      0.4646                 2.0282                 0.7716

                     13                     14                     15
                      A                      A                      A
 Frequencies --    646.3313               698.0154               736.1599
 Red. masses --      4.3437                 3.4849                 3.2766
 Frc consts  --      1.0691                 1.0004                 1.0462
 IR Inten    --     13.9915                18.6430                 7.4366

                     16                     17                     18
                      A                      A                      A
 Frequencies --    812.7424               848.8797               947.5633
 Red. masses --      2.2331                 2.9429                 2.7731
 Frc consts  --      0.8691                 1.2494                 1.4670
 IR Inten    --      3.7951                23.4993                 7.7345

                     19                     20                     21
                      A                      A                      A
 Frequencies --    988.3115              1003.3311              1020.0530
 Red. masses --      1.3246                 1.1688                 1.8285
 Frc consts  --      0.7623                 0.6932                 1.1210
 IR Inten    --      0.1497                 0.9069                 3.7484

                     22                     23                     24
                      A                      A                      A
 Frequencies --   1074.6575              1086.4296              1097.7008
 Red. masses --      2.0181                 1.8371                 1.4744
 Frc consts  --      1.3732                 1.2776                 1.0467
 IR Inten    --      9.9078                 1.4531                14.9767

                     25                     26                     27
                      A                      A                      A
 Frequencies --   1116.9380              1135.6050              1145.4534
 Red. masses --      1.5677                 1.5800                 1.8620
 Frc consts  --      1.1524                 1.2005                 1.4394
 IR Inten    --     20.3441                 2.0158                 1.7459

                     28                     29                     30
                      A                      A                      A
 Frequencies --   1150.0459              1169.3132              1175.6901
 Red. masses --      1.8735                 2.3933                 1.7011
 Frc consts  --      1.4599                 1.9280                 1.3854
 IR Inten    --     11.9710                 5.0220                 3.8669

                     31                     32                     33
                      A                      A                      A
 Frequencies --   1280.3664              1329.4000              1366.3844
 Red. masses --      2.4928                 2.9756                 1.7998
 Frc consts  --      2.4078                 3.0984                 1.9798
 IR Inten    --    116.7745               122.8142                24.9640

                     34                     35                     36
                      A                      A                      A
 Frequencies --   1407.1177              1423.4749              1427.2934
 Red. masses --      1.2484                 1.2506                 1.4859
 Frc consts  --      1.4563                 1.4930                 1.7834
 IR Inten    --      4.6301                 9.3980                29.5909

                     37                     38                     39
                      A                      A                      A
 Frequencies --   1487.4187              1493.3319              1509.3582
 Red. masses --      1.0787                 1.0481                 1.0955
 Frc consts  --      1.4061                 1.3772                 1.4705
 IR Inten    --      0.4131                 4.0156                10.3731

                     40                     41                     42
                      A                      A                      A
 Frequencies --   1550.0402              1813.1594              2858.5904
 Red. masses --      1.2600                10.8071                 1.0815
 Frc consts  --      1.7837                20.9330                 5.2067
 IR Inten    --     29.8918               196.2424               117.8789

                     43                     44                     45
                      A                      A                      A
 Frequencies --   3039.9145              3044.8522              3056.6377
 Red. masses --      1.0547                 1.0652                 1.0545
 Frc consts  --      5.7422                 5.8186                 5.8049
 IR Inten    --     18.1399                34.0849                39.9405

                     46                     47                     48
                      A                      A                      A
 Frequencies --   3073.2159              3100.3362              3124.7545
 Red. masses --      1.0608                 1.1008                 1.1017
 Frc consts  --      5.9032                 6.2342                 6.3379
 IR Inten    --     17.5181                15.2294                 7.0600

                     49                     50                     51
                      A                      A                      A
 Frequencies --   3129.8966              3151.4602              3808.8297
 Red. masses --      1.1100                 1.1036                 1.0658
 Frc consts  --      6.4067                 6.4578                 9.1095
 IR Inten    --     47.1927                27.8465                32.7090

 - Thermochemistry -
 -------------------
 Temperature   298.150 Kelvin.  Pressure   1.00000 Atm.
 Atom     1 has atomic number  6 and mass  12.00000

 Molecular mass:   126.06808 amu.
 Principal axes and moments of inertia in atomic units:
                           1         2         3
     Eigenvalues --   641.442281409.878891680.23103
           X            0.99991  -0.00288  -0.01323
           Y            0.00291   0.99999   0.00189
           Z            0.01322  -0.00193   0.99991
 This molecule is an asymmetric top.
 Rotational symmetry number  1.
 Warning -- assumption of classical behavior for rotation
           may cause significant error
 Rotational temperatures (Kelvin)      0.13503     0.06143     0.05155
 Rotational constants (GHZ):           2.81357     1.28007     1.07410
 Zero-point vibrational energy     413431.1 (Joules/Mol)
                                   98.81241 (Kcal/Mol)
 Warning -- explicit consideration of  12 degrees of freedom as
           vibrations may cause significant error
 Vibrational temperatures:     91.57   212.49   235.33   275.02   324.12
          (Kelvin)            348.13   457.93   569.86   629.94   679.55
                              784.61   846.18   929.93  1004.29  1059.17
                             1169.35  1221.35  1363.33  1421.96  1443.57
                             1467.63  1546.19  1563.13  1579.34  1607.02
                             1633.88  1648.05  1654.66  1682.38  1691.55
                             1842.16  1912.71  1965.92  2024.53  2048.06
                             2053.55  2140.06  2148.57  2171.63  2230.16
                             2608.73  4112.87  4373.75  4380.86  4397.81
                             4421.67  4460.69  4495.82  4503.22  4534.24
                             5480.05

 Zero-point correction=                           0.157468 (Hartree/Particle)
 Thermal correction to Energy=                    0.166476
 Thermal correction to Enthalpy=                  0.167420
 Thermal correction to Gibbs Free Energy=         0.123725
 Sum of electronic and zero-point Energies=           -422.989032
 Sum of electronic and thermal Energies=              -422.980024
 Sum of electronic and thermal Enthalpies=            -422.979080
 Sum of electronic and thermal Free Energies=         -423.022775

                     E (Thermal)             CV                S
                      KCal/Mol        Cal/Mol-Kelvin    Cal/Mol-Kelvin
 Total                  104.465             33.818             91.964
 Electronic               0.000              0.000              0.000
 Translational            0.889              2.981             40.409
 Rotational               0.889              2.981             28.809
 Vibrational            102.688             27.857             22.747
 Vibration     1          0.597              1.972              4.341
 Vibration     2          0.617              1.905              2.702
 Vibration     3          0.623              1.887              2.508
 Vibration     4          0.634              1.852              2.217
 Vibration     5          0.650              1.803              1.916
 Vibration     6          0.658              1.776              1.788
 Vibration     7          0.705              1.639              1.319
 Vibration     8          0.763              1.479              0.977
 Vibration     9          0.798              1.388              0.833
 Vibration    10          0.829              1.311              0.731
 Vibration    11          0.900              1.150              0.554
 Vibration    12          0.945              1.057              0.471

 Optimization completed.
    -- Stationary point found.
 Normal termination of Gaussian 09 at Mon Jan 27 22:47:31 2020.
