 Gaussian 09, Revision D.01,
 Gaussian 09:  ES64L-G09RevD.01 24-Apr-2013

 -----------------------------
 # b3lyp 6-31G(2df,p) opt Freq
 -----------------------------

 -----
 titel
 -----
 Symbolic Z-matrix:
 Charge =  0 Multiplicity = 1

 SCF Done:  E(RB3LYP) =  -423.115729744     A.U. after   14 cycles
 Optimization completed.
    -- Stationary point found.
 Normal termination of Gaussian 09 at Tue Jan 28 12:07:40 2020.

 ----------------------------------------------------------------------
 #N Geom=AllCheck Guess=TCheck SCRF=Check GenChk RB3LYP/6-31G(2df,p) Fr
 eq
 ----------------------------------------------------------------------

 Structure from the checkpoint file:  "/scratch/puck/g09_e4da42f0-ebca-4ab3-8a2a-753e545220a2/Gau-138089.chk"
 -----
 titel
 -----
 Charge =  0 Multiplicity = 1

                         Standard orientation:
 ---------------------------------------------------------------------
 Center     Atomic      Atomic             Coordinates (Angstroms)
 Number     Number       Type             X           Y           Z
 ---------------------------------------------------------------------
      1          6           0       -3.286635    0.074645   -0.177750
      2          8           0       -1.940862   -0.337728   -0.130989
      3          6           0       -1.041618    0.737605   -0.064960
      4          6           0        0.377349    0.221407    0.128299
      5          8           0        0.562316   -0.687388    1.223952
      6          6           0        0.709975   -1.204741   -0.103204
      7          6           0        2.077883   -1.681065   -0.510222
      8          6           0        1.380286    1.250820   -0.020002
      9          6           0        2.171352    2.145741   -0.157578
     10          1           0       -3.494952    0.689685   -1.067354
     11          1           0       -3.901156   -0.827418   -0.219070
     12          1           0       -3.564296    0.655640    0.715216
     13          1           0       -1.076641    1.345117   -0.984747
     14          1           0       -1.287099    1.405312    0.777880
     15          1           0       -0.128119   -1.826421   -0.412876
     16          1           0        2.848975   -0.964322   -0.220747
     17          1           0        2.296002   -2.642480   -0.033837
     18          1           0        2.120846   -1.826530   -1.594905
     19          1           0        2.883252    2.925866   -0.270762
 ---------------------------------------------------------------------

 SCF Done:  E(RB3LYP) =  -423.115729744     A.U. after    1 cycles

 The electronic state is 1-A.
 Alpha  occ. eigenvalues --  -19.14891 -19.14849 -10.26035 -10.23840 -10.23767
 Alpha  occ. eigenvalues --  -10.23002 -10.18884 -10.18428 -10.17915  -1.07411
 Alpha  occ. eigenvalues --   -1.04032  -0.78271  -0.74402  -0.73644  -0.67653
 Alpha  occ. eigenvalues --   -0.62356  -0.60260  -0.52924  -0.50813  -0.49932
 Alpha  occ. eigenvalues --   -0.48158  -0.46591  -0.44037  -0.41703  -0.41371
 Alpha  occ. eigenvalues --   -0.39253  -0.37751  -0.36552  -0.33417  -0.31931
 Alpha  occ. eigenvalues --   -0.28241  -0.27215  -0.26319  -0.25522
 Alpha virt. eigenvalues --    0.02758   0.03857   0.08810   0.11766   0.12049
 Alpha virt. eigenvalues --    0.13030   0.13790   0.13854   0.14783   0.16273
 Alpha virt. eigenvalues --    0.16730   0.17590   0.18001   0.19098   0.21678

 Mulliken charges:
               1
     1  C   -0.226807
     2  O   -0.233227
     3  C   -0.157271
     4  C    0.172676
     5  O   -0.289235
     6  C    0.043278
     7  C   -0.433817
     8  C    0.280567
     9  C   -0.416253
    10  H    0.106393
    11  H    0.131435
    12  H    0.110920
    13  H    0.101249
    14  H    0.107027
    15  H    0.114013
    16  H    0.138043
    17  H    0.130013
    18  H    0.123422
    19  H    0.197575
 Sum of Mulliken charges =   0.00000

 Dipole moment (field-independent basis, Debye):
    X=             -0.6682    Y=              0.9193    Z=             -1.7008  Tot=              2.0455
 Quadrupole moment (field-independent basis, Debye-Ang):
   XX=            -45.5709   YY=            -48.9312   ZZ=            -56.4536
   XY=              0.4137   XZ=             -1.3062   YZ=              1.2304

  Exact polarizability:  91.817   8.617  89.165  -2.501  -0.058  57.871
 Approx polarizability: 115.725  21.273 134.689  -4.520  -4.249  92.281

                      1                      2                      3
                      A                      A                      A
 Frequencies --     67.1401                84.1126               124.2962
 Red. masses --      2.7600                 2.2574                 3.6867
 Frc consts  --      0.0073                 0.0094                 0.0336
 IR Inten    --      3.8223                 1.3403                 0.5909

                      4                      5                      6
                      A                      A                      A
 Frequencies --    149.0582               170.2547               209.2633
 Red. masses --      2.6784                 1.2994                 2.8312
 Frc consts  --      0.0351                 0.0222                 0.0730
 IR Inten    --      1.3773                 0.3559                 0.4790

                      7                      8                      9
                      A                      A                      A
 Frequencies --    222.2990               247.2076               325.8539
 Red. masses --      1.4683                 1.9699                 3.7673
 Frc consts  --      0.0428                 0.0709                 0.2357
 IR Inten    --      0.6034                 5.1278                 0.8151

                     10                     11                     12
                      A                      A                      A
 Frequencies --    348.2601               467.3832               469.8438
 Red. masses --      3.4031                 3.3331                 6.2868
 Frc consts  --      0.2432                 0.4290                 0.8177
 IR Inten    --      2.3461                10.5738                 3.8957

                     13                     14                     15
                      A                      A                      A
 Frequencies --    559.1484               589.7202               628.4079
 Red. masses --      7.3030                 4.3783                 1.2228
 Frc consts  --      1.3452                 0.8971                 0.2845
 IR Inten    --      6.4933                 0.9216                39.8510

                     16                     17                     18
                      A                      A                      A
 Frequencies --    668.5164               714.5321               772.8651
 Red. masses --      1.2631                 3.8566                 3.4197
 Frc consts  --      0.3326                 1.1601                 1.2035
 IR Inten    --     33.9391                11.9288                10.8330

                     19                     20                     21
                      A                      A                      A
 Frequencies --    904.4668               964.5211              1010.2644
 Red. masses --      3.0773                 1.6638                 2.8405
 Frc consts  --      1.4832                 0.9119                 1.7081
 IR Inten    --     23.2206                20.2873                12.5745

                     22                     23                     24
                      A                      A                      A
 Frequencies --   1039.7686              1080.1824              1133.7410
 Red. masses --      2.6036                 1.9975                 2.5674
 Frc consts  --      1.6584                 1.3732                 1.9443
 IR Inten    --      9.1753                 6.6661                38.8678

                     25                     26                     27
                      A                      A                      A
 Frequencies --   1148.7858              1175.1420              1186.0018
 Red. masses --      2.6783                 2.5478                 1.3151
 Frc consts  --      2.0825                 2.0730                 1.0899
 IR Inten    --     68.7328                70.3118                 6.2957

                     28                     29                     30
                      A                      A                      A
 Frequencies --   1209.4657              1236.6523              1275.0233
 Red. masses --      1.7500                 1.9943                 1.1376
 Frc consts  --      1.5083                 1.7970                 1.0896
 IR Inten    --     57.0292                25.1640                 9.7469

                     31                     32                     33
                      A                      A                      A
 Frequencies --   1325.9830              1405.1168              1422.6691
 Red. masses --      1.5831                 1.3279                 1.4264
 Frc consts  --      1.6400                 1.5447                 1.7010
 IR Inten    --      8.6016                 1.0408                25.4383

                     34                     35                     36
                      A                      A                      A
 Frequencies --   1448.2830              1478.5754              1485.4794
 Red. masses --      2.0169                 1.1343                 1.0493
 Frc consts  --      2.4925                 1.4610                 1.3642
 IR Inten    --     13.3364                 2.7495                 3.5884

                     37                     38                     39
                      A                      A                      A
 Frequencies --   1486.3159              1496.4446              1498.4309
 Red. masses --      1.0648                 1.1361                 1.1308
 Frc consts  --      1.3859                 1.4990                 1.4959
 IR Inten    --      6.0142                 0.7105                12.0652

                     40                     41                     42
                      A                      A                      A
 Frequencies --   1520.6210              2235.8403              2958.6308
 Red. masses --      1.0954                 5.9625                 1.0516
 Frc consts  --      1.4924                17.5615                 5.4237
 IR Inten    --      2.4541                 0.7505                29.2831

                     43                     44                     45
                      A                      A                      A
 Frequencies --   2976.0399              2991.0741              3020.5036
 Red. masses --      1.0395                 1.1050                 1.1033
 Frc consts  --      5.4244                 5.8245                 5.9305
 IR Inten    --     73.6650                47.5079                50.0225

                     46                     47                     48
                      A                      A                      A
 Frequencies --   3040.4494              3103.0073              3119.7331
 Red. masses --      1.0366                 1.1005                 1.0963
 Frc consts  --      5.6458                 6.2432                 6.2863
 IR Inten    --     18.5292                15.9884                25.5188

                     49                     50                     51
                      A                      A                      A
 Frequencies --   3128.0632              3145.7919              3500.4670
 Red. masses --      1.0935                 1.0940                 1.1618
 Frc consts  --      6.3039                 6.3784                 8.3874
 IR Inten    --      0.1764                21.6707                70.9590

 - Thermochemistry -
 -------------------
 Temperature   298.150 Kelvin.  Pressure   1.00000 Atm.
 Atom     1 has atomic number  6 and mass  12.00000

 Molecular mass:   126.06808 amu.
 Principal axes and moments of inertia in atomic units:
                           1         2         3
     Eigenvalues --   731.428511611.694002097.35822
           X            0.99936  -0.03507  -0.00732
           Y            0.03522   0.99915   0.02146
           Z            0.00656  -0.02171   0.99974
 This molecule is an asymmetric top.
 Rotational symmetry number  1.
 Warning -- assumption of classical behavior for rotation
           may cause significant error
 Rotational temperatures (Kelvin)      0.11842     0.05374     0.04130
 Rotational constants (GHZ):           2.46742     1.11978     0.86048
 Zero-point vibrational energy     406549.1 (Joules/Mol)
                                   97.16756 (Kcal/Mol)
 Warning -- explicit consideration of  14 degrees of freedom as
           vibrations may cause significant error
 Vibrational temperatures:     96.60   121.02   178.83   214.46   244.96
          (Kelvin)            301.08   319.84   355.68   468.83   501.07
                              672.46   676.00   804.49   848.47   904.14
                              961.84  1028.05  1111.98  1301.32  1387.73
                             1453.54  1495.99  1554.14  1631.20  1652.84
                             1690.77  1706.39  1740.15  1779.26  1834.47
                             1907.79  2021.65  2046.90  2083.75  2127.34
                             2137.27  2138.47  2153.05  2155.91  2187.83
                             3216.87  4256.80  4281.85  4303.48  4345.83
                             4374.52  4464.53  4488.59  4500.58  4526.09
                             5036.39

 Zero-point correction=                           0.154846 (Hartree/Particle)
 Thermal correction to Energy=                    0.165185
 Thermal correction to Enthalpy=                  0.166129
 Thermal correction to Gibbs Free Energy=         0.119210
 Sum of electronic and zero-point Energies=           -422.960883
 Sum of electronic and thermal Energies=              -422.950545
 Sum of electronic and thermal Enthalpies=            -422.949601
 Sum of electronic and thermal Free Energies=         -422.996519

                     E (Thermal)             CV                S
                      KCal/Mol        Cal/Mol-Kelvin    Cal/Mol-Kelvin
 Total                  103.655             36.655             98.748
 Electronic               0.000              0.000              0.000
 Translational            0.889              2.981             40.409
 Rotational               0.889              2.981             29.293
 Vibrational            101.878             30.693             29.047
 Vibration     1          0.598              1.970              4.236
 Vibration     2          0.601              1.960              3.793
 Vibration     3          0.610              1.929              3.032
 Vibration     4          0.618              1.904              2.684
 Vibration     5          0.625              1.879              2.433
 Vibration     6          0.642              1.827              2.050
 Vibration     7          0.648              1.807              1.940
 Vibration     8          0.661              1.767              1.750
 Vibration     9          0.710              1.624              1.281
 Vibration    10          0.726              1.579              1.174
 Vibration    11          0.825              1.322              0.745
 Vibration    12          0.827              1.317              0.738
 Vibration    13          0.915              1.120              0.526
 Vibration    14          0.947              1.054              0.468

 Optimization completed.
    -- Stationary point found.
 Normal termination of Gaussian 09 at Tue Jan 28 12:47:25 2020.
