 Gaussian 09, Revision D.01,
 Gaussian 09:  ES64L-G09RevD.01 24-Apr-2013

 -----------------------------
 # b3lyp 6-31G(2df,p) opt Freq
 -----------------------------

 -----
 titel
 -----
 Symbolic Z-matrix:
 Charge =  0 Multiplicity = 1

 SCF Done:  E(RB3LYP) =  -423.112260957     A.U. after   12 cycles
 Optimization completed.
    -- Stationary point found.
 Normal termination of Gaussian 09 at Tue Jan 28 09:44:38 2020.

 ----------------------------------------------------------------------
 #N Geom=AllCheck Guess=TCheck SCRF=Check GenChk RB3LYP/6-31G(2df,p) Fr
 eq
 ----------------------------------------------------------------------

 Structure from the checkpoint file:  "/scratch/puck/g09_be4871db-a63a-4f6f-ab0d-7c3f1b5099d1/Gau-132376.chk"
 -----
 titel
 -----
 Charge =  0 Multiplicity = 1

                         Standard orientation:
 ---------------------------------------------------------------------
 Center     Atomic      Atomic             Coordinates (Angstroms)
 Number     Number       Type             X           Y           Z
 ---------------------------------------------------------------------
      1          8           0        2.437374   -1.097381    0.300958
      2          6           0        1.714439   -0.312389   -0.642228
      3          6           0        0.503194    0.359947   -0.069772
      4          6           0        0.559206    1.566908    0.854852
      5          6           0       -0.197338    1.654707   -0.431301
      6          8           0       -1.503387    1.080574   -0.301903
      7          6           0       -0.906653   -0.195421   -0.013481
      8          6           0       -1.566512   -1.185729    0.884371
      9          6           0       -1.450794   -1.446786   -0.615508
     10          1           0        1.857998   -1.801182    0.608633
     11          1           0        2.423412    0.446538   -0.989314
     12          1           0        1.426527   -0.912775   -1.519270
     13          1           0        0.014669    1.569811    1.794366
     14          1           0        1.522174    2.068527    0.873546
     15          1           0       -0.038270    2.372975   -1.226879
     16          1           0       -0.954469   -1.766933    1.566872
     17          1           0       -2.547345   -0.925949    1.267308
     18          1           0       -0.757371   -2.208553   -0.958308
     19          1           0       -2.352472   -1.355427   -1.210988
 ---------------------------------------------------------------------

 SCF Done:  E(RB3LYP) =  -423.112260957     A.U. after    1 cycles

 The electronic state is 1-A.
 Alpha  occ. eigenvalues --  -19.14239 -19.13702 -10.24722 -10.24293 -10.23526
 Alpha  occ. eigenvalues --  -10.20189 -10.19127 -10.19052 -10.18981  -1.05908
 Alpha  occ. eigenvalues --   -1.01711  -0.85397  -0.84062  -0.70445  -0.63460
 Alpha  occ. eigenvalues --   -0.61485  -0.59910  -0.52785  -0.52005  -0.51180
 Alpha  occ. eigenvalues --   -0.48139  -0.45676  -0.44792  -0.42635  -0.40495
 Alpha  occ. eigenvalues --   -0.37740  -0.36748  -0.36346  -0.33913  -0.32556
 Alpha  occ. eigenvalues --   -0.29498  -0.27605  -0.25833  -0.22919
 Alpha virt. eigenvalues --    0.04641   0.07303   0.10357   0.11636   0.12057
 Alpha virt. eigenvalues --    0.12474   0.13780   0.14651   0.15117   0.16394
 Alpha virt. eigenvalues --    0.17623   0.20152   0.20638   0.21343   0.22173

 Mulliken charges:
               1
     1  O   -0.410005
     2  C   -0.185788
     3  C    0.151203
     4  C   -0.343050
     5  C    0.045177
     6  O   -0.319510
     7  C    0.427904
     8  C   -0.336574
     9  C   -0.349990
    10  H    0.281982
    11  H    0.112362
    12  H    0.094568
    13  H    0.118747
    14  H    0.118696
    15  H    0.109616
    16  H    0.111683
    17  H    0.129870
    18  H    0.112408
    19  H    0.130703
 Sum of Mulliken charges =   0.00000

 Dipole moment (field-independent basis, Debye):
    X=             -0.0277    Y=             -0.7023    Z=             -0.2793  Tot=              0.7563
 Quadrupole moment (field-independent basis, Debye-Ang):
   XX=            -60.3133   YY=            -49.9424   ZZ=            -51.7579
   XY=              4.3879   XZ=             -1.9916   YZ=             -1.1352

  Exact polarizability:  76.585   5.759  80.801  -0.093   0.179  68.757
 Approx polarizability: 107.445   3.306 116.027   2.590  -1.633 104.060

                      1                      2                      3
                      A                      A                      A
 Frequencies --     52.0471               119.5144               174.0419
 Red. masses --      3.2201                 3.3781                 2.9334
 Frc consts  --      0.0051                 0.0284                 0.0524
 IR Inten    --      2.3301                 1.0499                 0.4236

                      4                      5                      6
                      A                      A                      A
 Frequencies --    203.3398               259.0982               286.6007
 Red. masses --      1.7289                 1.4619                 2.5649
 Frc consts  --      0.0421                 0.0578                 0.1241
 IR Inten    --     30.2685                66.6309                 7.9671

                      7                      8                      9
                      A                      A                      A
 Frequencies --    361.2165               402.3191               468.6215
 Red. masses --      2.2980                 4.2841                 2.3302
 Frc consts  --      0.1767                 0.4086                 0.3015
 IR Inten    --      2.1819                 3.8065                 5.6992

                     10                     11                     12
                      A                      A                      A
 Frequencies --    509.3778               567.1920               705.7989
 Red. masses --      3.8046                 3.6111                 2.5305
 Frc consts  --      0.5816                 0.6845                 0.7427
 IR Inten    --      0.4249                 2.9301                 5.2902

                     13                     14                     15
                      A                      A                      A
 Frequencies --    756.2260               819.4492               869.1416
 Red. masses --      1.1305                 2.5474                 1.4315
 Frc consts  --      0.3809                 1.0078                 0.6371
 IR Inten    --      3.0506                13.3838                 6.4725

                     16                     17                     18
                      A                      A                      A
 Frequencies --    871.9087               895.3067               911.2843
 Red. masses --      2.4475                 1.8419                 1.9477
 Frc consts  --      1.0962                 0.8699                 0.9530
 IR Inten    --     14.6241                12.2646                11.3590

                     19                     20                     21
                      A                      A                      A
 Frequencies --    956.1336               974.5580               994.8722
 Red. masses --      2.3445                 2.9483                 1.8499
 Frc consts  --      1.2628                 1.6498                 1.0788
 IR Inten    --     13.0171                13.8389                12.1187

                     22                     23                     24
                      A                      A                      A
 Frequencies --   1004.1458              1037.8021              1043.2383
 Red. masses --      2.3564                 2.0648                 1.5882
 Frc consts  --      1.3999                 1.3103                 1.0184
 IR Inten    --     13.6372                75.5444                11.8548

                     25                     26                     27
                      A                      A                      A
 Frequencies --   1051.3958              1066.6245              1075.7193
 Red. masses --      2.4978                 1.5297                 2.5389
 Frc consts  --      1.6268                 1.0253                 1.7310
 IR Inten    --     58.0406                 0.3646                19.2563

                     28                     29                     30
                      A                      A                      A
 Frequencies --   1085.1598              1147.7886              1183.9714
 Red. masses --      1.7593                 1.6117                 1.2630
 Frc consts  --      1.2206                 1.2510                 1.0432
 IR Inten    --     36.3596                18.1220                 0.2799

                     31                     32                     33
                      A                      A                      A
 Frequencies --   1203.6776              1270.4902              1284.2396
 Red. masses --      1.5946                 1.9570                 2.0823
 Frc consts  --      1.3612                 1.8612                 2.0234
 IR Inten    --     10.2993                20.7430                19.6860

                     34                     35                     36
                      A                      A                      A
 Frequencies --   1370.4337              1377.2874              1404.4316
 Red. masses --      1.6874                 1.4621                 1.6327
 Frc consts  --      1.8672                 1.6341                 1.8974
 IR Inten    --      1.8360                 7.1519                14.3151

                     37                     38                     39
                      A                      A                      A
 Frequencies --   1424.5910              1448.5995              1476.3179
 Red. masses --      1.5066                 1.0908                 1.4383
 Frc consts  --      1.8015                 1.3486                 1.8469
 IR Inten    --     49.2517                 1.4930                 9.9715

                     40                     41                     42
                      A                      A                      A
 Frequencies --   1494.1293              1506.1802              2983.9953
 Red. masses --      1.1011                 1.9259                 1.0694
 Frc consts  --      1.4483                 2.5742                 5.6103
 IR Inten    --      1.9874                23.5457                49.9525

                     43                     44                     45
                      A                      A                      A
 Frequencies --   3071.8911              3119.5449              3125.8790
 Red. masses --      1.0929                 1.0534                 1.0516
 Frc consts  --      6.0763                 6.0401                 6.0541
 IR Inten    --     22.9989                 9.5472                13.0898

                     46                     47                     48
                      A                      A                      A
 Frequencies --   3129.1560              3184.2507              3210.2538
 Red. masses --      1.0585                 1.0949                 1.1171
 Frc consts  --      6.1066                 6.5410                 6.7831
 IR Inten    --      5.3819                18.9746                 0.0275

                     49                     50                     51
                      A                      A                      A
 Frequencies --   3212.0685              3224.1451              3822.5034
 Red. masses --      1.1162                 1.1146                 1.0664
 Frc consts  --      6.7849                 6.8264                 9.1804
 IR Inten    --      7.7281                 9.1754                12.8305

 - Thermochemistry -
 -------------------
 Temperature   298.150 Kelvin.  Pressure   1.00000 Atm.
 Atom     1 has atomic number  8 and mass  15.99491

 Molecular mass:   126.06808 amu.
 Principal axes and moments of inertia in atomic units:
                           1         2         3
     Eigenvalues --   788.184911124.756171566.51310
           X            0.99593   0.08897  -0.01411
           Y           -0.08884   0.99600   0.00997
           Z            0.01494  -0.00868   0.99985
 This molecule is an asymmetric top.
 Rotational symmetry number  1.
 Warning -- assumption of classical behavior for rotation
           may cause significant error
 Rotational temperatures (Kelvin)      0.10989     0.07701     0.05529
 Rotational constants (GHZ):           2.28974     1.60456     1.15208
 Zero-point vibrational energy     413895.7 (Joules/Mol)
                                   98.92345 (Kcal/Mol)
 Warning -- explicit consideration of  11 degrees of freedom as
           vibrations may cause significant error
 Vibrational temperatures:     74.88   171.95   250.41   292.56   372.78
          (Kelvin)            412.35   519.71   578.85   674.24   732.88
                              816.06  1015.49  1088.04  1179.00  1250.50
                             1254.48  1288.15  1311.13  1375.66  1402.17
                             1431.40  1444.74  1493.16  1500.99  1512.72
                             1534.63  1547.72  1561.30  1651.41  1703.47
                             1731.82  1827.95  1847.73  1971.75  1981.61
                             2020.66  2049.67  2084.21  2124.09  2149.72
                             2167.05  4293.30  4419.76  4488.32  4497.44
                             4502.15  4581.42  4618.83  4621.44  4638.82
                             5499.72

 Zero-point correction=                           0.157645 (Hartree/Particle)
 Thermal correction to Energy=                    0.166343
 Thermal correction to Enthalpy=                  0.167287
 Thermal correction to Gibbs Free Energy=         0.124012
 Sum of electronic and zero-point Energies=           -422.954616
 Sum of electronic and thermal Energies=              -422.945918
 Sum of electronic and thermal Enthalpies=            -422.944974
 Sum of electronic and thermal Free Energies=         -422.988249

                     E (Thermal)             CV                S
                      KCal/Mol        Cal/Mol-Kelvin    Cal/Mol-Kelvin
 Total                  104.382             33.153             91.080
 Electronic               0.000              0.000              0.000
 Translational            0.889              2.981             40.409
 Rotational               0.889              2.981             28.720
 Vibrational            102.604             27.192             21.952
 Vibration     1          0.596              1.977              4.738
 Vibration     2          0.609              1.933              3.108
 Vibration     3          0.627              1.874              2.391
 Vibration     4          0.639              1.835              2.103
 Vibration     5          0.668              1.747              1.668
 Vibration     6          0.684              1.699              1.494
 Vibration     7          0.735              1.552              1.117
 Vibration     8          0.768              1.465              0.954
 Vibration     9          0.826              1.320              0.741
 Vibration    10          0.865              1.229              0.635
 Vibration    11          0.923              1.102              0.510

 Normal termination of Gaussian 09 at Tue Jan 28 10:28:59 2020.
