 Gaussian 09, Revision D.01,
 Gaussian 09:  ES64L-G09RevD.01 24-Apr-2013

 -----------------------------
 # b3lyp 6-31G(2df,p) opt Freq
 -----------------------------

 -----
 titel
 -----
 Symbolic Z-matrix:
 Charge =  0 Multiplicity = 1

 SCF Done:  E(RB3LYP) =  -423.203119157     A.U. after   13 cycles
 Optimization completed.
    -- Stationary point found.
 Normal termination of Gaussian 09 at Mon Jan 27 12:20:43 2020.

 ----------------------------------------------------------------------
 #N Geom=AllCheck Guess=TCheck SCRF=Check GenChk RB3LYP/6-31G(2df,p) Fr
 eq
 ----------------------------------------------------------------------

 Structure from the checkpoint file:  "/scratch/puck/g09_3c28b058-63d5-4c58-8939-adb4c79bfcf8/Gau-152707.chk"
 -----
 titel
 -----
 Charge =  0 Multiplicity = 1

                         Standard orientation:
 ---------------------------------------------------------------------
 Center     Atomic      Atomic             Coordinates (Angstroms)
 Number     Number       Type             X           Y           Z
 ---------------------------------------------------------------------
      1          6           0       -1.349383   -0.190430   -0.991325
      2          8           0       -1.001323   -1.351176   -0.270638
      3          6           0        0.161776   -1.207120    0.555366
      4          6           0        1.462537   -1.013761   -0.251674
      5          6           0        1.720423    0.418177   -0.650007
      6          6           0        0.944914    1.431447   -0.262345
      7          6           0       -0.274652    1.195157    0.601560
      8          6           0       -0.060550   -0.024606    1.502662
      9          8           0       -1.459254    0.959936   -0.192085
     10          1           0       -0.629559   -0.021831   -1.807632
     11          1           0       -2.343336   -0.372481   -1.406877
     12          1           0        0.217988   -2.152222    1.102031
     13          1           0        2.309513   -1.381217    0.346048
     14          1           0        1.428050   -1.656249   -1.140507
     15          1           0        2.588418    0.601532   -1.280010
     16          1           0        1.145339    2.445598   -0.594502
     17          1           0       -0.512505    2.088092    1.184469
     18          1           0        0.801632    0.123120    2.161081
     19          1           0       -0.951327   -0.197605    2.112269
 ---------------------------------------------------------------------

 SCF Done:  E(RB3LYP) =  -423.203119157     A.U. after    1 cycles

 The electronic state is 1-A.
 Alpha  occ. eigenvalues --  -19.13784 -19.13609 -10.26266 -10.23531 -10.23478
 Alpha  occ. eigenvalues --  -10.19251 -10.19127 -10.18212 -10.17972  -1.06245
 Alpha  occ. eigenvalues --   -0.99500  -0.83377  -0.75480  -0.73415  -0.66868
 Alpha  occ. eigenvalues --   -0.62603  -0.59218  -0.52702  -0.49953  -0.48137
 Alpha  occ. eigenvalues --   -0.47484  -0.45385  -0.43823  -0.42670  -0.41546
 Alpha  occ. eigenvalues --   -0.40065  -0.38886  -0.34950  -0.33396  -0.32524
 Alpha  occ. eigenvalues --   -0.31448  -0.26298  -0.25285  -0.24688
 Alpha virt. eigenvalues --    0.00724   0.08271   0.12177   0.12431   0.13866
 Alpha virt. eigenvalues --    0.14195   0.15148   0.15396   0.16253   0.17195
 Alpha virt. eigenvalues --    0.18470   0.18728   0.19073   0.21785   0.22723

 Mulliken charges:
               1
     1  C    0.019654
     2  O   -0.268922
     3  C    0.095708
     4  C   -0.274152
     5  C   -0.049683
     6  C   -0.082538
     7  C    0.062878
     8  C   -0.226155
     9  O   -0.264683
    10  H    0.086217
    11  H    0.115529
    12  H    0.081419
    13  H    0.112654
    14  H    0.121102
    15  H    0.092874
    16  H    0.091762
    17  H    0.080425
    18  H    0.098074
    19  H    0.107836
 Sum of Mulliken charges =   0.00000

 Dipole moment (field-independent basis, Debye):
    X=              2.0258    Y=              0.0997    Z=              0.2778  Tot=              2.0472
 Quadrupole moment (field-independent basis, Debye-Ang):
   XX=            -53.9864   YY=            -53.8675   ZZ=            -50.8152
   XY=             -0.6036   XZ=             -0.0639   YZ=             -0.0370

  Exact polarizability:  77.780  -3.905  77.110  -2.344   0.861  68.377
 Approx polarizability: 116.030 -11.433 118.888  -3.443   4.902 100.082

                      1                      2                      3
                      A                      A                      A
 Frequencies --    168.2364               255.3066               333.8898
 Red. masses --      3.1393                 2.9958                 2.3783
 Frc consts  --      0.0524                 0.1151                 0.1562
 IR Inten    --      0.5146                 0.1828                 4.3009

                      4                      5                      6
                      A                      A                      A
 Frequencies --    375.0897               399.4539               428.0353
 Red. masses --      2.3041                 5.7228                 2.3804
 Frc consts  --      0.1910                 0.5380                 0.2570
 IR Inten    --      2.5714                 3.7578                 5.4047

                      7                      8                      9
                      A                      A                      A
 Frequencies --    498.1738               552.5042               646.3413
 Red. masses --      2.2805                 6.3058                 3.5677
 Frc consts  --      0.3335                 1.1341                 0.8781
 IR Inten    --      8.0984                 0.4110                 4.2309

                     10                     11                     12
                      A                      A                      A
 Frequencies --    685.0553               730.3085               794.8876
 Red. masses --      3.8351                 1.8289                 3.3552
 Frc consts  --      1.0604                 0.5747                 1.2490
 IR Inten    --      5.0343                10.6750                10.4860

                     13                     14                     15
                      A                      A                      A
 Frequencies --    825.9572               872.3254               909.9968
 Red. masses --      3.0171                 3.5393                 2.3444
 Frc consts  --      1.2127                 1.5868                 1.1438
 IR Inten    --      7.3586                23.0083                10.0953

                     16                     17                     18
                      A                      A                      A
 Frequencies --    924.7668               949.6590              1001.3245
 Red. masses --      2.3832                 2.1226                 1.2902
 Frc consts  --      1.2008                 1.1279                 0.7622
 IR Inten    --      1.2485                 4.8993                 1.3049

                     19                     20                     21
                      A                      A                      A
 Frequencies --   1015.5183              1017.2347              1028.4253
 Red. masses --      3.8386                 3.8252                 2.3134
 Frc consts  --      2.3323                 2.3321                 1.4416
 IR Inten    --     13.9007                76.5601                 3.6180

                     22                     23                     24
                      A                      A                      A
 Frequencies --   1064.9330              1077.5820              1136.0457
 Red. masses --      2.2329                 1.8544                 2.6560
 Frc consts  --      1.4920                 1.2687                 2.0196
 IR Inten    --     13.9108                31.1034                82.2902

                     25                     26                     27
                      A                      A                      A
 Frequencies --   1152.5687              1191.3536              1205.6097
 Red. masses --      1.1679                 2.1191                 1.1061
 Frc consts  --      0.9141                 1.7720                 0.9472
 IR Inten    --     19.6659                52.5978                10.9207

                     28                     29                     30
                      A                      A                      A
 Frequencies --   1244.4154              1286.0849              1306.6915
 Red. masses --      1.2229                 1.5220                 1.2544
 Frc consts  --      1.1158                 1.4832                 1.2619
 IR Inten    --     22.3398                10.1966                 0.7865

                     31                     32                     33
                      A                      A                      A
 Frequencies --   1351.3119              1354.1246              1368.7564
 Red. masses --      1.5384                 1.6520                 1.2384
 Frc consts  --      1.6552                 1.7847                 1.3670
 IR Inten    --      6.2269                 4.7091                 7.7914

                     34                     35                     36
                      A                      A                      A
 Frequencies --   1384.3753              1391.2198              1417.9272
 Red. masses --      1.3841                 1.3677                 1.4991
 Frc consts  --      1.5629                 1.5597                 1.7757
 IR Inten    --      2.2846                 6.1228                 2.4798

                     37                     38                     39
                      A                      A                      A
 Frequencies --   1447.3943              1454.6040              1471.8608
 Red. masses --      1.2065                 1.0955                 1.1067
 Frc consts  --      1.4892                 1.3657                 1.4126
 IR Inten    --      9.6118                 6.3144                 4.3117

                     40                     41                     42
                      A                      A                      A
 Frequencies --   1515.0350              1710.7010              2979.8746
 Red. masses --      1.0921                 6.3576                 1.0686
 Frc consts  --      1.4769                10.9621                 5.5909
 IR Inten    --      0.6966                 4.7044                67.1559

                     43                     44                     45
                      A                      A                      A
 Frequencies --   3005.7462              3047.8801              3049.5972
 Red. masses --      1.0666                 1.0916                 1.0634
 Frc consts  --      5.6776                 5.9745                 5.8268
 IR Inten    --     20.8813                 7.6047                18.5925

                     46                     47                     48
                      A                      A                      A
 Frequencies --   3071.3419              3079.3627              3101.3791
 Red. masses --      1.0860                 1.0868                 1.0955
 Frc consts  --      6.0359                 6.0717                 6.2084
 IR Inten    --     53.8350                35.6621                32.9140

                     49                     50                     51
                      A                      A                      A
 Frequencies --   3105.8785              3144.0167              3177.1288
 Red. masses --      1.1049                 1.0856                 1.0962
 Frc consts  --      6.2796                 6.3223                 6.5195
 IR Inten    --     25.4580                12.4808                24.7959

 - Thermochemistry -
 -------------------
 Temperature   298.150 Kelvin.  Pressure   1.00000 Atm.
 Atom     1 has atomic number  6 and mass  12.00000

 Molecular mass:   126.06808 amu.
 Principal axes and moments of inertia in atomic units:
                           1         2         3
     Eigenvalues --   764.87116 872.378011095.14206
           X            0.99857  -0.05230  -0.01075
           Y            0.05225   0.99862  -0.00451
           Z            0.01097   0.00394   0.99993
 This molecule is an asymmetric top.
 Rotational symmetry number  1.
 Warning -- assumption of classical behavior for rotation
           may cause significant error
 Rotational temperatures (Kelvin)      0.11324     0.09928     0.07909
 Rotational constants (GHZ):           2.35954     2.06876     1.64795
 Zero-point vibrational energy     428904.8 (Joules/Mol)
                                  102.51072 (Kcal/Mol)
 Warning -- explicit consideration of   8 degrees of freedom as
           vibrations may cause significant error
 Vibrational temperatures:    242.05   367.33   480.39   539.67   574.72
          (Kelvin)            615.85   716.76   794.93   929.94   985.64
                             1050.75  1143.66  1188.37  1255.08  1309.28
                             1330.53  1366.35  1440.68  1461.10  1463.57
                             1479.67  1532.20  1550.40  1634.51  1658.29
                             1714.09  1734.60  1790.43  1850.39  1880.04
                             1944.23  1948.28  1969.33  1991.80  2001.65
                             2040.08  2082.47  2092.85  2117.68  2179.79
                             2461.31  4287.37  4324.59  4385.21  4387.68
                             4418.97  4430.51  4462.19  4468.66  4523.53
                             4571.17

 Zero-point correction=                           0.163361 (Hartree/Particle)
 Thermal correction to Energy=                    0.170099
 Thermal correction to Enthalpy=                  0.171043
 Thermal correction to Gibbs Free Energy=         0.132643
 Sum of electronic and zero-point Energies=           -423.039758
 Sum of electronic and thermal Energies=              -423.033020
 Sum of electronic and thermal Enthalpies=            -423.032076
 Sum of electronic and thermal Free Energies=         -423.070476

                     E (Thermal)             CV                S
                      KCal/Mol        Cal/Mol-Kelvin    Cal/Mol-Kelvin
 Total                  106.739             28.244             80.819
 Electronic               0.000              0.000              0.000
 Translational            0.889              2.981             40.409
 Rotational               0.889              2.981             28.082
 Vibrational            104.961             22.283             12.329
 Vibration     1          0.625              1.882              2.455
 Vibration     2          0.666              1.754              1.694
 Vibration     3          0.715              1.608              1.241
 Vibration     4          0.746              1.523              1.059
 Vibration     5          0.766              1.471              0.965
 Vibration     6          0.790              1.409              0.865
 Vibration     7          0.854              1.254              0.663
 Vibration     8          0.908              1.134              0.539

 Optimization completed.
    -- Stationary point found.
 Normal termination of Gaussian 09 at Mon Jan 27 13:12:47 2020.
