 Gaussian 09, Revision D.01,
 Gaussian 09:  ES64L-G09RevD.01 24-Apr-2013

 -----------------------------
 # b3lyp 6-31G(2df,p) opt Freq
 -----------------------------

 -----
 titel
 -----
 Symbolic Z-matrix:
 Charge =  0 Multiplicity = 1

 SCF Done:  E(RB3LYP) =  -423.161792228     A.U. after   14 cycles
 Optimization completed.
    -- Stationary point found.
 Normal termination of Gaussian 09 at Mon Jan 27 14:10:48 2020.

 ----------------------------------------------------------------------
 #N Geom=AllCheck Guess=TCheck SCRF=Check GenChk RB3LYP/6-31G(2df,p) Fr
 eq
 ----------------------------------------------------------------------

 Structure from the checkpoint file:  "/scratch/puck/g09_2c2c0422-de08-4edf-b8a0-8418102f50a0/Gau-70676.chk"
 -----
 titel
 -----
 Charge =  0 Multiplicity = 1

                         Standard orientation:
 ---------------------------------------------------------------------
 Center     Atomic      Atomic             Coordinates (Angstroms)
 Number     Number       Type             X           Y           Z
 ---------------------------------------------------------------------
      1          6           0        2.902707   -0.823633   -0.575405
      2          6           0        1.988300    0.127866    0.173222
      3          8           0        2.220222    1.313084    0.253577
      4          6           0        0.735570   -0.473828    0.802616
      5          6           0       -0.446444   -0.433288   -0.177743
      6          6           0       -0.962678    1.016113   -0.514223
      7          6           0       -2.286029    0.652493    0.169476
      8          8           0       -2.815589   -0.493339   -0.513121
      9          6           0       -1.814131   -0.706010    0.481409
     10          1           0        3.677148   -0.264860   -1.101783
     11          1           0        3.371479   -1.515712    0.134595
     12          1           0        2.334129   -1.437050   -1.283256
     13          1           0        0.917498   -1.510830    1.109052
     14          1           0        0.493175    0.114494    1.693651
     15          1           0       -0.256936   -1.070547   -1.046999
     16          1           0       -0.384699    1.780838    0.008170
     17          1           0       -1.045846    1.277763   -1.571374
     18          1           0       -2.996657    1.290950    0.681040
     19          1           0       -2.050121   -1.381287    1.297150
 ---------------------------------------------------------------------

 SCF Done:  E(RB3LYP) =  -423.161792229     A.U. after    1 cycles

 The electronic state is 1-A.
 Alpha  occ. eigenvalues --  -19.15157 -19.13116 -10.27394 -10.23908 -10.23833
 Alpha  occ. eigenvalues --  -10.20705 -10.19765 -10.19293 -10.18817  -1.07881
 Alpha  occ. eigenvalues --   -1.04162  -0.82455  -0.76276  -0.71784  -0.65869
 Alpha  occ. eigenvalues --   -0.62447  -0.55506  -0.53634  -0.52117  -0.47688
 Alpha  occ. eigenvalues --   -0.46847  -0.44824  -0.43780  -0.43139  -0.40728
 Alpha  occ. eigenvalues --   -0.39715  -0.38366  -0.36266  -0.35258  -0.34034
 Alpha  occ. eigenvalues --   -0.33598  -0.29257  -0.25810  -0.24433
 Alpha virt. eigenvalues --   -0.01627   0.07844   0.09082   0.11289   0.11902
 Alpha virt. eigenvalues --    0.12764   0.13612   0.13769   0.14468   0.15222
 Alpha virt. eigenvalues --    0.16152   0.17123   0.18148   0.18460   0.21060

 Mulliken charges:
               1
     1  C   -0.476103
     2  C    0.390761
     3  O   -0.300221
     4  C   -0.320668
     5  C   -0.017877
     6  C   -0.267413
     7  C    0.033598
     8  O   -0.249135
     9  C    0.019250
    10  H    0.143903
    11  H    0.142838
    12  H    0.140185
    13  H    0.103511
    14  H    0.120956
    15  H    0.085193
    16  H    0.133406
    17  H    0.111546
    18  H    0.105233
    19  H    0.101037
 Sum of Mulliken charges =   0.00000

 Dipole moment (field-independent basis, Debye):
    X=              0.6578    Y=             -1.7820    Z=              0.9069  Tot=              2.1049
 Quadrupole moment (field-independent basis, Debye-Ang):
   XX=            -58.6791   YY=            -54.1512   ZZ=            -51.9019
   XY=             -8.8318   XZ=             -4.4452   YZ=             -1.5413

  Exact polarizability:  88.281  -2.652  75.419  -3.450  -1.542  62.870
 Approx polarizability: 111.890   1.835 124.762   0.692   0.075  96.738

                      1                      2                      3
                      A                      A                      A
 Frequencies --     49.5189                74.8122               118.7808
 Red. masses --      3.6305                 3.8987                 2.5878
 Frc consts  --      0.0052                 0.0129                 0.0215
 IR Inten    --      4.3122                 4.5982                 1.8151

                      4                      5                      6
                      A                      A                      A
 Frequencies --    138.7783               184.9979               285.7720
 Red. masses --      1.2729                 3.2375                 4.5769
 Frc consts  --      0.0144                 0.0653                 0.2202
 IR Inten    --      0.2249                 1.0187                 0.5280

                      7                      8                      9
                      A                      A                      A
 Frequencies --    368.6951               433.9872               463.8682
 Red. masses --      2.3488                 1.7831                 4.3931
 Frc consts  --      0.1881                 0.1979                 0.5569
 IR Inten    --      0.7193                 1.4777                 4.2927

                     10                     11                     12
                      A                      A                      A
 Frequencies --    540.1853               596.2691               740.6845
 Red. masses --      3.4219                 2.3348                 3.8335
 Frc consts  --      0.5883                 0.4891                 1.2391
 IR Inten    --     23.9432                 0.1955                 1.7266

                     13                     14                     15
                      A                      A                      A
 Frequencies --    794.9979               815.1749               843.4877
 Red. masses --      3.3093                 2.9557                 2.4811
 Frc consts  --      1.2323                 1.1572                 1.0401
 IR Inten    --      1.3963                 5.4238                 3.7095

                     16                     17                     18
                      A                      A                      A
 Frequencies --    864.7995               895.4454               918.1915
 Red. masses --      1.9141                 1.8750                 1.9298
 Frc consts  --      0.8434                 0.8858                 0.9586
 IR Inten    --     27.3174                 3.9058                 8.1436

                     19                     20                     21
                      A                      A                      A
 Frequencies --    945.6319               971.9829               994.8345
 Red. masses --      1.9971                 2.1215                 2.0464
 Frc consts  --      1.0522                 1.1809                 1.1933
 IR Inten    --      4.1308                 6.0376                27.0400

                     22                     23                     24
                      A                      A                      A
 Frequencies --   1030.9136              1060.3539              1072.4614
 Red. masses --      1.4220                 1.8095                 2.3395
 Frc consts  --      0.8904                 1.1987                 1.5854
 IR Inten    --      2.7554                 0.7382                 7.9126

                     25                     26                     27
                      A                      A                      A
 Frequencies --   1097.6837              1136.8871              1208.3459
 Red. masses --      2.0699                 1.3972                 1.7667
 Frc consts  --      1.4695                 1.0640                 1.5199
 IR Inten    --      3.7649                10.1483                18.9733

                     28                     29                     30
                      A                      A                      A
 Frequencies --   1215.2068              1230.5717              1238.3692
 Red. masses --      1.4043                 1.3977                 1.3979
 Frc consts  --      1.2218                 1.2471                 1.2631
 IR Inten    --      6.5818                40.5941                13.0847

                     31                     32                     33
                      A                      A                      A
 Frequencies --   1248.1869              1275.8365              1312.3956
 Red. masses --      1.4618                 1.5472                 1.6518
 Frc consts  --      1.3418                 1.4838                 1.6762
 IR Inten    --     24.1756                 2.3612                16.5104

                     34                     35                     36
                      A                      A                      A
 Frequencies --   1356.1135              1382.3640              1389.5775
 Red. masses --      1.4691                 1.3282                 3.3973
 Frc consts  --      1.5919                 1.4955                 3.8650
 IR Inten    --      8.7806                40.9962                24.4422

                     37                     38                     39
                      A                      A                      A
 Frequencies --   1460.5386              1473.0179              1476.1232
 Red. masses --      1.0547                 1.0835                 1.0753
 Frc consts  --      1.3256                 1.3851                 1.3804
 IR Inten    --      9.8658                 1.0252                 7.5999

                     40                     41                     42
                      A                      A                      A
 Frequencies --   1486.1788              1806.9266              3030.7247
 Red. masses --      1.1028                10.4482                 1.0508
 Frc consts  --      1.4351                20.0989                 5.6868
 IR Inten    --      6.3508               132.1823                 8.0291

                     43                     44                     45
                      A                      A                      A
 Frequencies --   3035.2586              3058.4985              3075.8958
 Red. masses --      1.0454                 1.0848                 1.0599
 Frc consts  --      5.6742                 5.9786                 5.9085
 IR Inten    --     10.6108                15.1435                17.7879

                     46                     47                     48
                      A                      A                      A
 Frequencies --   3091.2071              3092.8112              3136.3780
 Red. masses --      1.1026                 1.0975                 1.1075
 Frc consts  --      6.2077                 6.1856                 6.4190
 IR Inten    --     24.5470                 8.5229                10.7275

                     49                     50                     51
                      A                      A                      A
 Frequencies --   3153.2607              3171.2045              3192.8999
 Red. masses --      1.1017                 1.0887                 1.0995
 Frc consts  --      6.4543                 6.4509                 6.6039
 IR Inten    --     10.1334                17.9429                22.9018

 - Thermochemistry -
 -------------------
 Temperature   298.150 Kelvin.  Pressure   1.00000 Atm.
 Atom     1 has atomic number  6 and mass  12.00000

 Molecular mass:   126.06808 amu.
 Principal axes and moments of inertia in atomic units:
                           1         2         3
     Eigenvalues --   431.368271998.751792168.51128
           X            0.99941  -0.03118  -0.01471
           Y            0.03083   0.99925  -0.02338
           Z            0.01542   0.02291   0.99962
 This molecule is an asymmetric top.
 Rotational symmetry number  1.
 Rotational temperatures (Kelvin)      0.20079     0.04333     0.03994
 Rotational constants (GHZ):           4.18376     0.90293     0.83225
 Zero-point vibrational energy     412933.5 (Joules/Mol)
                                   98.69347 (Kcal/Mol)
 Warning -- explicit consideration of  11 degrees of freedom as
           vibrations may cause significant error
 Vibrational temperatures:     71.25   107.64   170.90   199.67   266.17
          (Kelvin)            411.16   530.47   624.41   667.40   777.21
                              857.90  1065.68  1143.82  1172.85  1213.59
                             1244.25  1288.34  1321.07  1360.55  1398.46
                             1431.34  1483.25  1525.61  1543.03  1579.32
                             1635.72  1738.54  1748.41  1770.52  1781.73
                             1795.86  1835.64  1888.24  1951.14  1988.91
                             1999.29  2101.39  2119.34  2123.81  2138.28
                             2599.76  4360.53  4367.05  4400.49  4425.52
                             4447.55  4449.86  4512.54  4536.83  4562.65
                             4593.87

 Zero-point correction=                           0.157278 (Hartree/Particle)
 Thermal correction to Energy=                    0.166236
 Thermal correction to Enthalpy=                  0.167180
 Thermal correction to Gibbs Free Energy=         0.122519
 Sum of electronic and zero-point Energies=           -423.004514
 Sum of electronic and thermal Energies=              -422.995556
 Sum of electronic and thermal Enthalpies=            -422.994612
 Sum of electronic and thermal Free Energies=         -423.039273

                     E (Thermal)             CV                S
                      KCal/Mol        Cal/Mol-Kelvin    Cal/Mol-Kelvin
 Total                  104.315             32.597             93.997
 Electronic               0.000              0.000              0.000
 Translational            0.889              2.981             40.409
 Rotational               0.889              2.981             29.015
 Vibrational            102.537             26.636             24.573
 Vibration     1          0.595              1.978              4.837
 Vibration     2          0.599              1.966              4.023
 Vibration     3          0.609              1.934              3.120
 Vibration     4          0.614              1.915              2.821
 Vibration     5          0.631              1.860              2.277
 Vibration     6          0.684              1.700              1.499
 Vibration     7          0.741              1.537              1.085
 Vibration     8          0.795              1.396              0.846
 Vibration     9          0.821              1.330              0.755
 Vibration    10          0.895              1.161              0.565
 Vibration    11          0.954              1.040              0.456

 Optimization completed.
    -- Stationary point found.
 Normal termination of Gaussian 09 at Mon Jan 27 14:58:26 2020.
