 Gaussian 09, Revision D.01,
 Gaussian 09:  ES64L-G09RevD.01 24-Apr-2013

 -----------------------------
 # b3lyp 6-31G(2df,p) opt Freq
 -----------------------------

 -----
 titel
 -----
 Symbolic Z-matrix:
 Charge =  0 Multiplicity = 1

 SCF Done:  E(RB3LYP) =  -423.156690332     A.U. after   13 cycles
 Optimization completed.
    -- Stationary point found.
 Normal termination of Gaussian 09 at Mon Jan 27 22:53:44 2020.

 ----------------------------------------------------------------------
 #N Geom=AllCheck Guess=TCheck SCRF=Check GenChk RB3LYP/6-31G(2df,p) Fr
 eq
 ----------------------------------------------------------------------

 Structure from the checkpoint file:  "/scratch/puck/g09_f748eb75-a910-4864-9055-df172e114b01/Gau-183165.chk"
 -----
 titel
 -----
 Charge =  0 Multiplicity = 1

                         Standard orientation:
 ---------------------------------------------------------------------
 Center     Atomic      Atomic             Coordinates (Angstroms)
 Number     Number       Type             X           Y           Z
 ---------------------------------------------------------------------
      1          6           0        2.875455   -0.015611   -0.635733
      2          6           0        1.511983   -0.024387   -0.033452
      3          6           0        1.114640   -0.001770    1.251966
      4          6           0       -0.401713    0.010830    1.173332
      5          6           0       -0.587808    1.094478    0.021969
      6          8           0       -1.870784    1.442732   -0.376844
      7          6           0        0.196262   -0.027779   -0.797887
      8          6           0       -0.602824   -1.072124    0.068103
      9          8           0       -1.973232   -1.259774   -0.262927
     10          1           0        3.048740   -0.902850   -1.258081
     11          1           0        3.019880    0.854857   -1.288260
     12          1           0        3.648729    0.010159    0.137778
     13          1           0        1.714549    0.034871    2.151093
     14          1           0       -0.997766    0.017516    2.085298
     15          1           0       -0.027679    2.020357    0.172670
     16          1           0       -2.367858    0.616435   -0.466072
     17          1           0        0.206053   -0.055060   -1.888973
     18          1           0       -0.108619   -2.036447    0.238256
     19          1           0       -2.019864   -1.805315   -1.055334
 ---------------------------------------------------------------------

 SCF Done:  E(RB3LYP) =  -423.156690332     A.U. after    1 cycles

 The electronic state is 1-A.
 Alpha  occ. eigenvalues --  -19.15971 -19.12266 -10.24056 -10.22987 -10.18794
 Alpha  occ. eigenvalues --  -10.18739 -10.18570 -10.18442 -10.17293  -1.04359
 Alpha  occ. eigenvalues --   -1.00904  -0.88434  -0.75210  -0.68639  -0.65780
 Alpha  occ. eigenvalues --   -0.64465  -0.56432  -0.52956  -0.51525  -0.50303
 Alpha  occ. eigenvalues --   -0.45922  -0.43480  -0.41205  -0.41055  -0.40320
 Alpha  occ. eigenvalues --   -0.38018  -0.37424  -0.35626  -0.34665  -0.34116
 Alpha  occ. eigenvalues --   -0.30149  -0.27287  -0.24295  -0.22311
 Alpha virt. eigenvalues --    0.02170   0.06393   0.10561   0.12089   0.13535
 Alpha virt. eigenvalues --    0.13740   0.15006   0.15256   0.16204   0.17699
 Alpha virt. eigenvalues --    0.17810   0.19023   0.19251   0.21953   0.24052

 Mulliken charges:
               1
     1  C   -0.517462
     2  C    0.335655
     3  C   -0.202592
     4  C   -0.142466
     5  C    0.194397
     6  O   -0.451675
     7  C   -0.233205
     8  C    0.142476
     9  O   -0.454525
    10  H    0.124378
    11  H    0.129448
    12  H    0.125333
    13  H    0.096665
    14  H    0.068296
    15  H    0.082450
    16  H    0.285319
    17  H    0.055587
    18  H    0.071726
    19  H    0.290195
 Sum of Mulliken charges =   0.00000

 Dipole moment (field-independent basis, Debye):
    X=              1.3183    Y=             -2.1574    Z=             -0.9216  Tot=              2.6911
 Quadrupole moment (field-independent basis, Debye-Ang):
   XX=            -53.8930   YY=            -54.3953   ZZ=            -50.1066
   XY=              4.6656   XZ=              1.6896   YZ=              3.5532

  Exact polarizability:  89.924   0.422  66.249  -1.203   1.421  76.107
 Approx polarizability: 123.649  -1.165 101.214  -3.413   1.664 126.526

                      1                      2                      3
                      A                      A                      A
 Frequencies --    149.7337               178.1201               245.8156
 Red. masses --      3.1605                 1.0458                 2.9877
 Frc consts  --      0.0417                 0.0195                 0.1064
 IR Inten    --      2.0192                 0.2372                 3.0815

                      4                      5                      6
                      A                      A                      A
 Frequencies --    271.7119               288.4602               342.1843
 Red. masses --      1.9644                 4.8875                 1.5726
 Frc consts  --      0.0854                 0.2396                 0.1085
 IR Inten    --     18.6476                 6.8489                60.8159

                      7                      8                      9
                      A                      A                      A
 Frequencies --    374.7056               412.6822               474.9453
 Red. masses --      3.7546                 2.9208                 5.1962
 Frc consts  --      0.3106                 0.2931                 0.6906
 IR Inten    --     13.0103                 0.9637                 0.9269

                     10                     11                     12
                      A                      A                      A
 Frequencies --    529.5415               571.5926               632.2782
 Red. masses --      4.6718                 2.8749                 1.1128
 Frc consts  --      0.7719                 0.5534                 0.2621
 IR Inten    --      5.3958                 5.1187                86.5827

                     13                     14                     15
                      A                      A                      A
 Frequencies --    645.4519               779.4028               800.9928
 Red. masses --      4.3448                 1.5755                 3.0928
 Frc consts  --      1.0665                 0.5639                 1.1691
 IR Inten    --      5.4030                21.1565                 0.9541

                     16                     17                     18
                      A                      A                      A
 Frequencies --    854.4421               888.5431               911.1503
 Red. masses --      1.9834                 3.1880                 3.7573
 Frc consts  --      0.8531                 1.4829                 1.8378
 IR Inten    --      1.6625                 0.7964                13.3280

                     19                     20                     21
                      A                      A                      A
 Frequencies --    944.5717               946.2175              1007.8357
 Red. masses --      2.0513                 2.0054                 1.6157
 Frc consts  --      1.0783                 1.0579                 0.9669
 IR Inten    --     14.7388                 6.5776                 3.2953

                     22                     23                     24
                      A                      A                      A
 Frequencies --   1029.6250              1050.0051              1069.5448
 Red. masses --      3.7894                 2.3353                 1.8925
 Frc consts  --      2.3669                 1.5170                 1.2755
 IR Inten    --      5.6738                25.5057                15.9723

                     25                     26                     27
                      A                      A                      A
 Frequencies --   1085.0812              1124.9902              1165.1006
 Red. masses --      1.4456                 2.2764                 1.7117
 Frc consts  --      1.0028                 1.6974                 1.3690
 IR Inten    --     12.5757               122.4261                63.7441

                     28                     29                     30
                      A                      A                      A
 Frequencies --   1185.9258              1210.5034              1220.4775
 Red. masses --      1.4051                 1.3588                 1.7103
 Frc consts  --      1.1643                 1.1731                 1.5010
 IR Inten    --      6.7072                13.7160               103.9664

                     31                     32                     33
                      A                      A                      A
 Frequencies --   1240.3557              1245.1245              1280.2232
 Red. masses --      1.6448                 1.4917                 1.6764
 Frc consts  --      1.4910                 1.3625                 1.6189
 IR Inten    --     16.1174                24.8381                32.7614

                     34                     35                     36
                      A                      A                      A
 Frequencies --   1310.7315              1334.4272              1409.9845
 Red. masses --      1.6469                 1.7094                 1.3531
 Frc consts  --      1.6671                 1.7934                 1.5849
 IR Inten    --      1.6727                16.8744                 5.6668

                     37                     38                     39
                      A                      A                      A
 Frequencies --   1414.8508              1472.8724              1478.0442
 Red. masses --      1.2990                 1.2080                 1.0446
 Frc consts  --      1.5321                 1.5440                 1.3445
 IR Inten    --      0.8341               115.5748                 6.1122

                     40                     41                     42
                      A                      A                      A
 Frequencies --   1487.5992              1670.2994              3015.1370
 Red. masses --      1.0650                 6.5187                 1.0376
 Frc consts  --      1.3886                10.7152                 5.5575
 IR Inten    --      5.2883                 4.1129                33.4196

                     43                     44                     45
                      A                      A                      A
 Frequencies --   3030.9527              3060.7066              3088.5730
 Red. masses --      1.0865                 1.0986                 1.0875
 Frc consts  --      5.8806                 6.0639                 6.1124
 IR Inten    --     64.9074                17.6368                42.9913

                     46                     47                     48
                      A                      A                      A
 Frequencies --   3103.6401              3104.7466              3127.3296
 Red. masses --      1.0943                 1.0951                 1.0905
 Frc consts  --      6.2103                 6.2197                 6.2839
 IR Inten    --     11.0187                44.9499                27.5041

                     49                     50                     51
                      A                      A                      A
 Frequencies --   3220.7565              3716.6394              3809.8680
 Red. masses --      1.0971                 1.0644                 1.0660
 Frc consts  --      6.7050                 8.6628                 9.1169
 IR Inten    --      8.9425               111.4269                30.5465

 - Thermochemistry -
 -------------------
 Temperature   298.150 Kelvin.  Pressure   1.00000 Atm.
 Atom     1 has atomic number  6 and mass  12.00000

 Molecular mass:   126.06808 amu.
 Principal axes and moments of inertia in atomic units:
                           1         2         3
     Eigenvalues --   603.299381373.942791488.04748
           X            0.99988   0.01075  -0.01093
           Y           -0.01015   0.99852   0.05343
           Z            0.01149  -0.05331   0.99851
 This molecule is an asymmetric top.
 Rotational symmetry number  1.
 Warning -- assumption of classical behavior for rotation
           may cause significant error
 Rotational temperatures (Kelvin)      0.14357     0.06304     0.05821
 Rotational constants (GHZ):           2.99145     1.31355     1.21283
 Zero-point vibrational energy     418779.7 (Joules/Mol)
                                  100.09074 (Kcal/Mol)
 Warning -- explicit consideration of  11 degrees of freedom as
           vibrations may cause significant error
 Vibrational temperatures:    215.43   256.27   353.67   390.93   415.03
          (Kelvin)            492.33   539.12   593.76   683.34   761.89
                              822.39   909.71   928.66  1121.39  1152.45
                             1229.35  1278.41  1310.94  1359.03  1361.39
                             1450.05  1481.40  1510.72  1538.83  1561.19
                             1618.61  1676.32  1706.28  1741.64  1755.99
                             1784.59  1791.45  1841.95  1885.85  1919.94
                             2028.65  2035.65  2119.13  2126.57  2140.32
                             2403.19  4338.10  4360.86  4403.67  4443.76
                             4465.44  4467.03  4499.52  4633.94  5347.41
                             5481.54

 Zero-point correction=                           0.159505 (Hartree/Particle)
 Thermal correction to Energy=                    0.167629
 Thermal correction to Enthalpy=                  0.168573
 Thermal correction to Gibbs Free Energy=         0.127436
 Sum of electronic and zero-point Energies=           -422.997186
 Sum of electronic and thermal Energies=              -422.989061
 Sum of electronic and thermal Enthalpies=            -422.988117
 Sum of electronic and thermal Free Energies=         -423.029255

                     E (Thermal)             CV                S
                      KCal/Mol        Cal/Mol-Kelvin    Cal/Mol-Kelvin
 Total                  105.189             32.757             86.582
 Electronic               0.000              0.000              0.000
 Translational            0.889              2.981             40.409
 Rotational               0.889              2.981             28.602
 Vibrational            103.411             26.796             17.571
 Vibration     1          0.618              1.903              2.676
 Vibration     2          0.629              1.869              2.348
 Vibration     3          0.660              1.770              1.760
 Vibration     4          0.675              1.725              1.585
 Vibration     5          0.685              1.695              1.483
 Vibration     6          0.721              1.591              1.202
 Vibration     7          0.746              1.524              1.060
 Vibration     8          0.776              1.443              0.917
 Vibration     9          0.832              1.306              0.724
 Vibration    10          0.885              1.185              0.588
 Vibration    11          0.928              1.093              0.501

 Normal termination of Gaussian 09 at Mon Jan 27 23:39:38 2020.
