 Gaussian 09, Revision D.01,
 Gaussian 09:  ES64L-G09RevD.01 24-Apr-2013

 -----------------------------
 # b3lyp 6-31G(2df,p) opt Freq
 -----------------------------

 -----
 titel
 -----
 Symbolic Z-matrix:
 Charge =  0 Multiplicity = 1

 SCF Done:  E(RB3LYP) =  -423.159066509     A.U. after   13 cycles
 Optimization completed.
    -- Stationary point found.
 Normal termination of Gaussian 09 at Mon Jan 27 22:06:17 2020.

 ----------------------------------------------------------------------
 #N Geom=AllCheck Guess=TCheck SCRF=Check GenChk RB3LYP/6-31G(2df,p) Fr
 eq
 ----------------------------------------------------------------------

 Structure from the checkpoint file:  "/scratch/puck/g09_e15aedf9-3f7b-438c-969d-06b0580e4921/Gau-85622.chk"
 -----
 titel
 -----
 Charge =  0 Multiplicity = 1

                         Standard orientation:
 ---------------------------------------------------------------------
 Center     Atomic      Atomic             Coordinates (Angstroms)
 Number     Number       Type             X           Y           Z
 ---------------------------------------------------------------------
      1          6           0       -1.901451    1.669413   -0.273584
      2          6           0       -0.840855    0.853191    0.473357
      3          6           0       -1.266847   -0.601428    0.695144
      4          8           0       -1.586797   -1.300272   -0.512867
      5          6           0       -0.302855   -1.533535    0.090223
      6          6           0        0.802180   -0.746466   -0.541799
      7          6           0        1.641046    0.090085    0.399729
      8          8           0        2.902232    0.512975   -0.025192
      9          6           0        0.477094    0.723151   -0.301062
     10          1           0       -1.551135    2.690021   -0.456044
     11          1           0       -2.130201    1.201822   -1.234906
     12          1           0       -2.829938    1.731239    0.303573
     13          1           0       -0.661281    1.313999    1.454404
     14          1           0       -1.877989   -0.866070    1.555475
     15          1           0       -0.145644   -2.543720    0.462050
     16          1           0        1.250408   -1.075599   -1.473083
     17          1           0        1.551903   -0.098061    1.471958
     18          1           0        3.503747   -0.237024    0.032551
     19          1           0        0.716778    1.455302   -1.063558
 ---------------------------------------------------------------------

 SCF Done:  E(RB3LYP) =  -423.159066509     A.U. after    1 cycles

 The electronic state is 1-A.
 Alpha  occ. eigenvalues --  -19.14672 -19.14578 -10.23851 -10.23548 -10.23241
 Alpha  occ. eigenvalues --  -10.19466 -10.19034 -10.18902 -10.17184  -1.06800
 Alpha  occ. eigenvalues --   -1.03187  -0.86638  -0.76924  -0.68293  -0.65869
 Alpha  occ. eigenvalues --   -0.60942  -0.57422  -0.55649  -0.52812  -0.51198
 Alpha  occ. eigenvalues --   -0.46453  -0.45002  -0.42726  -0.40709  -0.39250
 Alpha  occ. eigenvalues --   -0.38557  -0.36803  -0.35301  -0.34707  -0.31924
 Alpha  occ. eigenvalues --   -0.30928  -0.27011  -0.26293  -0.25199
 Alpha virt. eigenvalues --    0.07695   0.09066   0.09867   0.11411   0.11553
 Alpha virt. eigenvalues --    0.12925   0.14054   0.15909   0.16496   0.16806
 Alpha virt. eigenvalues --    0.17614   0.18095   0.19710   0.21525   0.23063

 Mulliken charges:
               1
     1  C   -0.404699
     2  C   -0.032771
     3  C    0.042102
     4  O   -0.255808
     5  C    0.011355
     6  C   -0.132156
     7  C    0.075052
     8  O   -0.429733
     9  C   -0.055389
    10  H    0.113896
    11  H    0.137488
    12  H    0.111175
    13  H    0.074629
    14  H    0.090774
    15  H    0.093207
    16  H    0.094980
    17  H    0.081892
    18  H    0.286990
    19  H    0.097018
 Sum of Mulliken charges =   0.00000

 Dipole moment (field-independent basis, Debye):
    X=              1.1035    Y=             -0.7073    Z=              1.4114  Tot=              1.9262
 Quadrupole moment (field-independent basis, Debye-Ang):
   XX=            -53.3288   YY=            -53.0341   ZZ=            -52.1504
   XY=             -7.3651   XZ=             -2.3374   YZ=             -1.6388

  Exact polarizability:  84.311  -4.626  75.179  -3.018  -0.084  63.409
 Approx polarizability: 115.007  -3.859 109.790  -1.351   3.974 101.124

                      1                      2                      3
                      A                      A                      A
 Frequencies --    143.4868               190.2757               235.2427
 Red. masses --      3.4155                 2.6112                 3.1269
 Frc consts  --      0.0414                 0.0557                 0.1020
 IR Inten    --      3.5027                 0.9937                 7.5589

                      4                      5                      6
                      A                      A                      A
 Frequencies --    238.3712               261.1118               328.8071
 Red. masses --      1.2279                 2.1376                 1.4484
 Frc consts  --      0.0411                 0.0859                 0.0923
 IR Inten    --      1.3396                21.1442                82.6584

                      7                      8                      9
                      A                      A                      A
 Frequencies --    374.1632               424.8943               447.0873
 Red. masses --      2.5541                 6.8364                 3.9169
 Frc consts  --      0.2107                 0.7272                 0.4613
 IR Inten    --      3.2584                 4.8476                 9.5191

                     10                     11                     12
                      A                      A                      A
 Frequencies --    516.6294               683.0182               752.8090
 Red. masses --      3.5601                 4.5709                 2.9363
 Frc consts  --      0.5599                 1.2564                 0.9804
 IR Inten    --      3.2948                 2.4779                 3.8823

                     13                     14                     15
                      A                      A                      A
 Frequencies --    808.1032               847.3727               864.5256
 Red. masses --      4.0146                 2.6858                 2.1412
 Frc consts  --      1.5446                 1.1363                 0.9429
 IR Inten    --      0.9322                 4.9656                18.0804

                     16                     17                     18
                      A                      A                      A
 Frequencies --    885.9026               922.5055               934.8158
 Red. masses --      3.1591                 2.3474                 2.5452
 Frc consts  --      1.4608                 1.1770                 1.3105
 IR Inten    --     30.1815                 5.5016                14.0981

                     19                     20                     21
                      A                      A                      A
 Frequencies --    978.5688              1010.0624              1028.5664
 Red. masses --      1.8803                 1.9420                 1.5058
 Frc consts  --      1.0609                 1.1674                 0.9386
 IR Inten    --      7.1934                 9.0080                 4.7878

                     22                     23                     24
                      A                      A                      A
 Frequencies --   1044.3980              1054.0976              1087.1455
 Red. masses --      1.6159                 1.5572                 1.2009
 Frc consts  --      1.0385                 1.0194                 0.8363
 IR Inten    --      3.0738                14.6283                 2.9785

                     25                     26                     27
                      A                      A                      A
 Frequencies --   1122.3606              1129.8845              1151.6718
 Red. masses --      2.1480                 1.4610                 2.2165
 Frc consts  --      1.5942                 1.0989                 1.7321
 IR Inten    --      0.7179                 2.3710                23.9207

                     28                     29                     30
                      A                      A                      A
 Frequencies --   1163.9768              1179.3357              1257.0111
 Red. masses --      1.5659                 2.6489                 1.3547
 Frc consts  --      1.2500                 2.1707                 1.2612
 IR Inten    --     32.4845                11.0592                 4.6557

                     31                     32                     33
                      A                      A                      A
 Frequencies --   1278.9874              1295.1235              1304.0822
 Red. masses --      1.4024                 1.1740                 1.7796
 Frc consts  --      1.3516                 1.1602                 1.7831
 IR Inten    --      4.8509                59.2747                25.4927

                     34                     35                     36
                      A                      A                      A
 Frequencies --   1312.4183              1333.6356              1368.8268
 Red. masses --      1.5290                 1.3827                 1.6420
 Frc consts  --      1.5517                 1.4490                 1.8127
 IR Inten    --      8.8243                 0.4481                 3.6195

                     37                     38                     39
                      A                      A                      A
 Frequencies --   1403.5274              1429.8882              1461.1711
 Red. masses --      1.3013                 2.9633                 2.2820
 Frc consts  --      1.5103                 3.5696                 2.8706
 IR Inten    --      6.6269                18.4303                14.1814

                     40                     41                     42
                      A                      A                      A
 Frequencies --   1495.3152              1504.4669              3009.9184
 Red. masses --      1.0458                 1.0531                 1.0828
 Frc consts  --      1.3777                 1.4044                 5.7798
 IR Inten    --      4.6595                 3.5855                27.1476

                     43                     44                     45
                      A                      A                      A
 Frequencies --   3037.5635              3071.7059              3102.6321
 Red. masses --      1.0354                 1.0872                 1.1015
 Frc consts  --      5.6288                 6.0439                 6.2474
 IR Inten    --     28.2946                32.1137                23.6124

                     46                     47                     48
                      A                      A                      A
 Frequencies --   3123.2493              3129.6107              3141.9873
 Red. masses --      1.1013                 1.0863                 1.0941
 Frc consts  --      6.3297                 6.2688                 6.3640
 IR Inten    --     15.6650                20.0995                47.3519

                     49                     50                     51
                      A                      A                      A
 Frequencies --   3171.6252              3184.8506              3802.2895
 Red. masses --      1.0896                 1.0916                 1.0662
 Frc consts  --      6.4577                 6.5234                 9.0816
 IR Inten    --     11.4894                 7.1382                22.2606

 - Thermochemistry -
 -------------------
 Temperature   298.150 Kelvin.  Pressure   1.00000 Atm.
 Atom     1 has atomic number  6 and mass  12.00000

 Molecular mass:   126.06808 amu.
 Principal axes and moments of inertia in atomic units:
                           1         2         3
     Eigenvalues --   623.859371281.936911675.27620
           X            0.99794  -0.06404  -0.00470
           Y            0.06390   0.99764  -0.02527
           Z            0.00631   0.02492   0.99967
 This molecule is an asymmetric top.
 Rotational symmetry number  1.
 Warning -- assumption of classical behavior for rotation
           may cause significant error
 Rotational temperatures (Kelvin)      0.13884     0.06756     0.05170
 Rotational constants (GHZ):           2.89287     1.40782     1.07728
 Zero-point vibrational energy     418866.9 (Joules/Mol)
                                  100.11159 (Kcal/Mol)
 Warning -- explicit consideration of  10 degrees of freedom as
           vibrations may cause significant error
 Vibrational temperatures:    206.45   273.76   338.46   342.96   375.68
          (Kelvin)            473.08   538.34   611.33   643.26   743.31
                              982.71  1083.12  1162.68  1219.18  1243.86
                             1274.61  1327.28  1344.99  1407.94  1453.25
                             1479.88  1502.65  1516.61  1564.16  1614.82
                             1625.65  1657.00  1674.70  1696.80  1808.56
                             1840.18  1863.39  1876.28  1888.27  1918.80
                             1969.43  2019.36  2057.29  2102.30  2151.42
                             2164.59  4330.60  4370.37  4419.49  4463.99
                             4493.65  4502.81  4520.61  4563.26  4582.28
                             5470.64

 Zero-point correction=                           0.159538 (Hartree/Particle)
 Thermal correction to Energy=                    0.167543
 Thermal correction to Enthalpy=                  0.168487
 Thermal correction to Gibbs Free Energy=         0.127377
 Sum of electronic and zero-point Energies=           -422.999529
 Sum of electronic and thermal Energies=              -422.991523
 Sum of electronic and thermal Enthalpies=            -422.990579
 Sum of electronic and thermal Free Energies=         -423.031690

                     E (Thermal)             CV                S
                      KCal/Mol        Cal/Mol-Kelvin    Cal/Mol-Kelvin
 Total                  105.135             31.695             86.524
 Electronic               0.000              0.000              0.000
 Translational            0.889              2.981             40.409
 Rotational               0.889              2.981             28.684
 Vibrational            103.357             25.733             17.431
 Vibration     1          0.616              1.910              2.757
 Vibration     2          0.634              1.853              2.225
 Vibration     3          0.655              1.787              1.839
 Vibration     4          0.656              1.782              1.815
 Vibration     5          0.669              1.744              1.654
 Vibration     6          0.712              1.618              1.266
 Vibration     7          0.745              1.525              1.063
 Vibration     8          0.787              1.416              0.876
 Vibration     9          0.806              1.367              0.805
 Vibration    10          0.872              1.213              0.618

 Optimization completed.
    -- Stationary point found.
 Normal termination of Gaussian 09 at Mon Jan 27 23:08:45 2020.
