 Gaussian 09, Revision D.01,
 Gaussian 09:  ES64L-G09RevD.01 24-Apr-2013

 -----------------------------
 # b3lyp 6-31G(2df,p) opt Freq
 -----------------------------

 -----
 titel
 -----
 Symbolic Z-matrix:
 Charge =  0 Multiplicity = 1

 SCF Done:  E(RB3LYP) =  -423.130024500     A.U. after   13 cycles
 Optimization completed.
    -- Stationary point found.
 Normal termination of Gaussian 09 at Tue Jan 28 04:05:45 2020.

 ----------------------------------------------------------------------
 #N Geom=AllCheck Guess=TCheck SCRF=Check GenChk RB3LYP/6-31G(2df,p) Fr
 eq
 ----------------------------------------------------------------------

 Structure from the checkpoint file:  "/scratch/puck/g09_6ab824fb-afa3-4cff-bb51-4866c8451765/Gau-9769.chk"
 -----
 titel
 -----
 Charge =  0 Multiplicity = 1

                         Standard orientation:
 ---------------------------------------------------------------------
 Center     Atomic      Atomic             Coordinates (Angstroms)
 Number     Number       Type             X           Y           Z
 ---------------------------------------------------------------------
      1          8           0       -0.987963    1.899316    0.101528
      2          6           0       -1.148333    0.640025   -0.487004
      3          6           0       -2.211056   -0.360865    0.063293
      4          6           0       -1.160435   -1.496551   -0.107222
      5          6           0       -0.063043   -0.418863   -0.162985
      6          8           0        0.532516   -0.148546    1.152425
      7          6           0        1.841574   -0.362537    0.602551
      8          6           0        2.152684    0.637778   -0.463945
      9          6           0        1.311754   -0.586113   -0.789226
     10          1           0       -0.544238    1.731032    0.944968
     11          1           0       -1.258361    0.784653   -1.566836
     12          1           0       -2.420415   -0.159088    1.116858
     13          1           0       -3.154162   -0.448054   -0.479282
     14          1           0       -1.063698   -2.230861    0.693989
     15          1           0       -1.255700   -2.016347   -1.065509
     16          1           0        2.560231   -0.892980    1.215168
     17          1           0        1.696023    1.621745   -0.431760
     18          1           0        3.166120    0.603793   -0.852159
     19          1           0        1.578913   -1.317299   -1.539843
 ---------------------------------------------------------------------

 SCF Done:  E(RB3LYP) =  -423.130024500     A.U. after    1 cycles

 The electronic state is 1-A.
 Alpha  occ. eigenvalues --  -19.14707 -19.13023 -10.24448 -10.24028 -10.22629
 Alpha  occ. eigenvalues --  -10.19738 -10.19248 -10.18492 -10.17883  -1.05902
 Alpha  occ. eigenvalues --   -1.01270  -0.83882  -0.82861  -0.67360  -0.65179
 Alpha  occ. eigenvalues --   -0.60810  -0.58984  -0.54167  -0.52460  -0.49988
 Alpha  occ. eigenvalues --   -0.47525  -0.44489  -0.42983  -0.40942  -0.39324
 Alpha  occ. eigenvalues --   -0.38343  -0.37183  -0.34836  -0.34486  -0.33174
 Alpha  occ. eigenvalues --   -0.30585  -0.27302  -0.24902  -0.24098
 Alpha virt. eigenvalues --    0.06476   0.09669   0.10351   0.10695   0.11879
 Alpha virt. eigenvalues --    0.13694   0.14229   0.15225   0.16301   0.16992
 Alpha virt. eigenvalues --    0.18103   0.19042   0.19763   0.21154   0.21843

 Mulliken charges:
               1
     1  O   -0.438490
     2  C    0.104086
     3  C   -0.264855
     4  C   -0.298088
     5  C    0.420446
     6  O   -0.351835
     7  C    0.107469
     8  C   -0.311120
     9  C   -0.233858
    10  H    0.286696
    11  H    0.089898
    12  H    0.112761
    13  H    0.100612
    14  H    0.114776
    15  H    0.105338
    16  H    0.108179
    17  H    0.132808
    18  H    0.115293
    19  H    0.099883
 Sum of Mulliken charges =   0.00000

 Dipole moment (field-independent basis, Debye):
    X=              1.1473    Y=             -1.8051    Z=             -0.7341  Tot=              2.2613
 Quadrupole moment (field-independent basis, Debye-Ang):
   XX=            -49.6438   YY=            -56.1487   ZZ=            -52.4413
   XY=              1.5312   XZ=              0.0401   YZ=              1.6534

  Exact polarizability:  87.245   3.574  70.977   0.751   0.294  65.633
 Approx polarizability: 111.985   3.531 104.797   2.768   1.549 107.390

                      1                      2                      3
                      A                      A                      A
 Frequencies --    113.4934               138.2793               210.4621
 Red. masses --      2.6647                 4.1654                 3.3275
 Frc consts  --      0.0202                 0.0469                 0.0868
 IR Inten    --      1.5633                 1.4342                 6.6652

                      4                      5                      6
                      A                      A                      A
 Frequencies --    273.4943               357.6132               416.7249
 Red. masses --      2.6387                 3.0775                 3.5535
 Frc consts  --      0.1163                 0.2319                 0.3636
 IR Inten    --      3.2223                 1.7197                 3.0184

                      7                      8                      9
                      A                      A                      A
 Frequencies --    457.8813               498.7755               514.8177
 Red. masses --      2.4480                 1.2415                 2.5489
 Frc consts  --      0.3024                 0.1820                 0.3980
 IR Inten    --     17.6569                74.2903                19.5188

                     10                     11                     12
                      A                      A                      A
 Frequencies --    607.6365               687.7257               756.4173
 Red. masses --      3.6373                 2.1709                 1.6025
 Frc consts  --      0.7913                 0.6050                 0.5402
 IR Inten    --     14.9456                 5.0389                 7.9335

                     13                     14                     15
                      A                      A                      A
 Frequencies --    774.9639               805.2026               853.3873
 Red. masses --      1.7659                 1.6735                 2.9128
 Frc consts  --      0.6248                 0.6393                 1.2498
 IR Inten    --      5.1671                10.8605                35.6367

                     16                     17                     18
                      A                      A                      A
 Frequencies --    885.8468               922.9003               945.8865
 Red. masses --      2.7331                 2.7100                 2.1014
 Frc consts  --      1.2636                 1.3600                 1.1077
 IR Inten    --      4.7867                 2.2190                 5.9999

                     19                     20                     21
                      A                      A                      A
 Frequencies --    955.0642               971.7862               998.7388
 Red. masses --      1.7117                 2.2240                 2.8836
 Frc consts  --      0.9199                 1.2374                 1.6947
 IR Inten    --      3.1835                 9.3434                34.4723

                     22                     23                     24
                      A                      A                      A
 Frequencies --   1044.3064              1051.6161              1084.3872
 Red. masses --      1.6068                 1.5007                 1.7601
 Frc consts  --      1.0324                 0.9778                 1.2194
 IR Inten    --     39.2327                 7.7439                 4.8940

                     25                     26                     27
                      A                      A                      A
 Frequencies --   1090.6132              1112.6030              1121.4078
 Red. masses --      1.5826                 2.6674                 1.7506
 Frc consts  --      1.1091                 1.9454                 1.2971
 IR Inten    --     21.8719                44.7389                10.6839

                     28                     29                     30
                      A                      A                      A
 Frequencies --   1139.3300              1163.8587              1196.0724
 Red. masses --      2.5888                 1.9323                 1.4719
 Frc consts  --      1.9799                 1.5421                 1.2406
 IR Inten    --     57.2182                37.7285                 4.5549

                     31                     32                     33
                      A                      A                      A
 Frequencies --   1216.9077              1244.6075              1259.1250
 Red. masses --      1.3647                 1.6054                 1.5349
 Frc consts  --      1.1907                 1.4652                 1.4338
 IR Inten    --      8.1720                 1.6881                 0.5698

                     34                     35                     36
                      A                      A                      A
 Frequencies --   1265.8932              1335.2363              1338.2954
 Red. masses --      1.5175                 1.5777                 2.0237
 Frc consts  --      1.4327                 1.6572                 2.1355
 IR Inten    --      1.6036                12.2787                14.9336

                     37                     38                     39
                      A                      A                      A
 Frequencies --   1354.6422              1442.6392              1466.8436
 Red. masses --      2.7490                 1.2254                 1.1111
 Frc consts  --      2.9721                 1.5026                 1.4086
 IR Inten    --      6.3870                57.7667                14.1877

                     40                     41                     42
                      A                      A                      A
 Frequencies --   1473.7416              1489.2290              3057.4265
 Red. masses --      1.2504                 1.1508                 1.0722
 Frc consts  --      1.6000                 1.5037                 5.9054
 IR Inten    --      8.9704                 8.9623                17.2375

                     43                     44                     45
                      A                      A                      A
 Frequencies --   3063.0024              3069.8587              3120.6901
 Red. masses --      1.0748                 1.0588                 1.1057
 Frc consts  --      5.9409                 5.8789                 6.3443
 IR Inten    --     25.7417                28.4322                 9.4037

                     46                     47                     48
                      A                      A                      A
 Frequencies --   3125.2863              3133.0837              3187.4985
 Red. masses --      1.0530                 1.1073                 1.0913
 Frc consts  --      6.0598                 6.4040                 6.5326
 IR Inten    --      9.4502                31.9935                22.3843

                     49                     50                     51
                      A                      A                      A
 Frequencies --   3205.9153              3219.2021              3740.5090
 Red. masses --      1.1010                 1.1139                 1.0649
 Frc consts  --      6.6674                 6.8016                 8.7786
 IR Inten    --      5.7755                 8.5789                37.2649

 - Thermochemistry -
 -------------------
 Temperature   298.150 Kelvin.  Pressure   1.00000 Atm.
 Atom     1 has atomic number  8 and mass  15.99491

 Molecular mass:   126.06808 amu.
 Principal axes and moments of inertia in atomic units:
                           1         2         3
     Eigenvalues --   617.254541146.544551403.77184
           X            0.99938   0.03411  -0.00820
           Y           -0.03402   0.99937   0.01053
           Z            0.00855  -0.01025   0.99991
 This molecule is an asymmetric top.
 Rotational symmetry number  1.
 Warning -- assumption of classical behavior for rotation
           may cause significant error
 Rotational temperatures (Kelvin)      0.14032     0.07554     0.06170
 Rotational constants (GHZ):           2.92382     1.57407     1.28564
 Zero-point vibrational energy     418459.3 (Joules/Mol)
                                  100.01416 (Kcal/Mol)
 Warning -- explicit consideration of  10 degrees of freedom as
           vibrations may cause significant error
 Vibrational temperatures:    163.29   198.95   302.81   393.50   514.52
          (Kelvin)            599.57   658.79   717.63   740.71   874.25
                              989.48  1088.31  1115.00  1158.51  1227.83
                             1274.53  1327.85  1360.92  1374.12  1398.18
                             1436.96  1502.52  1513.04  1560.19  1569.15
                             1600.79  1613.45  1639.24  1674.53  1720.88
                             1750.86  1790.71  1811.60  1821.34  1921.10
                             1925.51  1949.03  2075.63  2110.46  2120.38
                             2142.67  4398.95  4406.97  4416.84  4489.97
                             4496.58  4507.80  4586.09  4612.59  4631.71
                             5381.75

 Zero-point correction=                           0.159383 (Hartree/Particle)
 Thermal correction to Energy=                    0.167120
 Thermal correction to Enthalpy=                  0.168064
 Thermal correction to Gibbs Free Energy=         0.127371
 Sum of electronic and zero-point Energies=           -422.970642
 Sum of electronic and thermal Energies=              -422.962905
 Sum of electronic and thermal Enthalpies=            -422.961960
 Sum of electronic and thermal Free Energies=         -423.002654

                     E (Thermal)             CV                S
                      KCal/Mol        Cal/Mol-Kelvin    Cal/Mol-Kelvin
 Total                  104.869             31.193             85.646
 Electronic               0.000              0.000              0.000
 Translational            0.889              2.981             40.409
 Rotational               0.889              2.981             28.387
 Vibrational            103.092             25.231             16.851
 Vibration     1          0.607              1.938              3.208
 Vibration     2          0.614              1.915              2.828
 Vibration     3          0.643              1.825              2.040
 Vibration     4          0.676              1.722              1.574
 Vibration     5          0.733              1.560              1.132
 Vibration     6          0.780              1.434              0.903
 Vibration     7          0.816              1.343              0.772
 Vibration     8          0.854              1.253              0.661
 Vibration     9          0.870              1.217              0.622
 Vibration    10          0.966              1.016              0.437

 Optimization completed.
    -- Stationary point found.
 Normal termination of Gaussian 09 at Tue Jan 28 04:46:33 2020.
