 Gaussian 09, Revision D.01,
 Gaussian 09:  ES64L-G09RevD.01 24-Apr-2013

 -----------------------------
 # b3lyp 6-31G(2df,p) opt Freq
 -----------------------------

 -----
 titel
 -----
 Symbolic Z-matrix:
 Charge =  0 Multiplicity = 1

 SCF Done:  E(RB3LYP) =  -423.130998712     A.U. after   14 cycles
 Optimization completed.
    -- Stationary point found.
 Normal termination of Gaussian 09 at Mon Jan 27 14:19:16 2020.

 ----------------------------------------------------------------------
 #N Geom=AllCheck Guess=TCheck SCRF=Check GenChk RB3LYP/6-31G(2df,p) Fr
 eq
 ----------------------------------------------------------------------

 Structure from the checkpoint file:  "/scratch/puck/g09_102c2538-8624-46de-9293-0953e5f4698f/Gau-158003.chk"
 -----
 titel
 -----
 Charge =  0 Multiplicity = 1

                         Standard orientation:
 ---------------------------------------------------------------------
 Center     Atomic      Atomic             Coordinates (Angstroms)
 Number     Number       Type             X           Y           Z
 ---------------------------------------------------------------------
      1          6           0        0.972476   -1.236081   -1.215583
      2          6           0        0.887501   -0.327180    0.019638
      3          6           0        1.115713   -1.106508    1.313930
      4          8           0        1.900440    0.667481   -0.040640
      5          6           0       -0.488453    0.380876    0.051935
      6          6           0       -0.592614    1.739360    0.617883
      7          8           0       -0.541652    1.546001   -0.801107
      8          6           0       -1.661413   -0.459228    0.031302
      9          6           0       -2.622495   -1.181557    0.030774
     10          1           0        0.227214   -2.034666   -1.178759
     11          1           0        0.802524   -0.655684   -2.128640
     12          1           0        1.969276   -1.681142   -1.269499
     13          1           0        0.346904   -1.871226    1.448953
     14          1           0        2.094061   -1.593610    1.282336
     15          1           0        1.096616   -0.431325    2.173790
     16          1           0        1.661448    1.250775   -0.773573
     17          1           0       -1.552193    2.078206    1.001254
     18          1           0        0.296732    2.185101    1.054446
     19          1           0       -3.477169   -1.812373    0.024393
 ---------------------------------------------------------------------

 SCF Done:  E(RB3LYP) =  -423.130998712     A.U. after    1 cycles

 The electronic state is 1-A.
 Alpha  occ. eigenvalues --  -19.16788 -19.13655 -10.26610 -10.24883 -10.24268
 Alpha  occ. eigenvalues --  -10.19389 -10.18923 -10.17622 -10.17393  -1.08686
 Alpha  occ. eigenvalues --   -1.02008  -0.79952  -0.75658  -0.69770  -0.68607
 Alpha  occ. eigenvalues --   -0.65395  -0.58933  -0.54283  -0.52631  -0.50652
 Alpha  occ. eigenvalues --   -0.45970  -0.44706  -0.43181  -0.41000  -0.39650
 Alpha  occ. eigenvalues --   -0.38482  -0.37062  -0.36217  -0.34263  -0.33157
 Alpha  occ. eigenvalues --   -0.29649  -0.28531  -0.27531  -0.26058
 Alpha virt. eigenvalues --    0.01765   0.03531   0.08725   0.09958   0.11710
 Alpha virt. eigenvalues --    0.12678   0.13597   0.14277   0.15224   0.15608
 Alpha virt. eigenvalues --    0.17133   0.18107   0.19675   0.21110   0.21858

 Mulliken charges:
               1
     1  C   -0.430474
     2  C    0.243343
     3  C   -0.405472
     4  O   -0.462927
     5  C    0.206653
     6  C   -0.225205
     7  O   -0.300358
     8  C    0.262452
     9  C   -0.379348
    10  H    0.127833
    11  H    0.121139
    12  H    0.122045
    13  H    0.127726
    14  H    0.125870
    15  H    0.121232
    16  H    0.286949
    17  H    0.126142
    18  H    0.134266
    19  H    0.198134
 Sum of Mulliken charges =   0.00000

 Dipole moment (field-independent basis, Debye):
    X=             -0.8753    Y=             -0.7435    Z=              0.7287  Tot=              1.3601
 Quadrupole moment (field-independent basis, Debye-Ang):
   XX=            -52.7399   YY=            -50.2680   ZZ=            -53.6140
   XY=              2.1399   XZ=             -2.5637   YZ=              1.8169

  Exact polarizability:  86.284   9.377  81.785  -0.936   3.268  63.271
 Approx polarizability: 126.878  24.830 124.420  -0.805   0.901  94.763

                      1                      2                      3
                      A                      A                      A
 Frequencies --     76.6479               143.1983               182.0912
 Red. masses --      3.8294                 3.8133                 2.1703
 Frc consts  --      0.0133                 0.0461                 0.0424
 IR Inten    --      1.1616                 0.1225                 1.0319

                      4                      5                      6
                      A                      A                      A
 Frequencies --    203.6914               244.0807               261.1651
 Red. masses --      1.2310                 1.2844                 2.2942
 Frc consts  --      0.0301                 0.0451                 0.0922
 IR Inten    --      0.0867                 2.5336                11.5676

                      7                      8                      9
                      A                      A                      A
 Frequencies --    292.3701               314.3378               364.8124
 Red. masses --      3.3497                 2.6063                 2.7543
 Frc consts  --      0.1687                 0.1517                 0.2160
 IR Inten    --      1.2658                 0.6470                32.8976

                     10                     11                     12
                      A                      A                      A
 Frequencies --    394.9414               464.5538               484.1360
 Red. masses --      3.1841                 2.0117                 3.2678
 Frc consts  --      0.2926                 0.2558                 0.4513
 IR Inten    --      5.9695                17.1792                18.3414

                     13                     14                     15
                      A                      A                      A
 Frequencies --    501.7870               543.7994               596.4443
 Red. masses --      1.9099                 5.2269                 5.4599
 Frc consts  --      0.2833                 0.9107                 1.1444
 IR Inten    --     74.1932                 8.6567                11.5059

                     16                     17                     18
                      A                      A                      A
 Frequencies --    623.1251               626.4661               668.4688
 Red. masses --      3.6921                 1.2338                 1.2580
 Frc consts  --      0.8446                 0.2853                 0.3312
 IR Inten    --      9.2014                38.7230                32.7919

                     19                     20                     21
                      A                      A                      A
 Frequencies --    821.9866               871.2828               895.9585
 Red. masses --      3.7319                 3.5251                 1.6284
 Frc consts  --      1.4856                 1.5767                 0.7702
 IR Inten    --      7.4761                21.9114                 3.2054

                     22                     23                     24
                      A                      A                      A
 Frequencies --    934.9727               954.4898               987.3285
 Red. masses --      1.5279                 4.4286                 2.2493
 Frc consts  --      0.7870                 2.3771                 1.2919
 IR Inten    --      0.4968                25.4067                30.8413

                     25                     26                     27
                      A                      A                      A
 Frequencies --   1019.4083              1128.3125              1135.2362
 Red. masses --      1.3817                 1.3979                 1.5979
 Frc consts  --      0.8460                 1.0486                 1.2133
 IR Inten    --      6.2276                 3.9256                12.0996

                     28                     29                     30
                      A                      A                      A
 Frequencies --   1164.3782              1179.7971              1221.9961
 Red. masses --      2.1100                 1.4653                 2.8589
 Frc consts  --      1.6854                 1.2017                 2.5153
 IR Inten    --     56.2362                22.1271                42.3948

                     31                     32                     33
                      A                      A                      A
 Frequencies --   1264.5271              1351.2837              1384.4403
 Red. masses --      3.3215                 3.5137                 1.3209
 Frc consts  --      3.1293                 3.7802                 1.4916
 IR Inten    --      4.7348                 7.6396                42.9567

                     34                     35                     36
                      A                      A                      A
 Frequencies --   1401.7535              1419.3346              1478.3197
 Red. masses --      1.3808                 1.3445                 1.0503
 Frc consts  --      1.5986                 1.5958                 1.3523
 IR Inten    --     32.6193                24.8467                 0.5911

                     37                     38                     39
                      A                      A                      A
 Frequencies --   1483.3915              1497.7287              1500.2771
 Red. masses --      1.0563                 1.0861                 1.2310
 Frc consts  --      1.3695                 1.4354                 1.6325
 IR Inten    --      2.1969                 6.7890                 1.8046

                     40                     41                     42
                      A                      A                      A
 Frequencies --   1505.6240              2236.1365              3040.4655
 Red. masses --      1.0637                 5.9663                 1.0354
 Frc consts  --      1.4208                17.5772                 5.6393
 IR Inten    --      1.3011                 0.7467                15.8107

                     43                     44                     45
                      A                      A                      A
 Frequencies --   3049.0168              3105.3912              3112.8437
 Red. masses --      1.0349                 1.0502                 1.1002
 Frc consts  --      5.6686                 5.9670                 6.2810
 IR Inten    --      9.0019                18.2840                16.9649

                     46                     47                     48
                      A                      A                      A
 Frequencies --   3121.9677              3128.3689              3133.5971
 Red. masses --      1.1022                 1.1025                 1.1018
 Frc consts  --      6.3293                 6.3572                 6.3747
 IR Inten    --     18.2494                 5.2806                29.0830

                     49                     50                     51
                      A                      A                      A
 Frequencies --   3206.3890              3499.2820              3762.5459
 Red. masses --      1.1203                 1.1619                 1.0649
 Frc consts  --      6.7859                 8.3823                 8.8819
 IR Inten    --      6.9652                71.2796                28.0939

 - Thermochemistry -
 -------------------
 Temperature   298.150 Kelvin.  Pressure   1.00000 Atm.
 Atom     1 has atomic number  6 and mass  12.00000

 Molecular mass:   126.06808 amu.
 Principal axes and moments of inertia in atomic units:
                           1         2         3
     Eigenvalues --   845.333201145.874041476.44214
           X            0.99933  -0.03562  -0.00891
           Y            0.03594   0.99862   0.03826
           Z            0.00753  -0.03856   0.99923
 This molecule is an asymmetric top.
 Rotational symmetry number  1.
 Warning -- assumption of classical behavior for rotation
           may cause significant error
 Rotational temperatures (Kelvin)      0.10246     0.07559     0.05866
 Rotational constants (GHZ):           2.13495     1.57499     1.22236
 Zero-point vibrational energy     406634.3 (Joules/Mol)
                                   97.18793 (Kcal/Mol)
 Warning -- explicit consideration of  15 degrees of freedom as
           vibrations may cause significant error
 Vibrational temperatures:    110.28   206.03   261.99   293.07   351.18
          (Kelvin)            375.76   420.65   452.26   524.88   568.23
                              668.39   696.56   721.96   782.41   858.15
                              896.54   901.34   961.78  1182.65  1253.58
                             1289.08  1345.22  1373.30  1420.54  1466.70
                             1623.39  1633.35  1675.28  1697.46  1758.18
                             1819.37  1944.19  1991.90  2016.81  2042.10
                             2126.97  2134.27  2154.89  2158.56  2166.25
                             3217.30  4374.55  4386.85  4467.96  4478.68
                             4491.81  4501.02  4508.54  4613.27  5034.68
                             5413.46

 Zero-point correction=                           0.154879 (Hartree/Particle)
 Thermal correction to Energy=                    0.164753
 Thermal correction to Enthalpy=                  0.165697
 Thermal correction to Gibbs Free Energy=         0.120936
 Sum of electronic and zero-point Energies=           -422.976120
 Sum of electronic and thermal Energies=              -422.966246
 Sum of electronic and thermal Enthalpies=            -422.965302
 Sum of electronic and thermal Free Energies=         -423.010063

                     E (Thermal)             CV                S
                      KCal/Mol        Cal/Mol-Kelvin    Cal/Mol-Kelvin
 Total                  103.384             37.750             94.207
 Electronic               0.000              0.000              0.000
 Translational            0.889              2.981             40.409
 Rotational               0.889              2.981             28.749
 Vibrational            101.606             31.789             25.050
 Vibration     1          0.599              1.965              3.975
 Vibration     2          0.616              1.910              2.761
 Vibration     3          0.630              1.864              2.307
 Vibration     4          0.639              1.835              2.099
 Vibration     5          0.659              1.773              1.773
 Vibration     6          0.669              1.744              1.654
 Vibration     7          0.688              1.688              1.460
 Vibration     8          0.702              1.646              1.339
 Vibration     9          0.738              1.545              1.102
 Vibration    10          0.762              1.481              0.981
 Vibration    11          0.822              1.329              0.753
 Vibration    12          0.840              1.285              0.699
 Vibration    13          0.857              1.246              0.654
 Vibration    14          0.899              1.153              0.557
 Vibration    15          0.954              1.039              0.456

 Optimization completed.
    -- Stationary point found.
 Normal termination of Gaussian 09 at Mon Jan 27 15:05:19 2020.
