 Gaussian 09, Revision D.01,
 Gaussian 09:  ES64L-G09RevD.01 24-Apr-2013

 -----------------------------
 # b3lyp 6-31G(2df,p) opt Freq
 -----------------------------

 -----
 titel
 -----
 Symbolic Z-matrix:
 Charge =  0 Multiplicity = 1

 SCF Done:  E(RB3LYP) =  -423.172515488     A.U. after   13 cycles
 Optimization completed.
    -- Stationary point found.
 Normal termination of Gaussian 09 at Tue Jan 28 04:06:19 2020.

 ----------------------------------------------------------------------
 #N Geom=AllCheck Guess=TCheck SCRF=Check GenChk RB3LYP/6-31G(2df,p) Fr
 eq
 ----------------------------------------------------------------------

 Structure from the checkpoint file:  "/scratch/puck/g09_fb50d464-18c9-4e9d-9ae7-bf5e25e3dc89/Gau-81858.chk"
 -----
 titel
 -----
 Charge =  0 Multiplicity = 1

                         Standard orientation:
 ---------------------------------------------------------------------
 Center     Atomic      Atomic             Coordinates (Angstroms)
 Number     Number       Type             X           Y           Z
 ---------------------------------------------------------------------
      1          6           0       -1.711496    1.611105   -0.326484
      2          6           0       -1.283106    0.189420   -0.623972
      3          8           0       -2.048526   -0.799223    0.107134
      4          6           0       -0.884463   -1.287351    0.796035
      5          6           0        0.047479   -0.314028    0.032154
      6          8           0        0.717565    0.624507    0.860845
      7          6           0        2.092874    0.728651    0.495142
      8          6           0        2.275035   -0.272190   -0.609382
      9          6           0        1.113219   -0.863241   -0.863821
     10          1           0       -2.761808    1.744241   -0.603876
     11          1           0       -1.591096    1.843214    0.733722
     12          1           0       -1.110336    2.320311   -0.905282
     13          1           0       -1.335743   -0.011257   -1.703337
     14          1           0       -0.916911   -1.089266    1.874133
     15          1           0       -0.714066   -2.357435    0.623545
     16          1           0        2.321109    1.756649    0.173488
     17          1           0        2.723285    0.514846    1.371221
     18          1           0        3.222976   -0.452037   -1.099884
     19          1           0        0.913011   -1.625736   -1.605596
 ---------------------------------------------------------------------

 SCF Done:  E(RB3LYP) =  -423.172515488     A.U. after    1 cycles

 The electronic state is 1-A.
 Alpha  occ. eigenvalues --  -19.14441 -19.12486 -10.24157 -10.23800 -10.22691
 Alpha  occ. eigenvalues --  -10.22139 -10.19584 -10.19222 -10.16918  -1.05061
 Alpha  occ. eigenvalues --   -1.02271  -0.79578  -0.76080  -0.73735  -0.65836
 Alpha  occ. eigenvalues --   -0.62819  -0.57774  -0.53801  -0.51318  -0.48122
 Alpha  occ. eigenvalues --   -0.46539  -0.46422  -0.44054  -0.40778  -0.40431
 Alpha  occ. eigenvalues --   -0.38250  -0.37981  -0.37245  -0.34248  -0.33012
 Alpha  occ. eigenvalues --   -0.29948  -0.28223  -0.24410  -0.23566
 Alpha virt. eigenvalues --    0.00618   0.08623   0.09274   0.11817   0.13017
 Alpha virt. eigenvalues --    0.13297   0.14826   0.15012   0.16123   0.17083
 Alpha virt. eigenvalues --    0.17355   0.17633   0.19015   0.20090   0.21938

 Mulliken charges:
               1
     1  C   -0.394589
     2  C    0.097025
     3  O   -0.294091
     4  C   -0.120197
     5  C    0.315578
     6  O   -0.304941
     7  C   -0.134343
     8  C   -0.108376
     9  C   -0.144949
    10  H    0.121574
    11  H    0.132011
    12  H    0.113719
    13  H    0.067503
    14  H    0.108492
    15  H    0.095608
    16  H    0.110721
    17  H    0.112530
    18  H    0.112175
    19  H    0.114550
 Sum of Mulliken charges =   0.00000

 Dipole moment (field-independent basis, Debye):
    X=              2.4907    Y=             -0.0076    Z=             -1.0065  Tot=              2.6864
 Quadrupole moment (field-independent basis, Debye-Ang):
   XX=            -53.4342   YY=            -52.1923   ZZ=            -52.3635
   XY=             -1.6602   XZ=             -0.0509   YZ=             -0.4436

  Exact polarizability:  91.502   4.364  73.760   1.703   1.476  66.773
 Approx polarizability: 129.485  13.438 105.694   4.602   4.455 100.309

                      1                      2                      3
                      A                      A                      A
 Frequencies --     47.1696                96.7699               191.6213
 Red. masses --      3.4057                 3.0817                 3.0883
 Frc consts  --      0.0045                 0.0170                 0.0668
 IR Inten    --      2.6201                 1.3022                 1.1751

                      4                      5                      6
                      A                      A                      A
 Frequencies --    198.3103               244.4709               333.4571
 Red. masses --      1.1498                 2.1469                 2.8108
 Frc consts  --      0.0266                 0.0756                 0.1841
 IR Inten    --      0.1115                 2.0483                 0.3455

                      7                      8                      9
                      A                      A                      A
 Frequencies --    365.5951               474.2164               482.3959
 Red. masses --      2.7589                 4.3421                 3.2513
 Frc consts  --      0.2173                 0.5753                 0.4458
 IR Inten    --      5.3265                 0.1177                 2.7434

                     10                     11                     12
                      A                      A                      A
 Frequencies --    535.4353               728.7896               779.6470
 Red. masses --      2.8861                 1.3193                 5.9044
 Frc consts  --      0.4875                 0.4128                 2.1146
 IR Inten    --      1.1620                21.6692                 6.4394

                     13                     14                     15
                      A                      A                      A
 Frequencies --    798.3221               840.1027               876.0113
 Red. masses --      2.7060                 4.5996                 2.5257
 Frc consts  --      1.0161                 1.9126                 1.1420
 IR Inten    --      5.1120                 9.5259                13.6343

                     16                     17                     18
                      A                      A                      A
 Frequencies --    895.1415               957.4496               961.1878
 Red. masses --      1.9057                 2.1803                 1.3109
 Frc consts  --      0.8997                 1.1776                 0.7135
 IR Inten    --     10.0349                 2.2177                 1.1572

                     19                     20                     21
                      A                      A                      A
 Frequencies --    987.4619              1021.6749              1034.5953
 Red. masses --      1.9378                 3.9635                 2.4276
 Frc consts  --      1.1132                 2.4375                 1.5310
 IR Inten    --      8.6208                79.5679                12.4317

                     22                     23                     24
                      A                      A                      A
 Frequencies --   1046.5679              1055.1144              1089.9623
 Red. masses --      2.0136                 2.2296                 2.4979
 Frc consts  --      1.2994                 1.4624                 1.7484
 IR Inten    --     18.0517                28.1148                29.3889

                     25                     26                     27
                      A                      A                      A
 Frequencies --   1119.7303              1130.3991              1154.6645
 Red. masses --      1.8317                 2.4640                 1.2723
 Frc consts  --      1.3531                 1.8550                 0.9994
 IR Inten    --     68.3292                 4.4750                 1.1530

                     28                     29                     30
                      A                      A                      A
 Frequencies --   1198.0893              1203.6300              1216.3973
 Red. masses --      1.0958                 2.8108                 2.1176
 Frc consts  --      0.9267                 2.3992                 1.8461
 IR Inten    --      1.9077                57.4718                10.1764

                     31                     32                     33
                      A                      A                      A
 Frequencies --   1282.8541              1348.6633              1363.3508
 Red. masses --      1.3338                 1.5083                 1.4227
 Frc consts  --      1.2933                 1.6163                 1.5580
 IR Inten    --      1.3487                 3.6084                 3.8910

                     34                     35                     36
                      A                      A                      A
 Frequencies --   1378.5329              1385.1387              1404.7188
 Red. masses --      1.8639                 1.5091                 1.3285
 Frc consts  --      2.0869                 1.7059                 1.5445
 IR Inten    --      6.1014                 3.6988                10.1252

                     37                     38                     39
                      A                      A                      A
 Frequencies --   1483.9415              1485.7527              1513.6965
 Red. masses --      1.0533                 1.0512                 1.1025
 Frc consts  --      1.3666                 1.3672                 1.4884
 IR Inten    --      3.2893                 4.3308                 0.6279

                     40                     41                     42
                      A                      A                      A
 Frequencies --   1517.5521              1686.5867              2982.7350
 Red. masses --      1.0860                 6.6292                 1.0583
 Frc consts  --      1.4736                11.1104                 5.5476
 IR Inten    --      1.5106                 0.8827                81.8238

                     43                     44                     45
                      A                      A                      A
 Frequencies --   2999.2710              3004.3621              3013.7075
 Red. masses --      1.0810                 1.1035                 1.0584
 Frc consts  --      5.7294                 5.8686                 5.6640
 IR Inten    --     60.8559                41.1836                50.7572

                     46                     47                     48
                      A                      A                      A
 Frequencies --   3041.1882              3063.6070              3108.0714
 Red. masses --      1.0363                 1.1107                 1.1007
 Frc consts  --      5.6469                 6.1420                 6.2650
 IR Inten    --     13.9670                31.0189                19.2296

                     49                     50                     51
                      A                      A                      A
 Frequencies --   3134.6936              3209.0675              3233.1495
 Red. masses --      1.1011                 1.0856                 1.1068
 Frc consts  --      6.3751                 6.5871                 6.8167
 IR Inten    --     16.0043                 1.6759                 6.9036

 - Thermochemistry -
 -------------------
 Temperature   298.150 Kelvin.  Pressure   1.00000 Atm.
 Atom     1 has atomic number  6 and mass  12.00000

 Molecular mass:   126.06808 amu.
 Principal axes and moments of inertia in atomic units:
                           1         2         3
     Eigenvalues --   594.094741301.481111493.81587
           X            0.99967  -0.02529   0.00335
           Y            0.02536   0.99943  -0.02231
           Z           -0.00279   0.02239   0.99975
 This molecule is an asymmetric top.
 Rotational symmetry number  1.
 Warning -- assumption of classical behavior for rotation
           may cause significant error
 Rotational temperatures (Kelvin)      0.14579     0.06655     0.05798
 Rotational constants (GHZ):           3.03780     1.38668     1.20814
 Zero-point vibrational energy     416928.6 (Joules/Mol)
                                   99.64833 (Kcal/Mol)
 Warning -- explicit consideration of  10 degrees of freedom as
           vibrations may cause significant error
 Vibrational temperatures:     67.87   139.23   275.70   285.32   351.74
          (Kelvin)            479.77   526.01   682.29   694.06   770.37
                             1048.56  1121.74  1148.61  1208.72  1260.38
                             1287.91  1377.55  1382.93  1420.74  1469.96
                             1488.55  1505.78  1518.07  1568.21  1611.04
                             1626.39  1661.30  1723.78  1731.75  1750.12
                             1845.74  1940.42  1961.56  1983.40  1992.90
                             2021.07  2135.06  2137.66  2177.87  2183.42
                             2426.62  4291.49  4315.28  4322.60  4336.05
                             4375.59  4407.84  4471.82  4510.12  4617.13
                             4651.78

 Zero-point correction=                           0.158800 (Hartree/Particle)
 Thermal correction to Energy=                    0.167164
 Thermal correction to Enthalpy=                  0.168108
 Thermal correction to Gibbs Free Energy=         0.125241
 Sum of electronic and zero-point Energies=           -423.013716
 Sum of electronic and thermal Energies=              -423.005352
 Sum of electronic and thermal Enthalpies=            -423.004407
 Sum of electronic and thermal Free Energies=         -423.047275

                     E (Thermal)             CV                S
                      KCal/Mol        Cal/Mol-Kelvin    Cal/Mol-Kelvin
 Total                  104.897             31.320             90.221
 Electronic               0.000              0.000              0.000
 Translational            0.889              2.981             40.409
 Rotational               0.889              2.981             28.537
 Vibrational            103.119             25.358             21.276
 Vibration     1          0.595              1.979              4.933
 Vibration     2          0.603              1.951              3.518
 Vibration     3          0.634              1.851              2.212
 Vibration     4          0.637              1.842              2.149
 Vibration     5          0.660              1.772              1.770
 Vibration     6          0.715              1.609              1.243
 Vibration     7          0.739              1.543              1.098
 Vibration     8          0.831              1.307              0.726
 Vibration     9          0.839              1.289              0.704
 Vibration    10          0.890              1.172              0.575

 Normal termination of Gaussian 09 at Tue Jan 28 04:44:42 2020.
