 Gaussian 09, Revision D.01,
 Gaussian 09:  ES64L-G09RevD.01 24-Apr-2013

 -----------------------------
 # b3lyp 6-31G(2df,p) opt Freq
 -----------------------------

 -----
 titel
 -----
 Symbolic Z-matrix:
 Charge =  0 Multiplicity = 1

 SCF Done:  E(RB3LYP) =  -423.089624819     A.U. after   13 cycles
 Optimization completed.
    -- Stationary point found.
 Normal termination of Gaussian 09 at Tue Jan 28 10:05:56 2020.

 ----------------------------------------------------------------------
 #N Geom=AllCheck Guess=TCheck SCRF=Check GenChk RB3LYP/6-31G(2df,p) Fr
 eq
 ----------------------------------------------------------------------

 Structure from the checkpoint file:  "/scratch/puck/g09_176d2e1b-0968-445a-84a1-640905744fa4/Gau-22666.chk"
 -----
 titel
 -----
 Charge =  0 Multiplicity = 1

                         Standard orientation:
 ---------------------------------------------------------------------
 Center     Atomic      Atomic             Coordinates (Angstroms)
 Number     Number       Type             X           Y           Z
 ---------------------------------------------------------------------
      1          6           0        2.412351    0.525155    0.094015
      2          8           0        1.651109   -0.414285   -0.654972
      3          6           0        0.353389   -0.546404   -0.254504
      4          6           0       -0.630120   -1.562815   -0.843581
      5          6           0       -1.471674   -0.827108    0.222221
      6          6           0       -0.268428   -0.659110    1.191594
      7          8           0       -0.453696    0.774941    1.363303
      8          6           0       -0.781376    0.550475   -0.048170
      9          6           0       -1.219444    1.701646   -0.894455
     10          1           0        2.454743    0.248711    1.154702
     11          1           0        3.420208    0.513540   -0.325532
     12          1           0        1.995980    1.536415    0.018583
     13          1           0       -0.919180   -1.412822   -1.887223
     14          1           0       -0.410803   -2.616217   -0.651172
     15          1           0       -2.508980   -0.973092    0.513210
     16          1           0        0.018497   -1.260611    2.053331
     17          1           0       -2.124816    2.161051   -0.485270
     18          1           0       -0.438928    2.466683   -0.947931
     19          1           0       -1.434217    1.360062   -1.912068
 ---------------------------------------------------------------------

 SCF Done:  E(RB3LYP) =  -423.089624819     A.U. after    1 cycles

 The electronic state is 1-A.
 Alpha  occ. eigenvalues --  -19.15403 -19.12487 -10.24439 -10.24417 -10.23896
 Alpha  occ. eigenvalues --  -10.22598 -10.19849 -10.18791 -10.18623  -1.06527
 Alpha  occ. eigenvalues --   -1.03627  -0.86213  -0.74659  -0.70572  -0.65069
 Alpha  occ. eigenvalues --   -0.61605  -0.61543  -0.52368  -0.48755  -0.47613
 Alpha  occ. eigenvalues --   -0.46809  -0.45220  -0.44880  -0.42245  -0.40637
 Alpha  occ. eigenvalues --   -0.39818  -0.36714  -0.34850  -0.33791  -0.33451
 Alpha  occ. eigenvalues --   -0.30359  -0.29823  -0.24435  -0.22777
 Alpha virt. eigenvalues --    0.08689   0.08913   0.11267   0.11773   0.12486
 Alpha virt. eigenvalues --    0.12905   0.14782   0.14864   0.15412   0.16412
 Alpha virt. eigenvalues --    0.17120   0.18471   0.18684   0.19844   0.20828

 Mulliken charges:
               1
     1  C   -0.256326
     2  O   -0.286337
     3  C    0.372951
     4  C   -0.344766
     5  C   -0.128845
     6  C   -0.006695
     7  O   -0.359923
     8  C    0.376655
     9  C   -0.529687
    10  H    0.123598
    11  H    0.125713
    12  H    0.125765
    13  H    0.102941
    14  H    0.103277
    15  H    0.087733
    16  H    0.092083
    17  H    0.135483
    18  H    0.134442
    19  H    0.131940
 Sum of Mulliken charges =   0.00000

 Dipole moment (field-independent basis, Debye):
    X=             -0.2608    Y=             -0.2385    Z=             -0.5935  Tot=              0.6907
 Quadrupole moment (field-independent basis, Debye-Ang):
   XX=            -50.2682   YY=            -52.2999   ZZ=            -55.0369
   XY=              2.0267   XZ=              3.0780   YZ=             -4.0627

  Exact polarizability:  79.493   1.577  76.344   2.205  -1.916  69.961
 Approx polarizability: 109.943   0.449 111.084   0.850   0.750 109.338

                      1                      2                      3
                      A                      A                      A
 Frequencies --     90.3832               156.3378               173.4290
 Red. masses --      2.5522                 1.4388                 1.1049
 Frc consts  --      0.0123                 0.0207                 0.0196
 IR Inten    --      2.9212                 0.3087                 0.8093

                      4                      5                      6
                      A                      A                      A
 Frequencies --    195.7890               219.7704               248.8515
 Red. masses --      2.0138                 2.6441                 2.4389
 Frc consts  --      0.0455                 0.0752                 0.0890
 IR Inten    --      2.2393                 4.0041                 1.4316

                      7                      8                      9
                      A                      A                      A
 Frequencies --    393.7748               408.5837               471.5952
 Red. masses --      3.3426                 3.0900                 2.7100
 Frc consts  --      0.3054                 0.3039                 0.3551
 IR Inten    --      0.7774                 0.2001                 4.0450

                     10                     11                     12
                      A                      A                      A
 Frequencies --    522.3916               656.4825               684.7891
 Red. masses --      4.2776                 3.5031                 3.6405
 Frc consts  --      0.6878                 0.8895                 1.0058
 IR Inten    --      1.4776                 1.8761                 8.9175

                     13                     14                     15
                      A                      A                      A
 Frequencies --    703.9040               780.6537               818.8941
 Red. masses --      3.9425                 3.6697                 4.0697
 Frc consts  --      1.1509                 1.3176                 1.6079
 IR Inten    --      3.4669                 5.1597                31.5160

                     16                     17                     18
                      A                      A                      A
 Frequencies --    857.8867               897.6834               921.3168
 Red. masses --      2.0139                 2.5375                 1.9158
 Frc consts  --      0.8733                 1.2047                 0.9581
 IR Inten    --      8.0857                 8.5263                 6.6143

                     19                     20                     21
                      A                      A                      A
 Frequencies --    946.4529               997.2921              1059.0392
 Red. masses --      2.5876                 1.3635                 4.1118
 Frc consts  --      1.3657                 0.7990                 2.7171
 IR Inten    --     10.0923                 3.3558                45.2194

                     22                     23                     24
                      A                      A                      A
 Frequencies --   1068.3530              1077.2792              1110.0249
 Red. masses --      1.7857                 2.6959                 1.6249
 Frc consts  --      1.2008                 1.8434                 1.1796
 IR Inten    --      8.2130                16.6677                 9.1706

                     25                     26                     27
                      A                      A                      A
 Frequencies --   1123.0818              1126.6571              1156.9775
 Red. masses --      1.6335                 1.8324                 1.9364
 Frc consts  --      1.2140                 1.3704                 1.5272
 IR Inten    --      8.5928                12.3554                 5.5317

                     28                     29                     30
                      A                      A                      A
 Frequencies --   1178.8816              1198.2271              1220.4239
 Red. masses --      1.2850                 1.7082                 1.7799
 Frc consts  --      1.0522                 1.4450                 1.5619
 IR Inten    --      2.0621                11.0188                 4.5804

                     31                     32                     33
                      A                      A                      A
 Frequencies --   1245.1220              1272.9110              1342.3094
 Red. masses --      1.9066                 2.2173                 3.3162
 Frc consts  --      1.7415                 2.1168                 3.5204
 IR Inten    --     22.6523                 9.6046               175.4561

                     34                     35                     36
                      A                      A                      A
 Frequencies --   1366.8080              1413.3689              1472.1215
 Red. masses --      2.6168                 1.7611                 1.0469
 Frc consts  --      2.8803                 2.0727                 1.3367
 IR Inten    --     72.9423                13.1120                 4.0320

                     37                     38                     39
                      A                      A                      A
 Frequencies --   1486.7461              1489.6646              1491.2831
 Red. masses --      1.0548                 1.0798                 1.1236
 Frc consts  --      1.3737                 1.4118                 1.4723
 IR Inten    --      6.6094                 7.9597                 4.2808

                     40                     41                     42
                      A                      A                      A
 Frequencies --   1497.0478              1520.2474              3016.1459
 Red. masses --      1.0610                 1.2298                 1.0325
 Frc consts  --      1.4010                 1.6746                 5.5340
 IR Inten    --      8.7408                18.7128                37.9322

                     43                     44                     45
                      A                      A                      A
 Frequencies --   3037.2696              3056.8356              3076.5904
 Red. masses --      1.0346                 1.0554                 1.1040
 Frc consts  --      5.6235                 5.8104                 6.1567
 IR Inten    --     16.8408                38.4464                31.7334

                     46                     47                     48
                      A                      A                      A
 Frequencies --   3108.6244              3112.1415              3114.6082
 Red. masses --      1.1017                 1.1013                 1.1092
 Frc consts  --      6.2726                 6.2844                 6.3395
 IR Inten    --     14.9997                14.9719                23.2443

                     49                     50                     51
                      A                      A                      A
 Frequencies --   3126.6374              3129.1336              3156.0926
 Red. masses --      1.0911                 1.1021                 1.0947
 Frc consts  --      6.2846                 6.3580                 6.4246
 IR Inten    --     40.0961                27.6744                24.9646

 - Thermochemistry -
 -------------------
 Temperature   298.150 Kelvin.  Pressure   1.00000 Atm.
 Atom     1 has atomic number  6 and mass  12.00000

 Molecular mass:   126.06808 amu.
 Principal axes and moments of inertia in atomic units:
                           1         2         3
     Eigenvalues --   767.010721066.757771211.03779
           X            0.99793   0.03921   0.05091
           Y           -0.03344   0.99340  -0.10969
           Z           -0.05487   0.10777   0.99266
 This molecule is an asymmetric top.
 Rotational symmetry number  1.
 Warning -- assumption of classical behavior for rotation
           may cause significant error
 Rotational temperatures (Kelvin)      0.11292     0.08119     0.07152
 Rotational constants (GHZ):           2.35295     1.69180     1.49024
 Zero-point vibrational energy     412693.2 (Joules/Mol)
                                   98.63604 (Kcal/Mol)
 Warning -- explicit consideration of  10 degrees of freedom as
           vibrations may cause significant error
 Vibrational temperatures:    130.04   224.93   249.53   281.70   316.20
          (Kelvin)            358.04   566.55   587.86   678.52   751.60
                              944.53   985.26  1012.76  1123.19  1178.20
                             1234.31  1291.56  1325.57  1361.73  1434.88
                             1523.72  1537.12  1549.96  1597.08  1615.86
                             1621.01  1664.63  1696.15  1723.98  1755.92
                             1791.45  1831.43  1931.28  1966.53  2033.52
                             2118.05  2139.09  2143.29  2145.62  2153.92
                             2187.29  4339.56  4369.95  4398.10  4426.52
                             4472.61  4477.67  4481.22  4498.53  4502.12
                             4540.91

 Zero-point correction=                           0.157187 (Hartree/Particle)
 Thermal correction to Energy=                    0.165740
 Thermal correction to Enthalpy=                  0.166684
 Thermal correction to Gibbs Free Energy=         0.124221
 Sum of electronic and zero-point Energies=           -422.932438
 Sum of electronic and thermal Energies=              -422.923885
 Sum of electronic and thermal Enthalpies=            -422.922941
 Sum of electronic and thermal Free Energies=         -422.965404

                     E (Thermal)             CV                S
                      KCal/Mol        Cal/Mol-Kelvin    Cal/Mol-Kelvin
 Total                  104.003             32.528             89.371
 Electronic               0.000              0.000              0.000
 Translational            0.889              2.981             40.409
 Rotational               0.889              2.981             28.385
 Vibrational            102.226             26.567             20.577
 Vibration     1          0.602              1.956              3.652
 Vibration     2          0.620              1.896              2.594
 Vibration     3          0.627              1.875              2.398
 Vibration     4          0.636              1.846              2.172
 Vibration     5          0.647              1.811              1.961
 Vibration     6          0.662              1.765              1.739
 Vibration     7          0.761              1.483              0.986
 Vibration     8          0.773              1.452              0.932
 Vibration     9          0.829              1.313              0.733
 Vibration    10          0.877              1.200              0.604

 Optimization completed.
    -- Stationary point found.
 Normal termination of Gaussian 09 at Tue Jan 28 10:50:25 2020.
