 Gaussian 09, Revision D.01,
 Gaussian 09:  ES64L-G09RevD.01 24-Apr-2013

 -----------------------------
 # b3lyp 6-31G(2df,p) opt Freq
 -----------------------------

 -----
 titel
 -----
 Symbolic Z-matrix:
 Charge =  0 Multiplicity = 1

 SCF Done:  E(RB3LYP) =  -423.158419345     A.U. after   14 cycles
 Optimization completed.
    -- Stationary point found.
 Normal termination of Gaussian 09 at Tue Jan 28 02:30:47 2020.

 ----------------------------------------------------------------------
 #N Geom=AllCheck Guess=TCheck SCRF=Check GenChk RB3LYP/6-31G(2df,p) Fr
 eq
 ----------------------------------------------------------------------

 Structure from the checkpoint file:  "/scratch/puck/g09_d005b78d-da98-4f5c-81ab-5cb2fade1cf1/Gau-112487.chk"
 -----
 titel
 -----
 Charge =  0 Multiplicity = 1

                         Standard orientation:
 ---------------------------------------------------------------------
 Center     Atomic      Atomic             Coordinates (Angstroms)
 Number     Number       Type             X           Y           Z
 ---------------------------------------------------------------------
      1          8           0        2.794345   -0.161014    0.476865
      2          6           0        1.648948    0.138553   -0.315552
      3          6           0        0.688529    1.018573    0.533881
      4          6           0       -0.713885    0.566321    0.083489
      5          8           0       -1.290573    1.422153   -0.897677
      6          6           0       -1.813920   -0.096453    0.993500
      7          6           0       -1.824109   -1.328475    0.005330
      8          6           0       -0.481925   -0.817292   -0.460961
      9          6           0        0.802131   -1.101326   -0.630936
     10          1           0        3.451263   -0.573273   -0.092604
     11          1           0        1.961806    0.662710   -1.231996
     12          1           0        0.875692    0.763817    1.581554
     13          1           0        0.857698    2.090421    0.399297
     14          1           0       -1.597159    2.214830   -0.443914
     15          1           0       -1.435670   -0.369798    1.980983
     16          1           0       -2.751941    0.456664    1.091510
     17          1           0       -1.867921   -2.333441    0.430524
     18          1           0       -2.612050   -1.218587   -0.745004
     19          1           0        1.253479   -2.061861   -0.856365
 ---------------------------------------------------------------------

 SCF Done:  E(RB3LYP) =  -423.158419345     A.U. after    1 cycles

 The electronic state is 1-A.
 Alpha  occ. eigenvalues --  -19.13273 -19.13147 -10.23118 -10.22752 -10.19120
 Alpha  occ. eigenvalues --  -10.18689 -10.17773 -10.17428 -10.17415  -1.01703
 Alpha  occ. eigenvalues --   -1.01168  -0.85620  -0.77322  -0.70537  -0.64262
 Alpha  occ. eigenvalues --   -0.62171  -0.57530  -0.52709  -0.50311  -0.47795
 Alpha  occ. eigenvalues --   -0.47243  -0.45030  -0.43236  -0.39189  -0.38251
 Alpha  occ. eigenvalues --   -0.37568  -0.35277  -0.35008  -0.33173  -0.32401
 Alpha  occ. eigenvalues --   -0.29210  -0.26411  -0.25859  -0.23560
 Alpha virt. eigenvalues --    0.01138   0.07966   0.08526   0.11878   0.12103
 Alpha virt. eigenvalues --    0.12990   0.14196   0.14860   0.16121   0.16972
 Alpha virt. eigenvalues --    0.18886   0.20112   0.20252   0.21663   0.21981

 Mulliken charges:
               1
     1  O   -0.430809
     2  C    0.093432
     3  C   -0.301917
     4  C    0.355381
     5  O   -0.492962
     6  C   -0.287545
     7  C   -0.326715
     8  C    0.302396
     9  C   -0.279106
    10  H    0.281407
    11  H    0.077355
    12  H    0.112939
    13  H    0.090603
    14  H    0.276262
    15  H    0.109346
    16  H    0.094079
    17  H    0.109944
    18  H    0.124436
    19  H    0.091475
 Sum of Mulliken charges =   0.00000

 Dipole moment (field-independent basis, Debye):
    X=             -0.2592    Y=             -0.0562    Z=              0.2486  Tot=              0.3635
 Quadrupole moment (field-independent basis, Debye-Ang):
   XX=            -49.2353   YY=            -48.6004   ZZ=            -56.0603
   XY=             -3.1870   XZ=             -6.1795   YZ=              2.0245

  Exact polarizability:  97.794  -2.209  75.493  -5.065   2.422  61.518
 Approx polarizability: 139.439  -8.178 108.557  -5.175   2.910  96.306

                      1                      2                      3
                      A                      A                      A
 Frequencies --     84.7578               174.7944               227.5747
 Red. masses --      3.3967                 2.8067                 2.9865
 Frc consts  --      0.0144                 0.0505                 0.0911
 IR Inten    --      1.3085                 0.6496                 5.9771

                      4                      5                      6
                      A                      A                      A
 Frequencies --    264.6910               283.7532               324.4518
 Red. masses --      1.1049                 1.3536                 1.8906
 Frc consts  --      0.0456                 0.0642                 0.1173
 IR Inten    --     96.8067                57.4201                33.2284

                      7                      8                      9
                      A                      A                      A
 Frequencies --    343.0935               388.6971               479.1914
 Red. masses --      3.2615                 3.2529                 3.3151
 Frc consts  --      0.2262                 0.2896                 0.4485
 IR Inten    --     12.9850                11.0314                 7.3015

                     10                     11                     12
                      A                      A                      A
 Frequencies --    512.0618               551.4544               627.6116
 Red. masses --      2.7718                 3.5953                 3.0713
 Frc consts  --      0.4282                 0.6442                 0.7128
 IR Inten    --      2.6048                 5.1533                 2.1159

                     13                     14                     15
                      A                      A                      A
 Frequencies --    703.7608               768.4885               799.3076
 Red. masses --      2.1837                 2.2496                 2.6363
 Frc consts  --      0.6372                 0.7828                 0.9924
 IR Inten    --      6.7405                 5.7264                 7.7749

                     16                     17                     18
                      A                      A                      A
 Frequencies --    834.7984               874.7377               897.4005
 Red. masses --      1.6684                 2.0210                 3.3376
 Frc consts  --      0.6851                 0.9111                 1.5836
 IR Inten    --      6.6258                 3.7706                 4.1587

                     19                     20                     21
                      A                      A                      A
 Frequencies --    922.7964               945.9678               978.5301
 Red. masses --      2.4269                 1.9291                 2.5498
 Frc consts  --      1.2176                 1.0171                 1.4385
 IR Inten    --      6.3431                14.9998                26.6357

                     22                     23                     24
                      A                      A                      A
 Frequencies --   1024.6347              1031.1078              1077.1322
 Red. masses --      3.4497                 2.4133                 1.4036
 Frc consts  --      2.1338                 1.5117                 0.9595
 IR Inten    --     54.4883                21.4647                 9.0971

                     25                     26                     27
                      A                      A                      A
 Frequencies --   1108.2605              1127.1847              1166.8452
 Red. masses --      1.7816                 3.1574                 2.1111
 Frc consts  --      1.2893                 2.3636                 1.6935
 IR Inten    --     36.8209                21.2645                 6.1887

                     28                     29                     30
                      A                      A                      A
 Frequencies --   1185.8099              1202.4106              1234.6841
 Red. masses --      1.3202                 1.5739                 1.2445
 Frc consts  --      1.0938                 1.3407                 1.1178
 IR Inten    --      1.5424                78.6596                40.4327

                     31                     32                     33
                      A                      A                      A
 Frequencies --   1248.7423              1263.3815              1271.4649
 Red. masses --      1.4142                 1.3279                 1.7202
 Frc consts  --      1.2993                 1.2487                 1.6384
 IR Inten    --      6.9519                 2.3080                12.7094

                     34                     35                     36
                      A                      A                      A
 Frequencies --   1289.9326              1320.0191              1386.8209
 Red. masses --      1.3609                 1.5017                 1.8021
 Frc consts  --      1.3342                 1.5417                 2.0421
 IR Inten    --     15.5145                79.6338                 7.2445

                     37                     38                     39
                      A                      A                      A
 Frequencies --   1416.5504              1460.4041              1469.1121
 Red. masses --      1.4282                 1.0968                 1.1051
 Frc consts  --      1.6885                 1.3782                 1.4053
 IR Inten    --     12.8614                 0.3466                 4.5725

                     40                     41                     42
                      A                      A                      A
 Frequencies --   1477.4788              1742.3073              2973.0279
 Red. masses --      1.1269                 8.8881                 1.0831
 Frc consts  --      1.4493                15.8968                 5.6404
 IR Inten    --      0.2687                 5.9777                60.3421

                     43                     44                     45
                      A                      A                      A
 Frequencies --   3054.2645              3057.1979              3062.7843
 Red. masses --      1.0583                 1.0575                 1.0590
 Frc consts  --      5.8164                 5.8236                 5.8530
 IR Inten    --     11.7255                47.1051                37.0296

                     46                     47                     48
                      A                      A                      A
 Frequencies --   3108.1788              3112.1492              3129.0328
 Red. masses --      1.1062                 1.1073                 1.1080
 Frc consts  --      6.2967                 6.3191                 6.3918
 IR Inten    --     25.9369                 3.2054                38.0129

                     49                     50                     51
                      A                      A                      A
 Frequencies --   3186.5445              3798.5853              3821.3955
 Red. masses --      1.0952                 1.0660                 1.0663
 Frc consts  --      6.5519                 9.0629                 9.1739
 IR Inten    --     14.1172                16.1647                24.9395

 - Thermochemistry -
 -------------------
 Temperature   298.150 Kelvin.  Pressure   1.00000 Atm.
 Atom     1 has atomic number  8 and mass  15.99491

 Molecular mass:   126.06808 amu.
 Principal axes and moments of inertia in atomic units:
                           1         2         3
     Eigenvalues --   595.436511353.160071582.58679
           X            0.99969   0.01228  -0.02166
           Y           -0.01173   0.99960   0.02570
           Z            0.02197  -0.02543   0.99944
 This molecule is an asymmetric top.
 Rotational symmetry number  1.
 Warning -- assumption of classical behavior for rotation
           may cause significant error
 Rotational temperatures (Kelvin)      0.14546     0.06401     0.05473
 Rotational constants (GHZ):           3.03095     1.33372     1.14037
 Zero-point vibrational energy     417469.0 (Joules/Mol)
                                   99.77748 (Kcal/Mol)
 Warning -- explicit consideration of  11 degrees of freedom as
           vibrations may cause significant error
 Vibrational temperatures:    121.95   251.49   327.43   380.83   408.26
          (Kelvin)            466.81   493.63   559.25   689.45   736.74
                              793.42   902.99  1012.55  1105.68  1150.02
                             1201.09  1258.55  1291.16  1327.70  1361.04
                             1407.88  1474.22  1483.53  1549.75  1594.54
                             1621.77  1678.83  1706.11  1730.00  1776.43
                             1796.66  1817.72  1829.35  1855.92  1899.21
                             1995.32  2038.10  2101.19  2113.72  2125.76
                             2506.79  4277.52  4394.40  4398.62  4406.66
                             4471.97  4477.68  4501.97  4584.72  5465.31
                             5498.13

 Zero-point correction=                           0.159006 (Hartree/Particle)
 Thermal correction to Energy=                    0.167397
 Thermal correction to Enthalpy=                  0.168341
 Thermal correction to Gibbs Free Energy=         0.126369
 Sum of electronic and zero-point Energies=           -422.999414
 Sum of electronic and thermal Energies=              -422.991022
 Sum of electronic and thermal Enthalpies=            -422.990078
 Sum of electronic and thermal Free Energies=         -423.032050

                     E (Thermal)             CV                S
                      KCal/Mol        Cal/Mol-Kelvin    Cal/Mol-Kelvin
 Total                  105.043             33.143             88.337
 Electronic               0.000              0.000              0.000
 Translational            0.889              2.981             40.409
 Rotational               0.889              2.981             28.635
 Vibrational            103.266             27.182             19.293
 Vibration     1          0.601              1.960              3.778
 Vibration     2          0.627              1.873              2.383
 Vibration     3          0.651              1.799              1.898
 Vibration     4          0.671              1.738              1.631
 Vibration     5          0.682              1.704              1.511
 Vibration     6          0.709              1.627              1.288
 Vibration     7          0.722              1.589              1.198
 Vibration     8          0.757              1.494              1.005
 Vibration     9          0.836              1.296              0.712
 Vibration    10          0.867              1.223              0.629
 Vibration    11          0.907              1.137              0.541

 Normal termination of Gaussian 09 at Tue Jan 28 03:13:45 2020.
