 Gaussian 09, Revision D.01,
 Gaussian 09:  ES64L-G09RevD.01 24-Apr-2013

 -----------------------------
 # b3lyp 6-31G(2df,p) opt Freq
 -----------------------------

 -----
 titel
 -----
 Symbolic Z-matrix:
 Charge =  0 Multiplicity = 1

 SCF Done:  E(RB3LYP) =  -423.130530837     A.U. after   12 cycles
 Optimization completed.
    -- Stationary point found.
 Normal termination of Gaussian 09 at Tue Jan 28 12:11:24 2020.

 ----------------------------------------------------------------------
 #N Geom=AllCheck Guess=TCheck SCRF=Check GenChk RB3LYP/6-31G(2df,p) Fr
 eq
 ----------------------------------------------------------------------

 Structure from the checkpoint file:  "/scratch/puck/g09_6a22e67d-65c4-4287-9817-3390ba0e61ea/Gau-115427.chk"
 -----
 titel
 -----
 Charge =  0 Multiplicity = 1

                         Standard orientation:
 ---------------------------------------------------------------------
 Center     Atomic      Atomic             Coordinates (Angstroms)
 Number     Number       Type             X           Y           Z
 ---------------------------------------------------------------------
      1          6           0        2.712515    0.017150    0.169637
      2          8           0        1.613381   -0.428031   -0.603952
      3          6           0        0.390273    0.079763   -0.224847
      4          6           0       -0.008003    1.560241   -0.097808
      5          6           0       -1.277139    0.927421    0.520985
      6          8           0       -1.889196    0.291185   -0.612900
      7          6           0       -0.861041   -0.682559   -0.837523
      8          6           0       -0.932436   -1.548668    0.440492
      9          6           0       -0.409159   -0.266963    1.103286
     10          1           0        2.576433   -0.212547    1.235637
     11          1           0        3.593970   -0.511979   -0.198553
     12          1           0        2.875118    1.097817    0.060779
     13          1           0        0.601360    2.075711    0.649918
     14          1           0       -0.143403    2.175087   -0.990997
     15          1           0       -2.001651    1.489715    1.105415
     16          1           0       -0.885452   -1.072919   -1.853195
     17          1           0       -1.912807   -1.947304    0.710813
     18          1           0       -0.169076   -2.330027    0.453902
     19          1           0       -0.018030   -0.187102    2.115770
 ---------------------------------------------------------------------

 SCF Done:  E(RB3LYP) =  -423.130530837     A.U. after    1 cycles

 The electronic state is 1-A.
 Alpha  occ. eigenvalues --  -19.15362 -19.13480 -10.24049 -10.23604 -10.23070
 Alpha  occ. eigenvalues --  -10.23055 -10.18983 -10.18068 -10.17933  -1.05965
 Alpha  occ. eigenvalues --   -1.03921  -0.84175  -0.76467  -0.71083  -0.66152
 Alpha  occ. eigenvalues --   -0.60899  -0.56248  -0.54757  -0.52865  -0.48008
 Alpha  occ. eigenvalues --   -0.46607  -0.46152  -0.43820  -0.42792  -0.39519
 Alpha  occ. eigenvalues --   -0.38573  -0.35715  -0.34797  -0.34135  -0.33308
 Alpha  occ. eigenvalues --   -0.32008  -0.28195  -0.24704  -0.23800
 Alpha virt. eigenvalues --    0.09021   0.09151   0.11658   0.11892   0.13652
 Alpha virt. eigenvalues --    0.13922   0.14742   0.15976   0.16058   0.16560
 Alpha virt. eigenvalues --    0.17186   0.18231   0.19276   0.20130   0.21088

 Mulliken charges:
               1
     1  C   -0.260530
     2  O   -0.301411
     3  C    0.429866
     4  C   -0.316174
     5  C    0.070658
     6  O   -0.268575
     7  C    0.027688
     8  C   -0.248266
     9  C   -0.143779
    10  H    0.111853
    11  H    0.131145
    12  H    0.116512
    13  H    0.098340
    14  H    0.103910
    15  H    0.083460
    16  H    0.083048
    17  H    0.098890
    18  H    0.110113
    19  H    0.073250
 Sum of Mulliken charges =   0.00000

 Dipole moment (field-independent basis, Debye):
    X=              1.5917    Y=              0.3754    Z=              1.5554  Tot=              2.2570
 Quadrupole moment (field-independent basis, Debye-Ang):
   XX=            -53.7636   YY=            -51.8690   ZZ=            -52.7659
   XY=              1.3148   XZ=             -0.1095   YZ=              1.0009

  Exact polarizability:  80.726   1.473  75.999  -0.180   0.359  66.833
 Approx polarizability: 111.629  -0.447 109.451   0.533   2.320 106.361

                      1                      2                      3
                      A                      A                      A
 Frequencies --     87.8827               167.7738               209.9730
 Red. masses --      2.5292                 1.1722                 2.6881
 Frc consts  --      0.0115                 0.0194                 0.0698
 IR Inten    --      1.4425                 0.0616                 0.5864

                      4                      5                      6
                      A                      A                      A
 Frequencies --    303.1455               360.4290               455.3644
 Red. masses --      3.3852                 2.9933                 2.2517
 Frc consts  --      0.1833                 0.2291                 0.2751
 IR Inten    --      7.7633                 0.9352                 0.4622

                      7                      8                      9
                      A                      A                      A
 Frequencies --    461.6346               532.3184               615.3136
 Red. masses --      2.3665                 3.5455                 4.1193
 Frc consts  --      0.2971                 0.5919                 0.9189
 IR Inten    --      1.4083                 5.7293                 7.6744

                     10                     11                     12
                      A                      A                      A
 Frequencies --    646.7601               731.4777               806.3258
 Red. masses --      3.9957                 4.0272                 2.5968
 Frc consts  --      0.9848                 1.2696                 0.9947
 IR Inten    --      1.0979                 7.4854                 0.5891

                     13                     14                     15
                      A                      A                      A
 Frequencies --    842.9300               903.2324               908.7694
 Red. masses --      2.5528                 2.0566                 2.7792
 Frc consts  --      1.0687                 0.9886                 1.3523
 IR Inten    --      1.1824                 7.2248                10.0663

                     16                     17                     18
                      A                      A                      A
 Frequencies --    926.9259               930.9471               962.3555
 Red. masses --      1.9911                 2.5058                 2.5039
 Frc consts  --      1.0079                 1.2795                 1.3663
 IR Inten    --     10.8443                22.2222                23.0977

                     19                     20                     21
                      A                      A                      A
 Frequencies --    990.6523              1022.7623              1034.1816
 Red. masses --      1.8024                 2.9604                 1.4302
 Frc consts  --      1.0422                 1.8245                 0.9013
 IR Inten    --      4.7975                10.7982                 0.5080

                     22                     23                     24
                      A                      A                      A
 Frequencies --   1058.2135              1065.0246              1124.6679
 Red. masses --      2.3733                 5.3786                 2.4731
 Frc consts  --      1.5658                 3.5945                 1.8431
 IR Inten    --     42.5237                35.0340                 2.9549

                     25                     26                     27
                      A                      A                      A
 Frequencies --   1131.8060              1149.1534              1175.0356
 Red. masses --      1.4559                 1.4925                 1.5518
 Frc consts  --      1.0988                 1.1612                 1.2624
 IR Inten    --      7.9315                 2.5817                 4.0544

                     28                     29                     30
                      A                      A                      A
 Frequencies --   1180.0551              1198.9794              1223.0212
 Red. masses --      1.2909                 1.8876                 1.5276
 Frc consts  --      1.0591                 1.5987                 1.3462
 IR Inten    --      2.8397                13.9645                16.3183

                     31                     32                     33
                      A                      A                      A
 Frequencies --   1228.1407              1251.5131              1262.0432
 Red. masses --      1.6441                 1.3980                 1.8949
 Frc consts  --      1.4611                 1.2901                 1.7782
 IR Inten    --      6.5576                 7.4142                12.7417

                     34                     35                     36
                      A                      A                      A
 Frequencies --   1272.2869              1314.8170              1349.4470
 Red. masses --      1.8489                 2.3610                 1.8287
 Frc consts  --      1.7633                 2.4047                 1.9620
 IR Inten    --     45.2230               155.9102                38.4535

                     37                     38                     39
                      A                      A                      A
 Frequencies --   1474.2872              1477.3217              1486.4863
 Red. masses --      1.1246                 1.1292                 1.1050
 Frc consts  --      1.4401                 1.4520                 1.4386
 IR Inten    --      2.6804                 2.2656                 7.0837

                     40                     41                     42
                      A                      A                      A
 Frequencies --   1491.5346              1505.9395              2996.2705
 Red. masses --      1.1729                 1.0521                 1.0351
 Frc consts  --      1.5374                 1.4058                 5.4751
 IR Inten    --      6.5323                 8.3217                43.2076

                     43                     44                     45
                      A                      A                      A
 Frequencies --   3050.9386              3058.6327              3066.5615
 Red. masses --      1.0973                 1.0617                 1.0558
 Frc consts  --      6.0178                 5.8523                 5.8499
 IR Inten    --     20.8989                48.6375                28.8521

                     46                     47                     48
                      A                      A                      A
 Frequencies --   3121.3493              3124.2888              3130.7009
 Red. masses --      1.1081                 1.0995                 1.1096
 Frc consts  --      6.3610                 6.3236                 6.4078
 IR Inten    --     25.6700                23.2894                20.1180

                     49                     50                     51
                      A                      A                      A
 Frequencies --   3135.7891              3142.8677              3150.7642
 Red. masses --      1.0900                 1.0910                 1.0936
 Frc consts  --      6.3148                 6.3494                 6.3967
 IR Inten    --     25.8980                40.0065                28.4519

 - Thermochemistry -
 -------------------
 Temperature   298.150 Kelvin.  Pressure   1.00000 Atm.
 Atom     1 has atomic number  6 and mass  12.00000

 Molecular mass:   126.06808 amu.
 Principal axes and moments of inertia in atomic units:
                           1         2         3
     Eigenvalues --   559.739991146.329431317.91994
           X            0.99972   0.02303   0.00581
           Y           -0.02302   0.99973  -0.00136
           Z           -0.00584   0.00122   0.99998
 This molecule is an asymmetric top.
 Rotational symmetry number  1.
 Warning -- assumption of classical behavior for rotation
           may cause significant error
 Rotational temperatures (Kelvin)      0.15474     0.07556     0.06572
 Rotational constants (GHZ):           3.22425     1.57437     1.36939
 Zero-point vibrational energy     420481.9 (Joules/Mol)
                                  100.49760 (Kcal/Mol)
 Warning -- explicit consideration of   9 degrees of freedom as
           vibrations may cause significant error
 Vibrational temperatures:    126.44   241.39   302.10   436.16   518.58
          (Kelvin)            655.17   664.19   765.89   885.30   930.54
                             1052.43  1160.12  1212.79  1299.55  1307.51
                             1333.64  1339.42  1384.61  1425.33  1471.52
                             1487.95  1522.53  1532.33  1618.14  1628.41
                             1653.37  1690.61  1697.83  1725.06  1759.65
                             1767.02  1800.65  1815.80  1830.53  1891.73
                             1941.55  2121.17  2125.53  2138.72  2145.98
                             2166.71  4310.96  4389.61  4400.68  4412.09
                             4490.92  4495.15  4504.37  4511.70  4521.88
                             4533.24

 Zero-point correction=                           0.160153 (Hartree/Particle)
 Thermal correction to Energy=                    0.167555
 Thermal correction to Enthalpy=                  0.168500
 Thermal correction to Gibbs Free Energy=         0.128326
 Sum of electronic and zero-point Energies=           -422.970378
 Sum of electronic and thermal Energies=              -422.962975
 Sum of electronic and thermal Enthalpies=            -422.962031
 Sum of electronic and thermal Free Energies=         -423.002205

                     E (Thermal)             CV                S
                      KCal/Mol        Cal/Mol-Kelvin    Cal/Mol-Kelvin
 Total                  105.143             29.617             84.553
 Electronic               0.000              0.000              0.000
 Translational            0.889              2.981             40.409
 Rotational               0.889              2.981             28.227
 Vibrational            103.365             23.655             15.917
 Vibration     1          0.601              1.958              3.707
 Vibration     2          0.625              1.882              2.460
 Vibration     3          0.642              1.826              2.044
 Vibration     4          0.695              1.668              1.399
 Vibration     5          0.735              1.554              1.120
 Vibration     6          0.814              1.349              0.780
 Vibration     7          0.819              1.335              0.761
 Vibration     8          0.887              1.179              0.582
 Vibration     9          0.975              0.999              0.424

 Optimization completed.
    -- Stationary point found.
 Normal termination of Gaussian 09 at Tue Jan 28 12:55:52 2020.
