 Gaussian 09, Revision D.01,
 Gaussian 09:  ES64L-G09RevD.01 24-Apr-2013

 -----------------------------
 # b3lyp 6-31G(2df,p) opt Freq
 -----------------------------

 -----
 titel
 -----
 Symbolic Z-matrix:
 Charge =  0 Multiplicity = 1

 SCF Done:  E(RB3LYP) =  -423.216280985     A.U. after   14 cycles
 Optimization completed.
    -- Stationary point found.
 Normal termination of Gaussian 09 at Tue Jan 28 00:00:29 2020.

 ----------------------------------------------------------------------
 #N Geom=AllCheck Guess=TCheck SCRF=Check GenChk RB3LYP/6-31G(2df,p) Fr
 eq
 ----------------------------------------------------------------------

 Structure from the checkpoint file:  "/scratch/puck/g09_ca4d685b-220b-451a-8cea-74bdaf7eb5f6/Gau-163961.chk"
 -----
 titel
 -----
 Charge =  0 Multiplicity = 1

                         Standard orientation:
 ---------------------------------------------------------------------
 Center     Atomic      Atomic             Coordinates (Angstroms)
 Number     Number       Type             X           Y           Z
 ---------------------------------------------------------------------
      1          6           0        2.179610   -1.086555    0.043853
      2          6           0        0.856404   -0.538380   -0.502236
      3          6           0       -0.429648   -1.211516    0.044548
      4          6           0       -1.603724   -0.704596   -0.802892
      5          8           0       -1.694219    0.694671   -0.460436
      6          6           0       -0.752586    0.925785    0.606831
      7          6           0       -0.703000   -0.413149    1.346694
      8          6           0        0.625879    0.933747   -0.077431
      9          8           0        1.374845    1.858099   -0.245171
     10          1           0        2.182598   -1.130472    1.137793
     11          1           0        2.367609   -2.096046   -0.333996
     12          1           0        3.005046   -0.439967   -0.265665
     13          1           0        0.887708   -0.579781   -1.597603
     14          1           0       -0.376002   -2.296797    0.139112
     15          1           0       -1.429257   -0.800679   -1.880523
     16          1           0       -2.549093   -1.204435   -0.555579
     17          1           0       -1.024556    1.835229    1.138737
     18          1           0        0.104805   -0.474260    2.080456
     19          1           0       -1.651469   -0.666965    1.825935
 ---------------------------------------------------------------------

 SCF Done:  E(RB3LYP) =  -423.216280985     A.U. after    1 cycles

 The electronic state is 1-A.
 Alpha  occ. eigenvalues --  -19.14924 -19.13450 -10.26390 -10.23842 -10.23521
 Alpha  occ. eigenvalues --  -10.20501 -10.20016 -10.19823 -10.18722  -1.05262
 Alpha  occ. eigenvalues --   -1.03523  -0.84328  -0.75799  -0.74410  -0.66790
 Alpha  occ. eigenvalues --   -0.60887  -0.58942  -0.53851  -0.51084  -0.48777
 Alpha  occ. eigenvalues --   -0.46943  -0.44660  -0.42481  -0.41546  -0.39802
 Alpha  occ. eigenvalues --   -0.39150  -0.38234  -0.37058  -0.36610  -0.35700
 Alpha  occ. eigenvalues --   -0.33531  -0.31564  -0.27816  -0.22692
 Alpha virt. eigenvalues --   -0.01981   0.08157   0.10525   0.11454   0.12721
 Alpha virt. eigenvalues --    0.13005   0.14144   0.14759   0.15802   0.16763
 Alpha virt. eigenvalues --    0.17624   0.18676   0.18795   0.20745   0.21322

 Mulliken charges:
               1
     1  C   -0.421117
     2  C   -0.085648
     3  C   -0.060118
     4  C   -0.080262
     5  O   -0.281897
     6  C   -0.003816
     7  C   -0.258412
     8  C    0.442960
     9  O   -0.335793
    10  H    0.119834
    11  H    0.118108
    12  H    0.142951
    13  H    0.101645
    14  H    0.075310
    15  H    0.106026
    16  H    0.100208
    17  H    0.092412
    18  H    0.113578
    19  H    0.114031
 Sum of Mulliken charges =   0.00000

 Dipole moment (field-independent basis, Debye):
    X=             -0.6311    Y=             -3.3061    Z=              0.9644  Tot=              3.5012
 Quadrupole moment (field-independent basis, Debye-Ang):
   XX=            -56.2938   YY=            -56.8976   ZZ=            -50.8129
   XY=             -1.8160   XZ=             -0.7310   YZ=              2.5351

  Exact polarizability:  80.616   2.523  74.953  -1.220   2.422  67.124
 Approx polarizability: 113.408   7.823 115.053  -0.494   1.772 102.291

                      1                      2                      3
                      A                      A                      A
 Frequencies --    103.1595               209.5917               217.6651
 Red. masses --      4.5600                 1.4069                 2.0972
 Frc consts  --      0.0286                 0.0364                 0.0585
 IR Inten    --      1.9021                 1.5108                 2.2150

                      4                      5                      6
                      A                      A                      A
 Frequencies --    241.7926               269.8451               405.3071
 Red. masses --      3.0846                 2.8373                 3.3645
 Frc consts  --      0.1063                 0.1217                 0.3256
 IR Inten    --      4.2602                 4.0079                 4.4987

                      7                      8                      9
                      A                      A                      A
 Frequencies --    422.2572               483.5863               565.2032
 Red. masses --      2.6675                 2.5410                 4.5236
 Frc consts  --      0.2802                 0.3501                 0.8514
 IR Inten    --      0.4589                 3.6271                 0.2426

                     10                     11                     12
                      A                      A                      A
 Frequencies --    691.7877               744.7735               775.5073
 Red. masses --      4.2858                 3.3432                 3.7056
 Frc consts  --      1.2084                 1.0926                 1.3131
 IR Inten    --      1.1375                 1.5671                10.1301

                     13                     14                     15
                      A                      A                      A
 Frequencies --    781.3605               861.2427               891.4135
 Red. masses --      5.0024                 2.2105                 3.3162
 Frc consts  --      1.7994                 0.9660                 1.5525
 IR Inten    --      8.8753                 5.0113                21.7641

                     16                     17                     18
                      A                      A                      A
 Frequencies --    920.7990               928.8386               944.0248
 Red. masses --      2.1121                 3.0995                 1.9350
 Frc consts  --      1.0551                 1.5755                 1.0160
 IR Inten    --      2.9296                 1.1192                18.2464

                     19                     20                     21
                      A                      A                      A
 Frequencies --    975.0736              1013.9554              1023.5368
 Red. masses --      1.6359                 1.4504                 1.8169
 Frc consts  --      0.9164                 0.8786                 1.1215
 IR Inten    --     19.2005                 5.5512                 8.1343

                     22                     23                     24
                      A                      A                      A
 Frequencies --   1066.2500              1092.2374              1114.6898
 Red. masses --      2.5102                 1.8307                 1.7128
 Frc consts  --      1.6814                 1.2868                 1.2539
 IR Inten    --     30.8045                12.7786                 4.9954

                     25                     26                     27
                      A                      A                      A
 Frequencies --   1124.7605              1165.0415              1177.0321
 Red. masses --      1.4578                 2.3763                 1.5261
 Frc consts  --      1.0866                 1.9003                 1.2457
 IR Inten    --      0.3424                26.1133                 5.9968

                     28                     29                     30
                      A                      A                      A
 Frequencies --   1220.1090              1245.7425              1282.3696
 Red. masses --      1.4795                 1.8311                 1.3456
 Frc consts  --      1.2977                 1.6743                 1.3037
 IR Inten    --      1.4924                 2.4617                 0.0454

                     31                     32                     33
                      A                      A                      A
 Frequencies --   1287.6178              1294.7097              1315.5029
 Red. masses --      1.5166                 1.4514                 1.4458
 Frc consts  --      1.4815                 1.4335                 1.4742
 IR Inten    --      1.7023                 3.3534                 0.9770

                     34                     35                     36
                      A                      A                      A
 Frequencies --   1346.5516              1377.2153              1406.9831
 Red. masses --      1.7414                 1.3645                 1.2123
 Frc consts  --      1.8603                 1.5249                 1.4140
 IR Inten    --      3.3987                 1.6601                 2.2400

                     37                     38                     39
                      A                      A                      A
 Frequencies --   1486.0335              1497.8897              1501.3743
 Red. masses --      1.0966                 1.0517                 1.0535
 Frc consts  --      1.4267                 1.3903                 1.3991
 IR Inten    --      1.7699                 4.6056                 8.9651

                     40                     41                     42
                      A                      A                      A
 Frequencies --   1530.6816              1860.5649              3015.8339
 Red. masses --      1.0930                12.4370                 1.0599
 Frc consts  --      1.5089                25.3662                 5.6800
 IR Inten    --      0.4578               204.6048                68.4322

                     43                     44                     45
                      A                      A                      A
 Frequencies --   3036.8869              3039.4335              3062.3543
 Red. masses --      1.0781                 1.0401                 1.1049
 Frc consts  --      5.8580                 5.6613                 6.1049
 IR Inten    --      4.9753                23.6587                31.5840

                     46                     47                     48
                      A                      A                      A
 Frequencies --   3068.6916              3106.5539              3109.1156
 Red. masses --      1.0590                 1.1015                 1.0885
 Frc consts  --      5.8754                 6.2629                 6.1996
 IR Inten    --     18.3661                26.8514                27.8894

                     49                     50                     51
                      A                      A                      A
 Frequencies --   3121.4026              3123.0051              3149.8065
 Red. masses --      1.1024                 1.1068                 1.0912
 Frc consts  --      6.3284                 6.3602                 6.3784
 IR Inten    --     20.8184                11.1860                18.0256

 - Thermochemistry -
 -------------------
 Temperature   298.150 Kelvin.  Pressure   1.00000 Atm.
 Atom     1 has atomic number  6 and mass  12.00000

 Molecular mass:   126.06808 amu.
 Principal axes and moments of inertia in atomic units:
                           1         2         3
     Eigenvalues --   722.354491014.173141319.95494
           X            0.99807  -0.06194  -0.00320
           Y            0.06200   0.99778   0.02432
           Z            0.00168  -0.02447   0.99970
 This molecule is an asymmetric top.
 Rotational symmetry number  1.
 Warning -- assumption of classical behavior for rotation
           may cause significant error
 Rotational temperatures (Kelvin)      0.11990     0.08540     0.06562
 Rotational constants (GHZ):           2.49841     1.77952     1.36727
 Zero-point vibrational energy     422862.9 (Joules/Mol)
                                  101.06667 (Kcal/Mol)
 Warning -- explicit consideration of   9 degrees of freedom as
           vibrations may cause significant error
 Vibrational temperatures:    148.42   301.56   313.17   347.89   388.25
          (Kelvin)            583.15   607.53   695.77   813.20   995.33
                             1071.56  1115.78  1124.20  1239.13  1282.54
                             1324.82  1336.39  1358.24  1402.91  1458.85
                             1472.64  1534.09  1571.48  1603.79  1618.28
                             1676.23  1693.48  1755.46  1792.34  1845.04
                             1852.59  1862.80  1892.71  1937.38  1981.50
                             2024.33  2138.07  2155.13  2160.14  2202.31
                             2676.93  4339.11  4369.40  4373.06  4406.04
                             4415.16  4469.63  4473.32  4491.00  4493.30
                             4531.86

 Zero-point correction=                           0.161060 (Hartree/Particle)
 Thermal correction to Energy=                    0.168678
 Thermal correction to Enthalpy=                  0.169623
 Thermal correction to Gibbs Free Energy=         0.129126
 Sum of electronic and zero-point Energies=           -423.055221
 Sum of electronic and thermal Energies=              -423.047603
 Sum of electronic and thermal Enthalpies=            -423.046658
 Sum of electronic and thermal Free Energies=         -423.087155

                     E (Thermal)             CV                S
                      KCal/Mol        Cal/Mol-Kelvin    Cal/Mol-Kelvin
 Total                  105.847             30.062             85.232
 Electronic               0.000              0.000              0.000
 Translational            0.889              2.981             40.409
 Rotational               0.889              2.981             28.360
 Vibrational            104.070             24.100             16.464
 Vibration     1          0.605              1.947              3.394
 Vibration     2          0.642              1.826              2.047
 Vibration     3          0.646              1.814              1.978
 Vibration     4          0.658              1.776              1.790
 Vibration     5          0.674              1.729              1.597
 Vibration     6          0.770              1.459              0.943
 Vibration     7          0.785              1.422              0.884
 Vibration     8          0.840              1.286              0.700
 Vibration     9          0.921              1.107              0.514

 Optimization completed.
    -- Stationary point found.
 Normal termination of Gaussian 09 at Tue Jan 28 00:37:28 2020.
