 Gaussian 09, Revision D.01,
 Gaussian 09:  ES64L-G09RevD.01 24-Apr-2013

 -----------------------------
 # b3lyp 6-31G(2df,p) opt Freq
 -----------------------------

 -----
 titel
 -----
 Symbolic Z-matrix:
 Charge =  0 Multiplicity = 1

 SCF Done:  E(RB3LYP) =  -423.200791594     A.U. after   14 cycles
 Optimization completed.
    -- Stationary point found.
 Normal termination of Gaussian 09 at Tue Jan 28 00:44:49 2020.

 ----------------------------------------------------------------------
 #N Geom=AllCheck Guess=TCheck SCRF=Check GenChk RB3LYP/6-31G(2df,p) Fr
 eq
 ----------------------------------------------------------------------

 Structure from the checkpoint file:  "/scratch/puck/g09_a08d1c13-7146-4767-910a-918ce8cb5fb8/Gau-37669.chk"
 -----
 titel
 -----
 Charge =  0 Multiplicity = 1

                         Standard orientation:
 ---------------------------------------------------------------------
 Center     Atomic      Atomic             Coordinates (Angstroms)
 Number     Number       Type             X           Y           Z
 ---------------------------------------------------------------------
      1          6           0        2.979421   -0.406677   -0.053663
      2          6           0        1.540586   -0.143454    0.382387
      3          6           0        0.983002    1.232172   -0.042226
      4          6           0       -0.533321    1.063329   -0.031910
      5          8           0       -1.370667    1.927417   -0.008752
      6          6           0       -0.815694   -0.432867   -0.040173
      7          6           0       -1.998832   -0.944575    0.678726
      8          8           0       -1.973217   -0.877403   -0.740794
      9          6           0        0.511653   -1.149053   -0.191691
     10          1           0        3.313416   -1.400698    0.262085
     11          1           0        3.072896   -0.353675   -1.144556
     12          1           0        3.666010    0.329237    0.377177
     13          1           0        1.489734   -0.202007    1.478065
     14          1           0        1.302362    2.074184    0.575934
     15          1           0        1.279560    1.457610   -1.077373
     16          1           0       -1.956579   -1.945488    1.107099
     17          1           0       -2.666825   -0.234901    1.163386
     18          1           0        0.542274   -2.121941    0.305005
     19          1           0        0.707335   -1.315687   -1.259156
 ---------------------------------------------------------------------

 SCF Done:  E(RB3LYP) =  -423.200791594     A.U. after    1 cycles

 The electronic state is 1-A.
 Alpha  occ. eigenvalues --  -19.16244 -19.13424 -10.26895 -10.24680 -10.24326
 Alpha  occ. eigenvalues --  -10.20690 -10.19619 -10.19515 -10.18698  -1.08593
 Alpha  occ. eigenvalues --   -1.04104  -0.84836  -0.73893  -0.71803  -0.67005
 Alpha  occ. eigenvalues --   -0.63848  -0.58352  -0.53712  -0.50278  -0.48818
 Alpha  occ. eigenvalues --   -0.46290  -0.44983  -0.43151  -0.41941  -0.41305
 Alpha  occ. eigenvalues --   -0.39671  -0.38710  -0.37423  -0.36128  -0.34106
 Alpha  occ. eigenvalues --   -0.33755  -0.30510  -0.28593  -0.23840
 Alpha virt. eigenvalues --   -0.03172   0.07517   0.09858   0.11164   0.12026
 Alpha virt. eigenvalues --    0.13152   0.13250   0.14124   0.15254   0.16524
 Alpha virt. eigenvalues --    0.16894   0.18062   0.19001   0.20211   0.22747

 Mulliken charges:
               1
     1  C   -0.401708
     2  C    0.015554
     3  C   -0.338916
     4  C    0.342905
     5  O   -0.314594
     6  C    0.352712
     7  C   -0.234766
     8  O   -0.268406
     9  C   -0.331116
    10  H    0.117719
    11  H    0.117901
    12  H    0.118998
    13  H    0.084408
    14  H    0.128527
    15  H    0.131693
    16  H    0.118014
    17  H    0.135116
    18  H    0.109547
    19  H    0.116413
 Sum of Mulliken charges =   0.00000

 Dipole moment (field-independent basis, Debye):
    X=              2.9088    Y=             -1.7462    Z=              1.4569  Tot=              3.6923
 Quadrupole moment (field-independent basis, Debye-Ang):
   XX=            -55.8351   YY=            -56.4999   ZZ=            -52.0763
   XY=              3.9551   XZ=             -3.9071   YZ=             -1.8120

  Exact polarizability:  90.022   1.463  77.075  -4.664  -1.853  61.335
 Approx polarizability: 117.991  -1.048 113.478  -4.090  -1.639 100.018

                      1                      2                      3
                      A                      A                      A
 Frequencies --     75.4690               114.3939               238.6907
 Red. masses --      3.1080                 2.9585                 2.3237
 Frc consts  --      0.0104                 0.0228                 0.0780
 IR Inten    --      1.2218                 2.7330                 0.8201

                      4                      5                      6
                      A                      A                      A
 Frequencies --    245.6021               260.1366               282.5963
 Red. masses --      1.2937                 3.3895                 3.8207
 Frc consts  --      0.0460                 0.1351                 0.1798
 IR Inten    --      1.3682                 2.8777                 2.9766

                      7                      8                      9
                      A                      A                      A
 Frequencies --    357.2898               412.9896               457.7350
 Red. masses --      2.6553                 1.9576                 3.8872
 Frc consts  --      0.1997                 0.1967                 0.4799
 IR Inten    --      3.5387                 0.0802                 0.2957

                     10                     11                     12
                      A                      A                      A
 Frequencies --    495.4621               566.4234               637.9162
 Red. masses --      3.1568                 3.3060                 3.5648
 Frc consts  --      0.4566                 0.6249                 0.8547
 IR Inten    --      2.6707                 6.3330                 9.0432

                     13                     14                     15
                      A                      A                      A
 Frequencies --    695.9992               828.5746               840.6664
 Red. masses --      3.7781                 2.3982                 2.9279
 Frc consts  --      1.0783                 0.9701                 1.2191
 IR Inten    --      2.5790                26.8351                 2.3557

                     16                     17                     18
                      A                      A                      A
 Frequencies --    877.3406               910.5843               929.9507
 Red. masses --      3.2172                 1.7440                 1.5509
 Frc consts  --      1.4590                 0.8520                 0.7902
 IR Inten    --      6.7734                13.0321                 0.5939

                     19                     20                     21
                      A                      A                      A
 Frequencies --    943.7115               970.6185              1047.3442
 Red. masses --      1.7749                 1.7936                 1.8199
 Frc consts  --      0.9313                 0.9956                 1.1762
 IR Inten    --      2.1293                 5.8078                10.1723

                     22                     23                     24
                      A                      A                      A
 Frequencies --   1072.4187              1099.6287              1132.9961
 Red. masses --      3.4241                 2.0143                 1.3276
 Frc consts  --      2.3202                 1.4350                 1.0041
 IR Inten    --     43.2950                 0.2200                 1.9653

                     25                     26                     27
                      A                      A                      A
 Frequencies --   1155.9644              1166.5614              1172.9909
 Red. masses --      1.8075                 1.4884                 1.5732
 Frc consts  --      1.4231                 1.1934                 1.2753
 IR Inten    --      8.2243                 8.5408                10.9096

                     28                     29                     30
                      A                      A                      A
 Frequencies --   1229.5576              1253.1037              1266.2899
 Red. masses --      2.3434                 1.7863                 1.5748
 Frc consts  --      2.0873                 1.6526                 1.4878
 IR Inten    --     19.0221                18.1666                 1.4705

                     31                     32                     33
                      A                      A                      A
 Frequencies --   1289.4074              1345.2765              1380.8343
 Red. masses --      1.3952                 1.3127                 1.5247
 Frc consts  --      1.3667                 1.3997                 1.7128
 IR Inten    --      2.2051                 3.9841                 7.4686

                     34                     35                     36
                      A                      A                      A
 Frequencies --   1406.7561              1416.8733              1448.5853
 Red. masses --      2.7092                 1.2915                 1.0928
 Frc consts  --      3.1589                 1.5276                 1.3510
 IR Inten    --     15.4421                 2.9983                 6.7123

                     37                     38                     39
                      A                      A                      A
 Frequencies --   1490.3948              1497.3173              1500.2010
 Red. masses --      1.1016                 1.0519                 1.0472
 Frc consts  --      1.4417                 1.3895                 1.3887
 IR Inten    --      2.0342                 2.0750                 7.1501

                     40                     41                     42
                      A                      A                      A
 Frequencies --   1508.8010              1848.4578              3007.8456
 Red. masses --      1.3600                12.6445                 1.0779
 Frc consts  --      1.8241                25.4548                 5.7457
 IR Inten    --      4.3250               166.2919                 2.9990

                     43                     44                     45
                      A                      A                      A
 Frequencies --   3018.4680              3027.1540              3032.7868
 Red. masses --      1.0716                 1.0400                 1.0626
 Frc consts  --      5.7523                 5.6149                 5.7586
 IR Inten    --     12.0945                14.9666                36.2629

                     46                     47                     48
                      A                      A                      A
 Frequencies --   3081.5613              3094.3617              3099.1349
 Red. masses --      1.0496                 1.1002                 1.0984
 Frc consts  --      5.8725                 6.2066                 6.2158
 IR Inten    --     22.1164                10.4138                43.5944

                     49                     50                     51
                      A                      A                      A
 Frequencies --   3101.2180              3109.2553              3180.4149
 Red. masses --      1.1016                 1.0935                 1.1200
 Frc consts  --      6.2420                 6.2283                 6.6750
 IR Inten    --     20.0910                14.1430                12.2778

 - Thermochemistry -
 -------------------
 Temperature   298.150 Kelvin.  Pressure   1.00000 Atm.
 Atom     1 has atomic number  6 and mass  12.00000

 Molecular mass:   126.06808 amu.
 Principal axes and moments of inertia in atomic units:
                           1         2         3
     Eigenvalues --   640.344731350.355361805.20905
           X            0.99982   0.00844  -0.01690
           Y           -0.00871   0.99984  -0.01565
           Z            0.01677   0.01579   0.99973
 This molecule is an asymmetric top.
 Rotational symmetry number  1.
 Warning -- assumption of classical behavior for rotation
           may cause significant error
 Rotational temperatures (Kelvin)      0.13526     0.06414     0.04798
 Rotational constants (GHZ):           2.81839     1.33649     0.99974
 Zero-point vibrational energy     416444.7 (Joules/Mol)
                                   99.53266 (Kcal/Mol)
 Warning -- explicit consideration of  11 degrees of freedom as
           vibrations may cause significant error
 Vibrational temperatures:    108.58   164.59   343.42   353.37   374.28
          (Kelvin)            406.59   514.06   594.20   658.58   712.86
                              814.96   917.82  1001.39  1192.13  1209.53
                             1262.30  1310.13  1337.99  1357.79  1396.50
                             1506.89  1542.97  1582.12  1630.13  1663.17
                             1678.42  1687.67  1769.06  1802.93  1821.91
                             1855.17  1935.55  1986.71  2024.01  2038.56
                             2084.19  2144.34  2154.30  2158.45  2170.83
                             2659.52  4327.61  4342.90  4355.39  4363.50
                             4433.67  4452.09  4458.96  4461.96  4473.52
                             4575.90

 Zero-point correction=                           0.158615 (Hartree/Particle)
 Thermal correction to Energy=                    0.167075
 Thermal correction to Enthalpy=                  0.168020
 Thermal correction to Gibbs Free Energy=         0.125461
 Sum of electronic and zero-point Energies=           -423.042176
 Sum of electronic and thermal Energies=              -423.033716
 Sum of electronic and thermal Enthalpies=            -423.032772
 Sum of electronic and thermal Free Energies=         -423.075331

                     E (Thermal)             CV                S
                      KCal/Mol        Cal/Mol-Kelvin    Cal/Mol-Kelvin
 Total                  104.841             32.276             89.572
 Electronic               0.000              0.000              0.000
 Translational            0.889              2.981             40.409
 Rotational               0.889              2.981             28.836
 Vibrational            103.064             26.314             20.328
 Vibration     1          0.599              1.965              4.005
 Vibration     2          0.607              1.938              3.193
 Vibration     3          0.657              1.781              1.813
 Vibration     4          0.660              1.770              1.762
 Vibration     5          0.668              1.746              1.661
 Vibration     6          0.682              1.706              1.518
 Vibration     7          0.732              1.560              1.134
 Vibration     8          0.777              1.442              0.916
 Vibration     9          0.816              1.344              0.773
 Vibration    10          0.851              1.260              0.670
 Vibration    11          0.922              1.104              0.511

 Optimization completed.
    -- Stationary point found.
 Normal termination of Gaussian 09 at Tue Jan 28 02:48:31 2020.
