 Gaussian 09, Revision D.01,
 Gaussian 09:  ES64L-G09RevD.01 24-Apr-2013

 -----------------------------
 # b3lyp 6-31G(2df,p) opt Freq
 -----------------------------

 -----
 titel
 -----
 Symbolic Z-matrix:
 Charge =  0 Multiplicity = 1

 SCF Done:  E(RB3LYP) =  -423.174388730     A.U. after   14 cycles
 Optimization completed.
    -- Stationary point found.
 Normal termination of Gaussian 09 at Mon Jan 27 15:35:50 2020.

 ----------------------------------------------------------------------
 #N Geom=AllCheck Guess=TCheck SCRF=Check GenChk RB3LYP/6-31G(2df,p) Fr
 eq
 ----------------------------------------------------------------------

 Structure from the checkpoint file:  "/scratch/puck/g09_8936dab9-b3bd-45dc-a8eb-a9f1db638ce8/Gau-175612.chk"
 -----
 titel
 -----
 Charge =  0 Multiplicity = 1

                         Standard orientation:
 ---------------------------------------------------------------------
 Center     Atomic      Atomic             Coordinates (Angstroms)
 Number     Number       Type             X           Y           Z
 ---------------------------------------------------------------------
      1          6           0        2.403674    1.384967   -0.168008
      2          6           0        1.791548    0.054459    0.252890
      3          8           0        2.625785   -0.964457   -0.288144
      4          6           0        0.364745   -0.111940   -0.242127
      5          6           0       -0.544764   -1.048693    0.477293
      6          6           0       -1.868494   -1.179795   -0.293162
      7          6           0       -2.058303    0.349205   -0.073373
      8          8           0       -2.985912    1.087238   -0.242084
      9          6           0       -0.739791    0.481779    0.630082
     10          1           0        1.841138    2.222399    0.253310
     11          1           0        3.439043    1.446167    0.176633
     12          1           0        2.400722    1.474267   -1.258681
     13          1           0        1.784482   -0.004979    1.355221
     14          1           0        2.220493   -1.815046   -0.089786
     15          1           0        0.273050   -0.033057   -1.324766
     16          1           0       -0.205805   -1.722512    1.254426
     17          1           0       -1.810976   -1.548302   -1.321467
     18          1           0       -2.648785   -1.727703    0.242975
     19          1           0       -0.504035    1.146635    1.452391
 ---------------------------------------------------------------------

 SCF Done:  E(RB3LYP) =  -423.174388730     A.U. after    1 cycles

 The electronic state is 1-A.
 Alpha  occ. eigenvalues --  -19.14185 -19.13183 -10.27249 -10.24668 -10.21937
 Alpha  occ. eigenvalues --  -10.21439 -10.20972 -10.20068 -10.17962  -1.04301
 Alpha  occ. eigenvalues --   -1.02551  -0.91505  -0.77426  -0.72159  -0.65818
 Alpha  occ. eigenvalues --   -0.61622  -0.58776  -0.54459  -0.51231  -0.50316
 Alpha  occ. eigenvalues --   -0.46106  -0.45738  -0.42269  -0.41942  -0.40859
 Alpha  occ. eigenvalues --   -0.38920  -0.38471  -0.37313  -0.36384  -0.33869
 Alpha  occ. eigenvalues --   -0.30990  -0.29002  -0.27715  -0.24382
 Alpha virt. eigenvalues --   -0.01179   0.06793   0.08675   0.09542   0.10375
 Alpha virt. eigenvalues --    0.11124   0.12987   0.14927   0.15337   0.16034
 Alpha virt. eigenvalues --    0.17610   0.18278   0.19842   0.20843   0.21815

 Mulliken charges:
               1
     1  C   -0.379920
     2  C    0.099357
     3  O   -0.434237
     4  C   -0.026872
     5  C   -0.086962
     6  C   -0.374967
     7  C    0.413145
     8  O   -0.312514
     9  C   -0.186225
    10  H    0.120629
    11  H    0.127396
    12  H    0.126462
    13  H    0.063917
    14  H    0.282005
    15  H    0.099323
    16  H    0.102985
    17  H    0.122645
    18  H    0.134601
    19  H    0.109233
 Sum of Mulliken charges =   0.00000

 Dipole moment (field-independent basis, Debye):
    X=              1.3990    Y=             -2.0360    Z=              1.2166  Tot=              2.7536
 Quadrupole moment (field-independent basis, Debye-Ang):
   XX=            -67.6201   YY=            -51.1555   ZZ=            -51.5583
   XY=              6.8691   XZ=              0.5185   YZ=             -0.0758

  Exact polarizability:  93.362   0.359  76.252   1.860   1.155  62.124
 Approx polarizability: 125.909  -9.856 117.718   1.909   1.340  98.024

                      1                      2                      3
                      A                      A                      A
 Frequencies --     74.2637               118.3391               140.4204
 Red. masses --      4.2457                 3.9194                 4.0191
 Frc consts  --      0.0138                 0.0323                 0.0467
 IR Inten    --      3.0695                 1.4438                 3.1207

                      4                      5                      6
                      A                      A                      A
 Frequencies --    202.7589               232.6080               301.4119
 Red. masses --      1.7899                 1.3647                 2.7386
 Frc consts  --      0.0434                 0.0435                 0.1466
 IR Inten    --      1.7698                 6.9517                13.9442

                      7                      8                      9
                      A                      A                      A
 Frequencies --    339.1733               386.7879               441.2356
 Red. masses --      1.2302                 3.3705                 2.6431
 Frc consts  --      0.0834                 0.2971                 0.3032
 IR Inten    --     89.2600                 1.8293                 1.7250

                     10                     11                     12
                      A                      A                      A
 Frequencies --    481.0147               509.8906               560.4402
 Red. masses --      2.8891                 3.8019                 2.6203
 Frc consts  --      0.3938                 0.5824                 0.4849
 IR Inten    --      9.4174                 8.8778                 3.4526

                     13                     14                     15
                      A                      A                      A
 Frequencies --    652.0575               798.2321               842.0790
 Red. masses --      3.9523                 2.3717                 2.5398
 Frc consts  --      0.9901                 0.8904                 1.0611
 IR Inten    --      2.6173                12.7762                10.7555

                     16                     17                     18
                      A                      A                      A
 Frequencies --    854.6490               874.8072               927.3890
 Red. masses --      1.8990                 3.1459                 1.8827
 Frc consts  --      0.8172                 1.4185                 0.9540
 IR Inten    --      3.0162                 5.4125                15.7594

                     19                     20                     21
                      A                      A                      A
 Frequencies --    954.6391               986.3539               998.0339
 Red. masses --      1.7602                 2.0506                 2.1523
 Frc consts  --      0.9451                 1.1754                 1.2631
 IR Inten    --     16.8501                12.8668                32.4172

                     22                     23                     24
                      A                      A                      A
 Frequencies --   1020.0727              1055.4536              1066.1380
 Red. masses --      1.7217                 1.8863                 1.7103
 Frc consts  --      1.0555                 1.2381                 1.1454
 IR Inten    --     23.0387                36.0692                14.1195

                     25                     26                     27
                      A                      A                      A
 Frequencies --   1104.3038              1119.3992              1139.2733
 Red. masses --      1.4678                 1.8021                 1.5896
 Frc consts  --      1.0546                 1.3304                 1.2156
 IR Inten    --      8.4149                 8.1394                15.3762

                     28                     29                     30
                      A                      A                      A
 Frequencies --   1152.6581              1199.7171              1216.4376
 Red. masses --      2.0387                 1.8720                 1.8410
 Frc consts  --      1.5959                 1.5875                 1.6050
 IR Inten    --     25.5653                 4.6969                 7.1741

                     31                     32                     33
                      A                      A                      A
 Frequencies --   1259.4066              1272.1207              1287.7976
 Red. masses --      1.9011                 1.2578                 1.2913
 Frc consts  --      1.7765                 1.1993                 1.2617
 IR Inten    --     19.8836                37.5235                45.4473

                     34                     35                     36
                      A                      A                      A
 Frequencies --   1341.2814              1393.3382              1419.0169
 Red. masses --      1.6397                 1.2494                 1.4467
 Frc consts  --      1.7381                 1.4291                 1.7163
 IR Inten    --     19.2326                 4.3895                 6.4443

                     37                     38                     39
                      A                      A                      A
 Frequencies --   1438.6925              1459.4780              1483.9606
 Red. masses --      1.7997                 1.1342                 1.0640
 Frc consts  --      2.1948                 1.4234                 1.3805
 IR Inten    --     31.3769                 3.4623                 5.0079

                     40                     41                     42
                      A                      A                      A
 Frequencies --   1499.3063              1885.1309              2947.9466
 Red. masses --      1.0619                12.4290                 1.0823
 Frc consts  --      1.4064                26.0236                 5.5416
 IR Inten    --      1.7040               374.0083                45.7653

                     43                     44                     45
                      A                      A                      A
 Frequencies --   3046.3016              3057.3672              3111.9995
 Red. masses --      1.0349                 1.0583                 1.0968
 Frc consts  --      5.6581                 5.8283                 6.2584
 IR Inten    --     12.6040                19.6808                 0.5654

                     46                     47                     48
                      A                      A                      A
 Frequencies --   3112.9386              3120.8022              3128.6619
 Red. masses --      1.0986                 1.1007                 1.1024
 Frc consts  --      6.2724                 6.3160                 6.3578
 IR Inten    --     17.1887                26.5339                20.0315

                     49                     50                     51
                      A                      A                      A
 Frequencies --   3187.6604              3196.1224              3813.9705
 Red. masses --      1.0897                 1.0963                 1.0660
 Frc consts  --      6.5239                 6.5984                 9.1360
 IR Inten    --      6.6727                 5.5215                11.1483

 - Thermochemistry -
 -------------------
 Temperature   298.150 Kelvin.  Pressure   1.00000 Atm.
 Atom     1 has atomic number  6 and mass  12.00000

 Molecular mass:   126.06808 amu.
 Principal axes and moments of inertia in atomic units:
                           1         2         3
     Eigenvalues --   486.994491889.226882208.27915
           X            0.99922   0.03958   0.00157
           Y           -0.03958   0.99921   0.00347
           Z           -0.00143  -0.00353   0.99999
 This molecule is an asymmetric top.
 Rotational symmetry number  1.
 Warning -- assumption of classical behavior for rotation
           may cause significant error
 Rotational temperatures (Kelvin)      0.17785     0.04585     0.03922
 Rotational constants (GHZ):           3.70588     0.95528     0.81726
 Zero-point vibrational energy     413987.7 (Joules/Mol)
                                   98.94544 (Kcal/Mol)
 Warning -- explicit consideration of  12 degrees of freedom as
           vibrations may cause significant error
 Vibrational temperatures:    106.85   170.26   202.03   291.72   334.67
          (Kelvin)            433.66   487.99   556.50   634.84   692.07
                              733.62   806.35   938.16  1148.48  1211.56
                             1229.65  1258.65  1334.30  1373.51  1419.14
                             1435.95  1467.66  1518.56  1533.93  1588.84
                             1610.56  1639.16  1658.42  1726.12  1750.18
                             1812.00  1830.30  1852.85  1929.80  2004.70
                             2041.65  2069.96  2099.86  2135.09  2157.16
                             2712.28  4241.43  4382.94  4398.86  4477.47
                             4478.82  4490.13  4501.44  4586.33  4598.50
                             5487.45

 Zero-point correction=                           0.157680 (Hartree/Particle)
 Thermal correction to Energy=                    0.166620
 Thermal correction to Enthalpy=                  0.167564
 Thermal correction to Gibbs Free Energy=         0.123849
 Sum of electronic and zero-point Energies=           -423.016709
 Sum of electronic and thermal Energies=              -423.007769
 Sum of electronic and thermal Enthalpies=            -423.006825
 Sum of electronic and thermal Free Energies=         -423.050540

                     E (Thermal)             CV                S
                      KCal/Mol        Cal/Mol-Kelvin    Cal/Mol-Kelvin
 Total                  104.555             33.699             92.005
 Electronic               0.000              0.000              0.000
 Translational            0.889              2.981             40.409
 Rotational               0.889              2.981             29.098
 Vibrational            102.778             27.737             22.499
 Vibration     1          0.599              1.966              4.037
 Vibration     2          0.609              1.934              3.127
 Vibration     3          0.615              1.913              2.798
 Vibration     4          0.639              1.836              2.108
 Vibration     5          0.653              1.791              1.859
 Vibration     6          0.693              1.671              1.409
 Vibration     7          0.719              1.597              1.216
 Vibration     8          0.755              1.498              1.013
 Vibration     9          0.801              1.380              0.823
 Vibration    10          0.837              1.292              0.707
 Vibration    11          0.865              1.228              0.634
 Vibration    12          0.916              1.117              0.523

 Optimization completed.
    -- Stationary point found.
 Normal termination of Gaussian 09 at Mon Jan 27 16:15:55 2020.
 Normal termination of Gaussian 09 at Mon Jan 27 15:37:24 2020.
