 Gaussian 09, Revision D.01,
 Gaussian 09:  ES64L-G09RevD.01 24-Apr-2013

 -----------------------------
 # b3lyp 6-31G(2df,p) opt Freq
 -----------------------------

 -----
 titel
 -----
 Symbolic Z-matrix:
 Charge =  0 Multiplicity = 1

 SCF Done:  E(RB3LYP) =  -423.163015883     A.U. after   14 cycles
 Optimization completed.
    -- Stationary point found.
 Normal termination of Gaussian 09 at Mon Jan 27 18:47:09 2020.

 ----------------------------------------------------------------------
 #N Geom=AllCheck Guess=TCheck SCRF=Check GenChk RB3LYP/6-31G(2df,p) Fr
 eq
 ----------------------------------------------------------------------

 Structure from the checkpoint file:  "/scratch/puck/g09_53e6c364-c15f-4aac-9920-b6cf22271b02/Gau-43347.chk"
 -----
 titel
 -----
 Charge =  0 Multiplicity = 1

                         Standard orientation:
 ---------------------------------------------------------------------
 Center     Atomic      Atomic             Coordinates (Angstroms)
 Number     Number       Type             X           Y           Z
 ---------------------------------------------------------------------
      1          6           0       -1.222096    1.901503   -0.494579
      2          6           0       -0.901898    0.546707    0.092245
      3          6           0       -2.059602   -0.445988    0.343428
      4          8           0       -1.376136   -1.508790   -0.368207
      5          6           0       -0.274428   -0.651320   -0.685086
      6          6           0        0.881260   -0.734839    0.375355
      7          6           0        0.232188    0.442021    1.152393
      8          6           0        2.234204   -0.460340   -0.221938
      9          8           0        2.813142    0.597028   -0.175729
     10          1           0       -0.312752    2.410629   -0.829660
     11          1           0       -1.900952    1.817270   -1.350149
     12          1           0       -1.703586    2.544220    0.252423
     13          1           0       -2.264519   -0.708687    1.388739
     14          1           0       -3.002348   -0.184784   -0.153988
     15          1           0       -0.013011   -0.669083   -1.747649
     16          1           0        0.891090   -1.715233    0.860537
     17          1           0       -0.089916    0.223877    2.173266
     18          1           0        0.891187    1.313119    1.161252
     19          1           0        2.670985   -1.323703   -0.774185
 ---------------------------------------------------------------------

 SCF Done:  E(RB3LYP) =  -423.163015883     A.U. after    1 cycles

 The electronic state is 1-A.
 Alpha  occ. eigenvalues --  -19.14328 -19.14219 -10.27302 -10.24547 -10.23496
 Alpha  occ. eigenvalues --  -10.20517 -10.19897 -10.18810 -10.18514  -1.05121
 Alpha  occ. eigenvalues --   -1.04750  -0.84185  -0.76065  -0.69176  -0.66787
 Alpha  occ. eigenvalues --   -0.64928  -0.55989  -0.53302  -0.50714  -0.49188
 Alpha  occ. eigenvalues --   -0.46543  -0.45528  -0.43407  -0.42062  -0.41222
 Alpha  occ. eigenvalues --   -0.40590  -0.38996  -0.37698  -0.34939  -0.32887
 Alpha  occ. eigenvalues --   -0.30767  -0.28741  -0.26548  -0.24452
 Alpha virt. eigenvalues --   -0.02677   0.06127   0.08848   0.09929   0.12433
 Alpha virt. eigenvalues --    0.13210   0.13471   0.14535   0.14914   0.15837
 Alpha virt. eigenvalues --    0.16460   0.17378   0.18097   0.19589   0.20717

 Mulliken charges:
               1
     1  C   -0.501212
     2  C    0.308886
     3  C   -0.122143
     4  O   -0.289672
     5  C    0.058576
     6  C   -0.101893
     7  C   -0.317766
     8  C    0.130230
     9  O   -0.242502
    10  H    0.132700
    11  H    0.120137
    12  H    0.123446
    13  H    0.101495
    14  H    0.103177
    15  H    0.081578
    16  H    0.100642
    17  H    0.101400
    18  H    0.131603
    19  H    0.081321
 Sum of Mulliken charges =   0.00000

 Dipole moment (field-independent basis, Debye):
    X=             -1.4741    Y=             -0.0293    Z=              0.4338  Tot=              1.5369
 Quadrupole moment (field-independent basis, Debye-Ang):
   XX=            -58.6136   YY=            -55.8698   ZZ=            -51.3724
   XY=             -7.6244   XZ=             -0.9916   YZ=             -0.7239

  Exact polarizability:  88.681  -1.275  73.651  -3.006   1.392  66.368
 Approx polarizability: 120.564   6.998 113.592  -3.522   4.117  99.938

                      1                      2                      3
                      A                      A                      A
 Frequencies --     47.6407                88.4854               203.8235
 Red. masses --      4.1305                 3.9473                 2.7246
 Frc consts  --      0.0055                 0.0182                 0.0667
 IR Inten    --      2.0719                 8.1965                 4.2443

                      4                      5                      6
                      A                      A                      A
 Frequencies --    215.9675               235.9292               300.3612
 Red. masses --      1.2343                 2.3104                 2.7197
 Frc consts  --      0.0339                 0.0758                 0.1446
 IR Inten    --      0.0873                 4.8634                 1.2298

                      7                      8                      9
                      A                      A                      A
 Frequencies --    332.1502               364.8576               396.2276
 Red. masses --      2.1480                 4.1043                 2.0976
 Frc consts  --      0.1396                 0.3219                 0.1940
 IR Inten    --      0.5870                 4.0337                 1.9217

                     10                     11                     12
                      A                      A                      A
 Frequencies --    610.7354               668.1465               680.1854
 Red. masses --      3.5779                 2.8684                 3.5356
 Frc consts  --      0.7863                 0.7545                 0.9638
 IR Inten    --      1.9097                 2.6440                 9.9806

                     13                     14                     15
                      A                      A                      A
 Frequencies --    815.1356               844.2045               877.0252
 Red. masses --      2.7718                 2.1273                 2.1957
 Frc consts  --      1.0851                 0.8933                 0.9950
 IR Inten    --     15.1706                10.9140                23.0006

                     16                     17                     18
                      A                      A                      A
 Frequencies --    904.4177               919.4574               958.0206
 Red. masses --      2.6294                 2.1808                 1.5171
 Frc consts  --      1.2672                 1.0862                 0.8204
 IR Inten    --     12.2025                 6.7245                 6.0878

                     19                     20                     21
                      A                      A                      A
 Frequencies --    983.1723              1001.6538              1020.9754
 Red. masses --      1.7743                 2.7729                 3.2433
 Frc consts  --      1.0105                 1.6392                 1.9919
 IR Inten    --     13.5792                12.1399                74.1169

                     22                     23                     24
                      A                      A                      A
 Frequencies --   1038.8659              1082.8213              1116.4541
 Red. masses --      2.2355                 2.1699                 1.9685
 Frc consts  --      1.4215                 1.4990                 1.4456
 IR Inten    --     12.2122                45.2086                 1.7522

                     25                     26                     27
                      A                      A                      A
 Frequencies --   1147.2512              1158.5976              1170.3478
 Red. masses --      1.3793                 1.3289                 1.8620
 Frc consts  --      1.0696                 1.0510                 1.5027
 IR Inten    --     11.5625                13.0704                 5.9132

                     28                     29                     30
                      A                      A                      A
 Frequencies --   1215.8594              1237.6676              1259.0643
 Red. masses --      1.7943                 1.7130                 2.0358
 Frc consts  --      1.5629                 1.5461                 1.9015
 IR Inten    --      1.8626                 1.0825                 0.9694

                     31                     32                     33
                      A                      A                      A
 Frequencies --   1287.2445              1311.4861              1341.5698
 Red. masses --      1.3151                 1.6969                 1.7000
 Frc consts  --      1.2839                 1.7196                 1.8027
 IR Inten    --      7.5216                 9.1597                22.3691

                     34                     35                     36
                      A                      A                      A
 Frequencies --   1377.9011              1414.3152              1420.3624
 Red. masses --      1.8097                 1.2947                 1.1993
 Frc consts  --      2.0244                 1.5258                 1.4255
 IR Inten    --      3.1686                 2.4152                 9.6691

                     37                     38                     39
                      A                      A                      A
 Frequencies --   1478.9506              1492.1556              1494.7934
 Red. masses --      1.1090                 1.0534                 1.0516
 Frc consts  --      1.4293                 1.3818                 1.3845
 IR Inten    --      5.8400                 5.5394                 4.4163

                     40                     41                     42
                      A                      A                      A
 Frequencies --   1523.3580              1816.0009              2871.3568
 Red. masses --      1.0986                10.1390                 1.0827
 Frc consts  --      1.5021                19.7005                 5.2594
 IR Inten    --      0.4906               150.9864               129.3363

                     43                     44                     45
                      A                      A                      A
 Frequencies --   3008.2149              3024.2722              3055.7563
 Red. masses --      1.0544                 1.0366                 1.1102
 Frc consts  --      5.6217                 5.5859                 6.1079
 IR Inten    --     71.7622                27.4945                28.0839

                     46                     47                     48
                      A                      A                      A
 Frequencies --   3060.4008              3065.6676              3074.4520
 Red. masses --      1.0864                 1.0631                 1.0837
 Frc consts  --      5.9949                 5.8869                 6.0352
 IR Inten    --     62.2988                13.9875                 8.0231

                     49                     50                     51
                      A                      A                      A
 Frequencies --   3087.7910              3101.9065              3124.4636
 Red. masses --      1.0998                 1.1017                 1.1073
 Frc consts  --      6.1782                 6.2453                 6.3692
 IR Inten    --     20.3865                19.4232                10.1187

 - Thermochemistry -
 -------------------
 Temperature   298.150 Kelvin.  Pressure   1.00000 Atm.
 Atom     1 has atomic number  6 and mass  12.00000

 Molecular mass:   126.06808 amu.
 Principal axes and moments of inertia in atomic units:
                           1         2         3
     Eigenvalues --   630.618981365.237301667.17178
           X            0.99873  -0.05034  -0.00178
           Y            0.05029   0.99847  -0.02319
           Z            0.00295   0.02308   0.99973
 This molecule is an asymmetric top.
 Rotational symmetry number  1.
 Warning -- assumption of classical behavior for rotation
           may cause significant error
 Rotational temperatures (Kelvin)      0.13735     0.06344     0.05195
 Rotational constants (GHZ):           2.86186     1.32192     1.08252
 Zero-point vibrational energy     414673.1 (Joules/Mol)
                                   99.10924 (Kcal/Mol)
 Warning -- explicit consideration of  10 degrees of freedom as
           vibrations may cause significant error
 Vibrational temperatures:     68.54   127.31   293.26   310.73   339.45
          (Kelvin)            432.15   477.89   524.95   570.08   878.71
                              961.31   978.63  1172.80  1214.62  1261.84
                             1301.25  1322.89  1378.38  1414.56  1441.15
                             1468.95  1494.69  1557.94  1606.33  1650.64
                             1666.96  1683.87  1749.35  1780.73  1811.51
                             1852.06  1886.93  1930.22  1982.49  2034.88
                             2043.58  2127.88  2146.88  2150.67  2191.77
                             2612.82  4131.24  4328.14  4351.25  4396.55
                             4403.23  4410.81  4423.45  4442.64  4462.95
                             4495.40

 Zero-point correction=                           0.157941 (Hartree/Particle)
 Thermal correction to Energy=                    0.166543
 Thermal correction to Enthalpy=                  0.167488
 Thermal correction to Gibbs Free Energy=         0.124079
 Sum of electronic and zero-point Energies=           -423.005075
 Sum of electronic and thermal Energies=              -422.996472
 Sum of electronic and thermal Enthalpies=            -422.995528
 Sum of electronic and thermal Free Energies=         -423.038937

                     E (Thermal)             CV                S
                      KCal/Mol        Cal/Mol-Kelvin    Cal/Mol-Kelvin
 Total                  104.508             31.880             91.362
 Electronic               0.000              0.000              0.000
 Translational            0.889              2.981             40.409
 Rotational               0.889              2.981             28.753
 Vibrational            102.730             25.919             22.200
 Vibration     1          0.595              1.978              4.913
 Vibration     2          0.601              1.957              3.693
 Vibration     3          0.639              1.834              2.098
 Vibration     4          0.645              1.817              1.993
 Vibration     5          0.655              1.786              1.833
 Vibration     6          0.693              1.673              1.415
 Vibration     7          0.714              1.611              1.250
 Vibration     8          0.738              1.545              1.101
 Vibration     9          0.763              1.478              0.977
 Vibration    10          0.970              1.009              0.432

 Optimization completed.
    -- Stationary point found.
 Normal termination of Gaussian 09 at Mon Jan 27 19:47:03 2020.
