 Gaussian 09, Revision D.01,
 Gaussian 09:  ES64L-G09RevD.01 24-Apr-2013

 -----------------------------
 # b3lyp 6-31G(2df,p) opt Freq
 -----------------------------

 -----
 titel
 -----
 Symbolic Z-matrix:
 Charge =  0 Multiplicity = 1

 SCF Done:  E(RB3LYP) =  -423.154984864     A.U. after   12 cycles
 Optimization completed.
    -- Stationary point found.
 Normal termination of Gaussian 09 at Mon Jan 27 17:13:58 2020.

 ----------------------------------------------------------------------
 #N Geom=AllCheck Guess=TCheck SCRF=Check GenChk RB3LYP/6-31G(2df,p) Fr
 eq
 ----------------------------------------------------------------------

 Structure from the checkpoint file:  "/scratch/puck/g09_1bfa3083-0716-4bce-8d19-1e30ff741cd7/Gau-86055.chk"
 -----
 titel
 -----
 Charge =  0 Multiplicity = 1

                         Standard orientation:
 ---------------------------------------------------------------------
 Center     Atomic      Atomic             Coordinates (Angstroms)
 Number     Number       Type             X           Y           Z
 ---------------------------------------------------------------------
      1          8           0       -1.969316    1.136779   -0.273593
      2          6           0       -0.729366    0.681457    0.172188
      3          6           0       -0.693034   -0.214876    1.397499
      4          6           0       -0.353477   -0.767638    0.024279
      5          8           0       -1.283822   -1.587623   -0.624417
      6          6           0        1.092794   -0.853720   -0.434736
      7          6           0        2.197011   -0.363867    0.468861
      8          6           0        1.614251    0.566967   -0.564439
      9          6           0        0.487401    1.538790   -0.183795
     10          1           0       -2.379331    0.391509   -0.733610
     11          1           0        0.070632   -0.107981    2.159738
     12          1           0       -1.674815   -0.482896    1.776480
     13          1           0       -1.421651   -2.380714   -0.096492
     14          1           0        1.304891   -1.617763   -1.173312
     15          1           0        1.997615   -0.197443    1.521735
     16          1           0        3.195130   -0.744064    0.276276
     17          1           0        2.252357    0.850470   -1.393985
     18          1           0        0.773739    2.226613    0.619278
     19          1           0        0.213053    2.146349   -1.051165
 ---------------------------------------------------------------------

 SCF Done:  E(RB3LYP) =  -423.154984864     A.U. after    1 cycles

 The electronic state is 1-A.
 Alpha  occ. eigenvalues --  -19.15722 -19.13173 -10.23664 -10.22907 -10.18926
 Alpha  occ. eigenvalues --  -10.18820 -10.18477 -10.18055 -10.18041  -1.04621
 Alpha  occ. eigenvalues --   -1.01339  -0.88498  -0.81203  -0.71846  -0.64588
 Alpha  occ. eigenvalues --   -0.58590  -0.57052  -0.55759  -0.53490  -0.48556
 Alpha  occ. eigenvalues --   -0.47006  -0.45496  -0.43033  -0.41867  -0.39265
 Alpha  occ. eigenvalues --   -0.37685  -0.36872  -0.34593  -0.33903  -0.31105
 Alpha  occ. eigenvalues --   -0.30349  -0.27420  -0.25097  -0.22931
 Alpha virt. eigenvalues --    0.06392   0.08536   0.09466   0.11791   0.12358
 Alpha virt. eigenvalues --    0.13385   0.14935   0.17069   0.17335   0.17615
 Alpha virt. eigenvalues --    0.18998   0.19624   0.20616   0.22900   0.23403

 Mulliken charges:
               1
     1  O   -0.481762
     2  C    0.400792
     3  C   -0.425054
     4  C    0.300986
     5  O   -0.478894
     6  C   -0.095332
     7  C   -0.304706
     8  C   -0.030245
     9  C   -0.301543
    10  H    0.288380
    11  H    0.111480
    12  H    0.109425
    13  H    0.290310
    14  H    0.087633
    15  H    0.111210
    16  H    0.109199
    17  H    0.087457
    18  H    0.104623
    19  H    0.116042
 Sum of Mulliken charges =   0.00000

 Dipole moment (field-independent basis, Debye):
    X=              0.9121    Y=             -1.8905    Z=              0.5246  Tot=              2.1636
 Quadrupole moment (field-independent basis, Debye-Ang):
   XX=            -52.6395   YY=            -51.7180   ZZ=            -52.5720
   XY=              4.4670   XZ=             -1.1588   YZ=             -1.5064

  Exact polarizability:  80.221   1.071  72.927  -0.254  -1.618  67.424
 Approx polarizability: 108.580   1.372 110.260   3.019  -1.368 104.660

                      1                      2                      3
                      A                      A                      A
 Frequencies --    170.7695               207.6309               238.5419
 Red. masses --      3.3477                 4.0922                 3.1228
 Frc consts  --      0.0575                 0.1039                 0.1047
 IR Inten    --      2.8101                 2.1551                 1.9511

                      4                      5                      6
                      A                      A                      A
 Frequencies --    267.3579               312.2046               374.2758
 Red. masses --      1.2693                 1.4326                 2.0031
 Frc consts  --      0.0535                 0.0823                 0.1653
 IR Inten    --     24.7830                61.5692                54.9760

                      7                      8                      9
                      A                      A                      A
 Frequencies --    399.0134               422.3161               466.3346
 Red. masses --      2.0743                 3.1604                 2.3653
 Frc consts  --      0.1946                 0.3321                 0.3031
 IR Inten    --      3.1370                 1.8359                 8.7010

                     10                     11                     12
                      A                      A                      A
 Frequencies --    535.7097               565.1236               645.7858
 Red. masses --      3.7504                 2.8408                 3.9204
 Frc consts  --      0.6341                 0.5345                 0.9633
 IR Inten    --      1.6441                 7.9426                 1.4319

                     13                     14                     15
                      A                      A                      A
 Frequencies --    727.9884               758.4420               800.4581
 Red. masses --      3.2803                 3.2768                 1.5808
 Frc consts  --      1.0243                 1.1106                 0.5968
 IR Inten    --     21.3749                 2.5299                13.8643

                     16                     17                     18
                      A                      A                      A
 Frequencies --    813.5596               862.8571               898.1566
 Red. masses --      2.1388                 2.5194                 2.0467
 Frc consts  --      0.8341                 1.1052                 0.9727
 IR Inten    --      3.9142                 7.0866                 4.8017

                     19                     20                     21
                      A                      A                      A
 Frequencies --    908.5230               940.1304               983.7826
 Red. masses --      1.5903                 1.8215                 1.7350
 Frc consts  --      0.7734                 0.9485                 0.9894
 IR Inten    --     10.9494                 8.0306                 2.9680

                     22                     23                     24
                      A                      A                      A
 Frequencies --    997.3769              1031.5382              1044.6622
 Red. masses --      2.3914                 1.3501                 1.7314
 Frc consts  --      1.4016                 0.8464                 1.1133
 IR Inten    --      7.1970                 7.9810                 0.5523

                     25                     26                     27
                      A                      A                      A
 Frequencies --   1067.6641              1078.9657              1103.6774
 Red. masses --      1.5018                 1.4952                 1.2047
 Frc consts  --      1.0086                 1.0255                 0.8646
 IR Inten    --      2.1890                 9.8116                 0.9111

                     28                     29                     30
                      A                      A                      A
 Frequencies --   1155.7733              1182.3933              1198.5642
 Red. masses --      2.4745                 1.9766                 1.9569
 Frc consts  --      1.9476                 1.6282                 1.6563
 IR Inten    --      8.5872                98.4693                37.2997

                     31                     32                     33
                      A                      A                      A
 Frequencies --   1215.3989              1227.1955              1282.5620
 Red. masses --      1.6352                 1.6432                 1.5538
 Frc consts  --      1.4232                 1.4581                 1.5059
 IR Inten    --     29.0433                47.8331                43.2139

                     34                     35                     36
                      A                      A                      A
 Frequencies --   1307.0836              1350.3680              1365.5785
 Red. masses --      1.7428                 1.5837                 3.3815
 Frc consts  --      1.7543                 1.7015                 3.7153
 IR Inten    --     13.0964                21.1146                13.1774

                     37                     38                     39
                      A                      A                      A
 Frequencies --   1398.0724              1401.4951              1476.7450
 Red. masses --      1.6668                 1.6845                 1.5223
 Frc consts  --      1.9196                 1.9494                 1.9560
 IR Inten    --      4.9622                38.3802                10.1077

                     40                     41                     42
                      A                      A                      A
 Frequencies --   1487.5884              1505.0182              3046.4852
 Red. masses --      1.1668                 1.2004                 1.0620
 Frc consts  --      1.5213                 1.6019                 5.8075
 IR Inten    --      1.2256                11.0974                33.7130

                     43                     44                     45
                      A                      A                      A
 Frequencies --   3092.5218              3123.9686              3132.5820
 Red. masses --      1.1016                 1.0542                 1.0547
 Frc consts  --      6.2073                 6.0613                 6.0977
 IR Inten    --     12.5521                 4.7678                21.0465

                     46                     47                     48
                      A                      A                      A
 Frequencies --   3165.8935              3181.3152              3208.3558
 Red. masses --      1.0898                 1.0931                 1.1146
 Frc consts  --      6.4354                 6.5180                 6.7600
 IR Inten    --     14.9575                 7.8597                16.3248

                     49                     50                     51
                      A                      A                      A
 Frequencies --   3217.2762              3748.5442              3808.8853
 Red. masses --      1.1148                 1.0656                 1.0666
 Frc consts  --      6.7988                 8.8221                 9.1170
 IR Inten    --      9.4053                40.2036                29.5348

 - Thermochemistry -
 -------------------
 Temperature   298.150 Kelvin.  Pressure   1.00000 Atm.
 Atom     1 has atomic number  8 and mass  15.99491

 Molecular mass:   126.06808 amu.
 Principal axes and moments of inertia in atomic units:
                           1         2         3
     Eigenvalues --   687.318401059.449521346.96763
           X            0.99970   0.02321  -0.00761
           Y           -0.02338   0.99947  -0.02258
           Z            0.00709   0.02275   0.99972
 This molecule is an asymmetric top.
 Rotational symmetry number  1.
 Warning -- assumption of classical behavior for rotation
           may cause significant error
 Rotational temperatures (Kelvin)      0.12602     0.08175     0.06430
 Rotational constants (GHZ):           2.62577     1.70347     1.33985
 Zero-point vibrational energy     418109.9 (Joules/Mol)
                                   99.93065 (Kcal/Mol)
 Warning -- explicit consideration of  11 degrees of freedom as
           vibrations may cause significant error
 Vibrational temperatures:    245.70   298.73   343.21   384.67   449.19
          (Kelvin)            538.50   574.09   607.62   670.95   770.77
                              813.09   929.14  1047.41  1091.23  1151.68
                             1170.53  1241.46  1292.25  1307.16  1352.64
                             1415.44  1435.00  1484.15  1503.03  1536.13
                             1552.39  1587.94  1662.90  1701.20  1724.46
                             1748.69  1765.66  1845.32  1880.60  1942.88
                             1964.76  2011.51  2016.44  2124.70  2140.31
                             2165.38  4383.21  4449.44  4494.69  4507.08
                             4555.01  4577.20  4616.10  4628.94  5393.31
                             5480.13

 Zero-point correction=                           0.159250 (Hartree/Particle)
 Thermal correction to Energy=                    0.167247
 Thermal correction to Enthalpy=                  0.168191
 Thermal correction to Gibbs Free Energy=         0.127522
 Sum of electronic and zero-point Energies=           -422.995735
 Sum of electronic and thermal Energies=              -422.987738
 Sum of electronic and thermal Enthalpies=            -422.986794
 Sum of electronic and thermal Free Energies=         -423.027463

                     E (Thermal)             CV                S
                      KCal/Mol        Cal/Mol-Kelvin    Cal/Mol-Kelvin
 Total                  104.949             32.927             85.595
 Electronic               0.000              0.000              0.000
 Translational            0.889              2.981             40.409
 Rotational               0.889              2.981             28.374
 Vibrational            103.172             26.965             16.812
 Vibration     1          0.626              1.878              2.427
 Vibration     2          0.641              1.829              2.064
 Vibration     3          0.657              1.782              1.814
 Vibration     4          0.672              1.733              1.613
 Vibration     5          0.701              1.650              1.351
 Vibration     6          0.745              1.525              1.062
 Vibration     7          0.765              1.472              0.966
 Vibration     8          0.785              1.422              0.884
 Vibration     9          0.824              1.325              0.748
 Vibration    10          0.891              1.171              0.575
 Vibration    11          0.921              1.107              0.514

 Normal termination of Gaussian 09 at Mon Jan 27 17:56:43 2020.
