 Gaussian 09, Revision D.01,
 Gaussian 09:  ES64L-G09RevD.01 24-Apr-2013

 -----------------------------
 # b3lyp 6-31G(2df,p) opt Freq
 -----------------------------

 -----
 titel
 -----
 Symbolic Z-matrix:
 Charge =  0 Multiplicity = 1

 SCF Done:  E(RB3LYP) =  -423.159756105     A.U. after   15 cycles
 Optimization completed.
    -- Stationary point found.
 Normal termination of Gaussian 09 at Tue Jan 28 12:09:56 2020.

 ----------------------------------------------------------------------
 #N Geom=AllCheck Guess=TCheck SCRF=Check GenChk RB3LYP/6-31G(2df,p) Fr
 eq
 ----------------------------------------------------------------------

 Structure from the checkpoint file:  "/scratch/puck/g09_ea84c94f-fd6a-4a05-964f-fd63e23ea4c7/Gau-92497.chk"
 -----
 titel
 -----
 Charge =  0 Multiplicity = 1

                         Standard orientation:
 ---------------------------------------------------------------------
 Center     Atomic      Atomic             Coordinates (Angstroms)
 Number     Number       Type             X           Y           Z
 ---------------------------------------------------------------------
      1          6           0        3.986393   -0.863587    0.120774
      2          6           0        2.601988   -0.454052   -0.066241
      3          6           0        1.456991   -0.122583   -0.240181
      4          6           0        0.073178    0.311919   -0.398731
      5          6           0       -0.931498   -0.763909    0.096014
      6          6           0       -2.385199   -0.439838   -0.260916
      7          8           0       -3.274817   -1.465814    0.145721
      8          6           0       -0.128695    1.605394    0.396865
      9          8           0       -0.633054    2.604204   -0.040114
     10          1           0        4.373875   -0.519458    1.085876
     11          1           0        4.085267   -1.954226    0.093603
     12          1           0        4.631550   -0.450593   -0.662167
     13          1           0       -0.139060    0.548619   -1.448454
     14          1           0       -0.659890   -1.727681   -0.344034
     15          1           0       -0.827345   -0.875378    1.184142
     16          1           0       -2.678943    0.536746    0.152218
     17          1           0       -2.491361   -0.368141   -1.348942
     18          1           0       -3.298381   -1.475010    1.107805
     19          1           0        0.228321    1.537937    1.449592
 ---------------------------------------------------------------------

 SCF Done:  E(RB3LYP) =  -423.159756105     A.U. after    1 cycles

 The electronic state is 1-A.
 Alpha  occ. eigenvalues --  -19.14776 -19.13975 -10.27855 -10.23312 -10.22364
 Alpha  occ. eigenvalues --  -10.21091 -10.20022 -10.18598 -10.17961  -1.05545
 Alpha  occ. eigenvalues --   -1.02096  -0.82804  -0.77757  -0.72791  -0.68178
 Alpha  occ. eigenvalues --   -0.62601  -0.58865  -0.52492  -0.49888  -0.47184
 Alpha  occ. eigenvalues --   -0.46419  -0.44931  -0.43799  -0.43354  -0.43073
 Alpha  occ. eigenvalues --   -0.41947  -0.39060  -0.37829  -0.36868  -0.32999
 Alpha  occ. eigenvalues --   -0.28390  -0.27164  -0.25837  -0.24598
 Alpha virt. eigenvalues --   -0.03043   0.04699   0.05836   0.07219   0.10435
 Alpha virt. eigenvalues --    0.10906   0.11366   0.14756   0.14882   0.16055
 Alpha virt. eigenvalues --    0.16587   0.17776   0.18321   0.19580   0.21500

 Mulliken charges:
               1
     1  C   -0.499187
     2  C    0.117859
     3  C    0.018458
     4  C   -0.256997
     5  C   -0.216392
     6  C   -0.074310
     7  O   -0.416711
     8  C    0.172579
     9  O   -0.247015
    10  H    0.151809
    11  H    0.152007
    12  H    0.153576
    13  H    0.121501
    14  H    0.127662
    15  H    0.099557
    16  H    0.106578
    17  H    0.120084
    18  H    0.282918
    19  H    0.086024
 Sum of Mulliken charges =   0.00000

 Dipole moment (field-independent basis, Debye):
    X=              2.0502    Y=             -1.6935    Z=              1.5592  Tot=              3.0826
 Quadrupole moment (field-independent basis, Debye-Ang):
   XX=            -49.8721   YY=            -62.5391   ZZ=            -49.6300
   XY=             -2.2903   XZ=             -3.1058   YZ=             -0.8020

  Exact polarizability: 110.000 -10.016  74.213   3.408  -1.723  63.474
 Approx polarizability: 146.911 -19.501 110.295   9.069  -5.999  97.219

                      1                      2                      3
                      A                      A                      A
 Frequencies --      9.4607                45.6227                70.0900
 Red. masses --      1.0194                 4.0195                 2.9548
 Frc consts  --      0.0001                 0.0049                 0.0086
 IR Inten    --      0.0088                 4.8415                 2.4787

                      4                      5                      6
                      A                      A                      A
 Frequencies --     75.3287                92.0808               140.4548
 Red. masses --      3.3108                 3.2146                 3.0325
 Frc consts  --      0.0111                 0.0161                 0.0352
 IR Inten    --      3.0418                 1.7567                 1.7037

                      7                      8                      9
                      A                      A                      A
 Frequencies --    217.2732               281.1906               297.5129
 Red. masses --      3.4081                 2.8428                 1.1704
 Frc consts  --      0.0948                 0.1324                 0.0610
 IR Inten    --     10.2777                 1.3358               105.2011

                     10                     11                     12
                      A                      A                      A
 Frequencies --    312.7921               319.7582               380.8411
 Red. masses --      3.1331                 3.3499                 5.5640
 Frc consts  --      0.1806                 0.2018                 0.4755
 IR Inten    --      8.4171                 7.0701                 9.0292

                     13                     14                     15
                      A                      A                      A
 Frequencies --    452.6188               501.0458               552.7013
 Red. masses --      5.1751                 6.9781                 3.8680
 Frc consts  --      0.6246                 1.0322                 0.6962
 IR Inten    --      9.9121                 2.6022                 6.0230

                     16                     17                     18
                      A                      A                      A
 Frequencies --    769.6431               804.6145               927.5921
 Red. masses --      1.1761                 3.6602                 1.7601
 Frc consts  --      0.4105                 1.3961                 0.8923
 IR Inten    --     10.4415                 0.6715                17.3590

                     19                     20                     21
                      A                      A                      A
 Frequencies --    973.7864              1033.8870              1051.1776
 Red. masses --      2.8743                 3.2577                 1.4985
 Frc consts  --      1.6059                 2.0517                 0.9756
 IR Inten    --      5.7507                27.7813                 1.6667

                     22                     23                     24
                      A                      A                      A
 Frequencies --   1053.4635              1062.4561              1076.5226
 Red. masses --      1.4177                 2.4981                 3.3135
 Frc consts  --      0.9270                 1.6615                 2.2625
 IR Inten    --      0.5303                13.1235               114.8366

                     25                     26                     27
                      A                      A                      A
 Frequencies --   1103.8676              1163.4224              1176.9061
 Red. masses --      2.2217                 1.4051                 2.3895
 Frc consts  --      1.5950                 1.1205                 1.9500
 IR Inten    --      2.1120                 4.6054                 1.9026

                     28                     29                     30
                      A                      A                      A
 Frequencies --   1263.7664              1280.1351              1316.8355
 Red. masses --      1.3561                 1.3413                 1.2362
 Frc consts  --      1.2761                 1.2951                 1.2630
 IR Inten    --      5.1959                 2.5292                 9.5593

                     31                     32                     33
                      A                      A                      A
 Frequencies --   1343.9562              1400.9364              1414.3617
 Red. masses --      1.3541                 1.2401                 1.2219
 Frc consts  --      1.4410                 1.4339                 1.4401
 IR Inten    --      3.1627                16.8865                 7.7637

                     34                     35                     36
                      A                      A                      A
 Frequencies --   1415.9584              1424.6914              1476.9391
 Red. masses --      1.2140                 1.2755                 1.0393
 Frc consts  --      1.4340                 1.5254                 1.3358
 IR Inten    --      4.2295                35.4191                 5.6792

                     37                     38                     39
                      A                      A                      A
 Frequencies --   1477.8339              1486.1628              1511.6964
 Red. masses --      1.0396                 1.0801                 1.0920
 Frc consts  --      1.3377                 1.4056                 1.4703
 IR Inten    --      5.9901                 1.6618                 0.7265

                     40                     41                     42
                      A                      A                      A
 Frequencies --   1835.6683              2367.1623              2878.4213
 Red. masses --     10.3653                11.8523                 1.0836
 Frc consts  --     20.5789                39.1300                 5.2894
 IR Inten    --    190.9732                 3.8668                77.7424

                     43                     44                     45
                      A                      A                      A
 Frequencies --   2997.5215              3019.0132              3029.5465
 Red. masses --      1.0678                 1.0683                 1.0348
 Frc consts  --      5.6529                 5.7370                 5.5956
 IR Inten    --     38.9695                13.4071                27.9927

                     46                     47                     48
                      A                      A                      A
 Frequencies --   3041.7645              3069.2961              3091.1873
 Red. masses --      1.0819                 1.0910                 1.1001
 Frc consts  --      5.8978                 6.0553                 6.1937
 IR Inten    --     15.6308                19.9697                 8.2205

                     49                     50                     51
                      A                      A                      A
 Frequencies --   3092.2769              3095.9571              3817.8015
 Red. masses --      1.1003                 1.0986                 1.0662
 Frc consts  --      6.1991                 6.2040                 9.1565
 IR Inten    --      8.4492                25.6751                19.4976

 - Thermochemistry -
 -------------------
 Temperature   298.150 Kelvin.  Pressure   1.00000 Atm.
 Atom     1 has atomic number  6 and mass  12.00000

 Molecular mass:   126.06808 amu.
 Principal axes and moments of inertia in atomic units:
                           1         2         3
     Eigenvalues --   805.327032336.099833023.63837
           X            0.99990  -0.01379   0.00190
           Y            0.01380   0.99990  -0.00295
           Z           -0.00186   0.00297   0.99999
 This molecule is an asymmetric top.
 Rotational symmetry number  1.
 Warning -- assumption of classical behavior for rotation
           may cause significant error
 Rotational temperatures (Kelvin)      0.10755     0.03708     0.02865
 Rotational constants (GHZ):           2.24100     0.77254     0.59688
 Zero-point vibrational energy     407298.5 (Joules/Mol)
                                   97.34669 (Kcal/Mol)
 Warning -- explicit consideration of  15 degrees of freedom as
           vibrations may cause significant error
 Vibrational temperatures:     13.61    65.64   100.84   108.38   132.48
          (Kelvin)            202.08   312.61   404.57   428.05   450.04
                              460.06   547.94   651.22   720.89   795.21
                             1107.34  1157.66  1334.60  1401.06  1487.53
                             1512.41  1515.70  1528.64  1548.87  1588.22
                             1673.90  1693.30  1818.28  1841.83  1894.63
                             1933.65  2015.63  2034.95  2037.25  2049.81
                             2124.98  2126.27  2138.25  2174.99  2641.11
                             3405.81  4141.40  4312.76  4343.68  4358.84
                             4376.42  4416.03  4447.52  4449.09  4454.39
                             5492.96

 Zero-point correction=                           0.155132 (Hartree/Particle)
 Thermal correction to Energy=                    0.166481
 Thermal correction to Enthalpy=                  0.167425
 Thermal correction to Gibbs Free Energy=         0.115036
 Sum of electronic and zero-point Energies=           -423.004624
 Sum of electronic and thermal Energies=              -422.993275
 Sum of electronic and thermal Enthalpies=            -422.992331
 Sum of electronic and thermal Free Energies=         -423.044720

                     E (Thermal)             CV                S
                      KCal/Mol        Cal/Mol-Kelvin    Cal/Mol-Kelvin
 Total                  104.469             37.344            110.263
 Electronic               0.000              0.000              0.000
 Translational            0.889              2.981             40.409
 Rotational               0.889              2.981             30.121
 Vibrational            102.691             31.383             39.734
 Vibration     1          0.593              1.987              8.121
 Vibration     2          0.595              1.979              4.999
 Vibration     3          0.598              1.968              4.151
 Vibration     4          0.599              1.965              4.009
 Vibration     5          0.602              1.955              3.615
 Vibration     6          0.615              1.913              2.798
 Vibration     7          0.646              1.815              1.982
 Vibration     8          0.681              1.708              1.526
 Vibration     9          0.691              1.678              1.431
 Vibration    10          0.701              1.649              1.348
 Vibration    11          0.706              1.636              1.311
 Vibration    12          0.751              1.511              1.036
 Vibration    13          0.811              1.355              0.788
 Vibration    14          0.856              1.248              0.656
 Vibration    15          0.908              1.134              0.539

 Normal termination of Gaussian 09 at Tue Jan 28 12:45:10 2020.
