 Gaussian 09, Revision D.01,
 Gaussian 09:  ES64L-G09RevD.01 24-Apr-2013

 -----------------------------
 # b3lyp 6-31G(2df,p) opt Freq
 -----------------------------

 -----
 titel
 -----
 Symbolic Z-matrix:
 Charge =  0 Multiplicity = 1

 SCF Done:  E(RB3LYP) =  -423.154232853     A.U. after   14 cycles
 Optimization completed.
    -- Stationary point found.
 Normal termination of Gaussian 09 at Mon Jan 27 13:47:00 2020.

 ----------------------------------------------------------------------
 #N Geom=AllCheck Guess=TCheck SCRF=Check GenChk RB3LYP/6-31G(2df,p) Fr
 eq
 ----------------------------------------------------------------------

 Structure from the checkpoint file:  "/scratch/puck/g09_28301f62-a11f-4b37-ae10-555a929cb402/Gau-169730.chk"
 -----
 titel
 -----
 Charge =  0 Multiplicity = 1

                         Standard orientation:
 ---------------------------------------------------------------------
 Center     Atomic      Atomic             Coordinates (Angstroms)
 Number     Number       Type             X           Y           Z
 ---------------------------------------------------------------------
      1          8           0       -3.509919   -0.575664   -0.235535
      2          6           0       -2.552130    0.056515    0.131654
      3          6           0       -1.179515   -0.535753    0.378504
      4          6           0       -0.101240    0.175512   -0.439444
      5          8           0        0.010328    1.577735   -0.089137
      6          6           0        1.409066    1.444265    0.253680
      7          6           0        1.364570   -0.047358   -0.059693
      8          6           0        2.393071   -0.897809   -0.733766
      9          6           0        1.985468   -1.181821    0.695417
     10          1           0       -2.617174    1.150142    0.315969
     11          1           0       -0.939466   -0.416737    1.443287
     12          1           0       -1.210965   -1.603172    0.138062
     13          1           0       -0.306568    0.060235   -1.513390
     14          1           0        2.048493    2.050280   -0.401184
     15          1           0        1.602303    1.717844    1.298851
     16          1           0        2.060515   -1.585886   -1.504864
     17          1           0        3.372831   -0.466784   -0.914198
     18          1           0        1.384108   -2.064271    0.889071
     19          1           0        2.686911   -0.939522    1.487678
 ---------------------------------------------------------------------

 SCF Done:  E(RB3LYP) =  -423.154232853     A.U. after    1 cycles

 The electronic state is 1-A.
 Alpha  occ. eigenvalues --  -19.14244 -19.13676 -10.26849 -10.24917 -10.23856
 Alpha  occ. eigenvalues --  -10.21072 -10.19990 -10.19904 -10.19565  -1.04802
 Alpha  occ. eigenvalues --   -1.04237  -0.86860  -0.78155  -0.69388  -0.66722
 Alpha  occ. eigenvalues --   -0.61716  -0.57551  -0.54309  -0.50877  -0.50167
 Alpha  occ. eigenvalues --   -0.49299  -0.45665  -0.44493  -0.42544  -0.40979
 Alpha  occ. eigenvalues --   -0.39590  -0.37749  -0.37062  -0.36111  -0.33101
 Alpha  occ. eigenvalues --   -0.30752  -0.29074  -0.25793  -0.24409
 Alpha virt. eigenvalues --   -0.02193   0.06599   0.09170   0.09559   0.10060
 Alpha virt. eigenvalues --    0.11919   0.12416   0.13941   0.14486   0.15775
 Alpha virt. eigenvalues --    0.17149   0.18213   0.19124   0.21683   0.22013

 Mulliken charges:
               1
     1  O   -0.240526
     2  C    0.152249
     3  C   -0.293521
     4  C    0.056048
     5  O   -0.300379
     6  C   -0.135743
     7  C    0.291641
     8  C   -0.323987
     9  C   -0.324248
    10  H    0.099315
    11  H    0.120667
    12  H    0.117349
    13  H    0.088814
    14  H    0.106418
    15  H    0.105803
    16  H    0.120623
    17  H    0.118724
    18  H    0.121694
    19  H    0.119059
 Sum of Mulliken charges =   0.00000

 Dipole moment (field-independent basis, Debye):
    X=              3.6404    Y=             -0.3536    Z=              0.7579  Tot=              3.7352
 Quadrupole moment (field-independent basis, Debye-Ang):
   XX=            -62.5126   YY=            -55.1857   ZZ=            -51.3036
   XY=             -1.3943   XZ=             -1.7709   YZ=              0.4905

  Exact polarizability:  91.551   2.167  74.193   1.967   2.112  64.740
 Approx polarizability: 119.269   6.281 109.348   5.521   4.182  99.343

                      1                      2                      3
                      A                      A                      A
 Frequencies --     53.2602                68.7559                84.3271
 Red. masses --      4.0503                 3.9492                 3.0286
 Frc consts  --      0.0068                 0.0110                 0.0127
 IR Inten    --      3.7864                 2.4684                 4.1980

                      4                      5                      6
                      A                      A                      A
 Frequencies --    143.0534               236.6597               252.2350
 Red. masses --      2.8675                 3.2943                 2.1428
 Frc consts  --      0.0346                 0.1087                 0.0803
 IR Inten    --      1.6349                 2.7885                 0.9208

                      7                      8                      9
                      A                      A                      A
 Frequencies --    318.1775               427.6485               432.3341
 Red. masses --      2.3425                 2.9925                 4.0172
 Frc consts  --      0.1397                 0.3225                 0.4424
 IR Inten    --      0.3634                 4.0456                 6.3573

                     10                     11                     12
                      A                      A                      A
 Frequencies --    531.6537               566.9869               774.3666
 Red. masses --      1.9347                 4.2594                 1.0454
 Frc consts  --      0.3222                 0.8068                 0.3693
 IR Inten    --     15.4519                 6.3352                 0.0418

                     13                     14                     15
                      A                      A                      A
 Frequencies --    809.3018               835.3978               866.7804
 Red. masses --      2.3492                 2.0510                 1.8262
 Frc consts  --      0.9065                 0.8433                 0.8084
 IR Inten    --      2.6275                 5.1260                 4.7844

                     16                     17                     18
                      A                      A                      A
 Frequencies --    888.0974               921.0325               941.4099
 Red. masses --      2.5093                 1.8901                 1.8173
 Frc consts  --      1.1661                 0.9447                 0.9489
 IR Inten    --      6.2768                 3.4309                 3.8388

                     19                     20                     21
                      A                      A                      A
 Frequencies --    977.2866              1018.3050              1046.7586
 Red. masses --      3.0974                 5.8736                 1.5239
 Frc consts  --      1.7430                 3.5885                 0.9838
 IR Inten    --     11.5150               119.7817                18.3399

                     22                     23                     24
                      A                      A                      A
 Frequencies --   1060.3960              1079.3986              1088.2391
 Red. masses --      1.8028                 1.5147                 2.8948
 Frc consts  --      1.1944                 1.0398                 2.0198
 IR Inten    --      0.1334                 1.4999                20.4737

                     25                     26                     27
                      A                      A                      A
 Frequencies --   1088.6277              1122.3049              1152.1957
 Red. masses --      2.2352                 2.3194                 1.1356
 Frc consts  --      1.5607                 1.7213                 0.8882
 IR Inten    --     33.8190                 4.2142                 0.4196

                     28                     29                     30
                      A                      A                      A
 Frequencies --   1187.8494              1218.4867              1247.8445
 Red. masses --      1.2892                 1.3108                 1.5833
 Frc consts  --      1.0717                 1.1467                 1.4525
 IR Inten    --      0.4132                 6.9518                 1.4911

                     31                     32                     33
                      A                      A                      A
 Frequencies --   1260.0113              1301.9815              1329.8530
 Red. masses --      1.8646                 1.4717                 1.5192
 Frc consts  --      1.7442                 1.4699                 1.5830
 IR Inten    --      0.4328                 0.7307                11.2655

                     34                     35                     36
                      A                      A                      A
 Frequencies --   1377.5823              1414.5864              1421.8789
 Red. masses --      1.3334                 2.0103                 1.2410
 Frc consts  --      1.4909                 2.3701                 1.4782
 IR Inten    --     30.6849                 6.0915                10.6791

                     37                     38                     39
                      A                      A                      A
 Frequencies --   1449.8991              1463.6650              1508.7859
 Red. masses --      1.1002                 1.0871                 1.6963
 Frc consts  --      1.3627                 1.3721                 2.2752
 IR Inten    --      4.2095                 1.7681                 0.3974

                     40                     41                     42
                      A                      A                      A
 Frequencies --   1526.0174              1829.1049              2909.7698
 Red. masses --      1.1017                 9.7949                 1.0837
 Frc consts  --      1.5115                19.3075                 5.4058
 IR Inten    --      0.8336               192.3578                75.1355

                     43                     44                     45
                      A                      A                      A
 Frequencies --   2997.8018              3007.7523              3028.2745
 Red. masses --      1.0788                 1.0597                 1.0609
 Frc consts  --      5.7120                 5.6481                 5.7322
 IR Inten    --     61.3766                50.9375                 8.8380

                     46                     47                     48
                      A                      A                      A
 Frequencies --   3048.5742              3097.2503              3122.9418
 Red. masses --      1.1110                 1.1011                 1.0507
 Frc consts  --      6.0838                 6.2235                 6.0376
 IR Inten    --     40.7282                12.9569                16.6456

                     49                     50                     51
                      A                      A                      A
 Frequencies --   3126.5958              3200.8699              3215.4508
 Red. masses --      1.0579                 1.1178                 1.1154
 Frc consts  --      6.0934                 6.7475                 6.7945
 IR Inten    --      8.2204                 0.0284                14.0404

 - Thermochemistry -
 -------------------
 Temperature   298.150 Kelvin.  Pressure   1.00000 Atm.
 Atom     1 has atomic number  8 and mass  15.99491

 Molecular mass:   126.06808 amu.
 Principal axes and moments of inertia in atomic units:
                           1         2         3
     Eigenvalues --   537.428811877.527932194.54335
           X            0.99994  -0.01079  -0.00325
           Y            0.01081   0.99993   0.00482
           Z            0.00320  -0.00485   0.99998
 This molecule is an asymmetric top.
 Rotational symmetry number  1.
 Warning -- assumption of classical behavior for rotation
           may cause significant error
 Rotational temperatures (Kelvin)      0.16116     0.04613     0.03947
 Rotational constants (GHZ):           3.35810     0.96123     0.82238
 Zero-point vibrational energy     413177.1 (Joules/Mol)
                                   98.75170 (Kcal/Mol)
 Warning -- explicit consideration of  11 degrees of freedom as
           vibrations may cause significant error
 Vibrational temperatures:     76.63    98.92   121.33   205.82   340.50
          (Kelvin)            362.91   457.79   615.29   622.03   764.93
                              815.77  1114.14  1164.40  1201.95  1247.10
                             1277.77  1325.16  1354.48  1406.10  1465.11
                             1506.05  1525.67  1553.01  1565.73  1566.29
                             1614.74  1657.75  1709.05  1753.13  1795.37
                             1812.87  1873.26  1913.36  1982.03  2035.27
                             2045.76  2086.08  2105.88  2170.80  2195.60
                             2631.67  4186.50  4313.16  4327.48  4357.01
                             4386.21  4456.25  4493.21  4498.47  4605.33
                             4626.31

 Zero-point correction=                           0.157371 (Hartree/Particle)
 Thermal correction to Energy=                    0.166405
 Thermal correction to Enthalpy=                  0.167349
 Thermal correction to Gibbs Free Energy=         0.122302
 Sum of electronic and zero-point Energies=           -422.996862
 Sum of electronic and thermal Energies=              -422.987828
 Sum of electronic and thermal Enthalpies=            -422.986884
 Sum of electronic and thermal Free Energies=         -423.031931

                     E (Thermal)             CV                S
                      KCal/Mol        Cal/Mol-Kelvin    Cal/Mol-Kelvin
 Total                  104.421             32.424             94.810
 Electronic               0.000              0.000              0.000
 Translational            0.889              2.981             40.409
 Rotational               0.889              2.981             29.183
 Vibrational            102.643             26.462             25.218
 Vibration     1          0.596              1.976              4.693
 Vibration     2          0.598              1.969              4.189
 Vibration     3          0.601              1.960              3.788
 Vibration     4          0.616              1.910              2.763
 Vibration     5          0.656              1.785              1.828
 Vibration     6          0.664              1.759              1.715
 Vibration     7          0.705              1.639              1.319
 Vibration     8          0.789              1.410              0.866
 Vibration     9          0.793              1.400              0.851
 Vibration    10          0.887              1.180              0.584
 Vibration    11          0.923              1.103              0.510

 Optimization completed.
    -- Stationary point found.
 Normal termination of Gaussian 09 at Mon Jan 27 14:24:32 2020.
