 Gaussian 09, Revision D.01,
 Gaussian 09:  ES64L-G09RevD.01 24-Apr-2013

 -----------------------------
 # b3lyp 6-31G(2df,p) opt Freq
 -----------------------------

 -----
 titel
 -----
 Symbolic Z-matrix:
 Charge =  0 Multiplicity = 1

 SCF Done:  E(RB3LYP) =  -423.141421744     A.U. after   14 cycles
 SCF Done:  E(RB3LYP) =  -423.141421972     A.U. after    6 cycles
 SCF Done:  E(RB3LYP) =  -423.141422194     A.U. after    6 cycles
 SCF Done:  E(RB3LYP) =  -423.141422274     A.U. after    6 cycles
 SCF Done:  E(RB3LYP) =  -423.141422303     A.U. after    6 cycles
 Optimization completed.
    -- Stationary point found.
 Normal termination of Gaussian 09 at Mon Jan 27 22:24:17 2020.

 ----------------------------------------------------------------------
 #N Geom=AllCheck Guess=TCheck SCRF=Check GenChk RB3LYP/6-31G(2df,p) Fr
 eq
 ----------------------------------------------------------------------

 Structure from the checkpoint file:  "/scratch/puck/g09_35df84cc-7db1-4feb-b647-56943b839d2a/Gau-62995.chk"
 -----
 titel
 -----
 Charge =  0 Multiplicity = 1

                         Standard orientation:
 ---------------------------------------------------------------------
 Center     Atomic      Atomic             Coordinates (Angstroms)
 Number     Number       Type             X           Y           Z
 ---------------------------------------------------------------------
      1          8           0       -2.000714   -1.305357   -0.116306
      2          6           0       -0.628018   -1.066671   -0.032757
      3          6           0       -0.063100    0.099333   -0.771156
      4          6           0       -1.014769    1.312230   -0.759904
      5          6           0       -1.015885    1.287740    0.800147
      6          6           0       -0.066631    0.071822    0.778990
      7          6           0        1.386592   -0.011504    1.180282
      8          8           0        2.081880   -0.441401   -0.003004
      9          6           0        1.390867    0.034271   -1.171130
     10          1           0       -2.285618   -1.689520    0.719637
     11          1           0        0.000733   -1.957385   -0.049342
     12          1           0       -0.544006    2.208803   -1.169313
     13          1           0       -1.976001    1.156367   -1.252818
     14          1           0       -0.545232    2.169878    1.240098
     15          1           0       -1.981418    1.126058    1.285780
     16          1           0        1.740422    0.976099    1.518594
     17          1           0        1.629394   -0.746757    1.955112
     18          1           0        1.743209    1.035842   -1.465763
     19          1           0        1.634848   -0.668640   -1.974336
 ---------------------------------------------------------------------

 SCF Done:  E(RB3LYP) =  -423.141422303     A.U. after    1 cycles

 The electronic state is 1-A.
 Alpha  occ. eigenvalues --  -19.14743 -19.13448 -10.23932 -10.22923 -10.22823
 Alpha  occ. eigenvalues --  -10.19021 -10.18964 -10.18844 -10.18793  -1.03669
 Alpha  occ. eigenvalues --   -1.02427  -0.88821  -0.73723  -0.73499  -0.65149
 Alpha  occ. eigenvalues --   -0.63581  -0.57475  -0.52835  -0.51158  -0.49272
 Alpha  occ. eigenvalues --   -0.46390  -0.44864  -0.44260  -0.41244  -0.39797
 Alpha  occ. eigenvalues --   -0.39222  -0.38286  -0.35881  -0.33107  -0.30848
 Alpha  occ. eigenvalues --   -0.30509  -0.26829  -0.25815  -0.22786
 Alpha virt. eigenvalues --    0.06614   0.07987   0.09882   0.11182   0.13134
 Alpha virt. eigenvalues --    0.13384   0.13661   0.15318   0.16029   0.17660
 Alpha virt. eigenvalues --    0.18086   0.18680   0.19476   0.21662   0.22547

 Mulliken charges:
               1
     1  O   -0.430140
     2  C    0.044498
     3  C    0.176247
     4  C   -0.278471
     5  C   -0.275276
     6  C    0.130231
     7  C   -0.154712
     8  O   -0.261954
     9  C   -0.156517
    10  H    0.288140
    11  H    0.100573
    12  H    0.101841
    13  H    0.116544
    14  H    0.103577
    15  H    0.098609
    16  H    0.089973
    17  H    0.105789
    18  H    0.090344
    19  H    0.110702
 Sum of Mulliken charges =   0.00000

 Dipole moment (field-independent basis, Debye):
    X=             -0.7503    Y=              0.5461    Z=              1.1672  Tot=              1.4911
 Quadrupole moment (field-independent basis, Debye-Ang):
   XX=            -58.0322   YY=            -50.6074   ZZ=            -50.6891
   XY=              2.1572   XZ=             -3.2640   YZ=             -2.4869

  Exact polarizability:  77.101  -0.557  72.372  -1.178  -0.992  72.928
 Approx polarizability: 108.440   0.122 106.055  -0.899  -1.198 114.718

                      1                      2                      3
                      A                      A                      A
 Frequencies --    191.7902               195.5797               234.7391
 Red. masses --      1.7925                 4.6169                 3.0993
 Frc consts  --      0.0388                 0.1041                 0.1006
 IR Inten    --      0.8621                 6.0341                 1.2677

                      4                      5                      6
                      A                      A                      A
 Frequencies --    247.1243               301.8950               312.2542
 Red. masses --      2.3259                 1.2718                 2.0549
 Frc consts  --      0.0837                 0.0683                 0.1180
 IR Inten    --     18.3700                84.6627                 2.9195

                      7                      8                      9
                      A                      A                      A
 Frequencies --    370.3532               494.7352               550.5858
 Red. masses --      2.6365                 6.1028                 3.2176
 Frc consts  --      0.2131                 0.8801                 0.5747
 IR Inten    --     11.7882                 4.4127                 8.2200

                     10                     11                     12
                      A                      A                      A
 Frequencies --    656.7492               692.7064               748.7285
 Red. masses --      4.2307                 5.0712                 3.8548
 Frc consts  --      1.0751                 1.4337                 1.2732
 IR Inten    --      0.1098                14.9659                 5.7826

                     13                     14                     15
                      A                      A                      A
 Frequencies --    766.3494               795.8514               830.9820
 Red. masses --      1.2154                 4.7696                 3.6244
 Frc consts  --      0.4206                 1.7799                 1.4746
 IR Inten    --      8.0352                11.0709                 9.9549

                     16                     17                     18
                      A                      A                      A
 Frequencies --    902.1849               952.9198               955.1082
 Red. masses --      4.8532                 2.3014                 2.6335
 Frc consts  --      2.3274                 1.2313                 1.4154
 IR Inten    --     19.5720                 1.5108                 0.6864

                     19                     20                     21
                      A                      A                      A
 Frequencies --    981.9636              1019.4444              1032.4662
 Red. masses --      2.2896                 1.6809                 1.5384
 Frc consts  --      1.3008                 1.0292                 0.9662
 IR Inten    --      6.1512                 3.7629                21.5981

                     22                     23                     24
                      A                      A                      A
 Frequencies --   1050.2339              1094.8752              1150.6821
 Red. masses --      3.1906                 1.8196                 2.9584
 Frc consts  --      2.0735                 1.2852                 2.3079
 IR Inten    --     50.2474                 4.1473                65.4066

                     25                     26                     27
                      A                      A                      A
 Frequencies --   1173.1540              1206.8840              1226.2364
 Red. masses --      1.5663                 1.4792                 1.5162
 Frc consts  --      1.2701                 1.2694                 1.3433
 IR Inten    --      0.1964                 3.8103                11.6850

                     28                     29                     30
                      A                      A                      A
 Frequencies --   1231.6987              1243.5094              1259.7629
 Red. masses --      1.3693                 1.3827                 1.4364
 Frc consts  --      1.2239                 1.2597                 1.3431
 IR Inten    --     11.6553                 1.8655                11.6769

                     31                     32                     33
                      A                      A                      A
 Frequencies --   1265.9470              1296.0786              1305.9525
 Red. masses --      1.4908                 1.7097                 1.7216
 Frc consts  --      1.4077                 1.6921                 1.7299
 IR Inten    --      6.1270                 5.2803                57.8345

                     34                     35                     36
                      A                      A                      A
 Frequencies --   1314.0702              1351.9619              1389.9751
 Red. masses --      1.5886                 1.5446                 1.5186
 Frc consts  --      1.6162                 1.6634                 1.7287
 IR Inten    --      5.2669                 3.8758                14.3403

                     37                     38                     39
                      A                      A                      A
 Frequencies --   1464.0904              1467.8378              1496.0486
 Red. masses --      1.6898                 1.1039                 1.3563
 Frc consts  --      2.1341                 1.4014                 1.7885
 IR Inten    --      5.7018                 1.5757                 9.8625

                     40                     41                     42
                      A                      A                      A
 Frequencies --   1507.8112              1518.6611              2970.1781
 Red. masses --      1.0898                 1.1114                 1.0692
 Frc consts  --      1.4598                 1.5102                 5.5574
 IR Inten    --      0.2271                 4.1058                67.4267

                     43                     44                     45
                      A                      A                      A
 Frequencies --   2977.6677              3059.7373              3060.6072
 Red. masses --      1.0704                 1.0698                 1.0796
 Frc consts  --      5.5919                 5.9010                 5.9584
 IR Inten    --     74.1169                35.2714                59.4335

                     46                     47                     48
                      A                      A                      A
 Frequencies --   3068.5141              3070.6740              3103.9751
 Red. masses --      1.0924                 1.0601                 1.0870
 Frc consts  --      6.0602                 5.8893                 6.1704
 IR Inten    --     41.9772                36.1267                19.1477

                     49                     50                     51
                      A                      A                      A
 Frequencies --   3107.3475              3128.1596              3806.6131
 Red. masses --      1.1080                 1.1081                 1.0661
 Frc consts  --      6.3033                 6.3887                 9.1018
 IR Inten    --      4.6696                33.2236                25.3556

 - Thermochemistry -
 -------------------
 Temperature   298.150 Kelvin.  Pressure   1.00000 Atm.
 Atom     1 has atomic number  8 and mass  15.99491

 Molecular mass:   126.06808 amu.
 Principal axes and moments of inertia in atomic units:
                           1         2         3
     Eigenvalues --   671.777071127.832871218.73343
           X            0.99983  -0.01498  -0.01056
           Y            0.01450   0.99890  -0.04461
           Z            0.01121   0.04445   0.99895
 This molecule is an asymmetric top.
 Rotational symmetry number  1.
 Warning -- assumption of classical behavior for rotation
           may cause significant error
 Rotational temperatures (Kelvin)      0.12893     0.07680     0.07107
 Rotational constants (GHZ):           2.68652     1.60018     1.48083
 Zero-point vibrational energy     422302.4 (Joules/Mol)
                                  100.93271 (Kcal/Mol)
 Warning -- explicit consideration of   9 degrees of freedom as
           vibrations may cause significant error
 Vibrational temperatures:    275.94   281.40   337.74   355.56   434.36
          (Kelvin)            449.26   532.86   711.81   792.17   944.91
                              996.65  1077.25  1102.60  1145.05  1195.60
                             1298.04  1371.04  1374.19  1412.82  1466.75
                             1485.49  1511.05  1575.28  1655.57  1687.90
                             1736.43  1764.28  1772.14  1789.13  1812.52
                             1821.41  1864.77  1878.97  1890.65  1945.17
                             1999.86  2106.50  2111.89  2152.48  2169.40
                             2185.01  4273.42  4284.19  4402.27  4403.53
                             4414.90  4418.01  4465.92  4470.77  4500.72
                             5476.86

 Zero-point correction=                           0.160847 (Hartree/Particle)
 Thermal correction to Energy=                    0.168482
 Thermal correction to Enthalpy=                  0.169427
 Thermal correction to Gibbs Free Energy=         0.129242
 Sum of electronic and zero-point Energies=           -422.980576
 Sum of electronic and thermal Energies=              -422.972940
 Sum of electronic and thermal Enthalpies=            -422.971996
 Sum of electronic and thermal Free Energies=         -423.012180

                     E (Thermal)             CV                S
                      KCal/Mol        Cal/Mol-Kelvin    Cal/Mol-Kelvin
 Total                  105.724             30.603             84.575
 Electronic               0.000              0.000              0.000
 Translational            0.889              2.981             40.409
 Rotational               0.889              2.981             28.314
 Vibrational            103.947             24.642             15.852
 Vibration     1          0.634              1.851              2.210
 Vibration     2          0.636              1.846              2.174
 Vibration     3          0.655              1.788              1.842
 Vibration     4          0.661              1.768              1.751
 Vibration     5          0.694              1.670              1.406
 Vibration     6          0.701              1.650              1.350
 Vibration     7          0.742              1.533              1.078
 Vibration     8          0.850              1.262              0.671
 Vibration     9          0.906              1.138              0.543

 Optimization completed.
    -- Stationary point found.
 Normal termination of Gaussian 09 at Mon Jan 27 23:11:05 2020.
