 Gaussian 09, Revision D.01,
 Gaussian 09:  ES64L-G09RevD.01 24-Apr-2013

 -----------------------------
 # b3lyp 6-31G(2df,p) opt Freq
 -----------------------------

 -----
 titel
 -----
 Symbolic Z-matrix:
 Charge =  0 Multiplicity = 1

 SCF Done:  E(RB3LYP) =  -423.178530507     A.U. after   14 cycles
 Optimization completed.
    -- Stationary point found.
 Normal termination of Gaussian 09 at Tue Jan 28 03:14:37 2020.

 ----------------------------------------------------------------------
 #N Geom=AllCheck Guess=TCheck SCRF=Check GenChk RB3LYP/6-31G(2df,p) Fr
 eq
 ----------------------------------------------------------------------

 Structure from the checkpoint file:  "/scratch/puck/g09_e439517a-d021-4acb-9729-725e3e9987d6/Gau-89035.chk"
 -----
 titel
 -----
 Charge =  0 Multiplicity = 1

                         Standard orientation:
 ---------------------------------------------------------------------
 Center     Atomic      Atomic             Coordinates (Angstroms)
 Number     Number       Type             X           Y           Z
 ---------------------------------------------------------------------
      1          8           0       -2.245736   -1.223434   -0.347543
      2          6           0       -0.889333   -0.843139   -0.233487
      3          6           0       -0.405207   -0.466267    1.207635
      4          6           0        0.131476    0.953789    0.931394
      5          6           0       -1.004943    1.552553    0.052527
      6          6           0       -0.530730    0.472225   -0.963923
      7          6           0        0.908360    0.773498   -0.406445
      8          6           0        2.016312   -0.226443   -0.579220
      9          8           0        2.499454   -0.900069    0.297579
     10          1           0       -2.788924   -0.536157    0.051755
     11          1           0       -0.332546   -1.691428   -0.640571
     12          1           0       -1.248381   -0.458752    1.905969
     13          1           0        0.360472   -1.140326    1.590799
     14          1           0        0.564103    1.503481    1.766258
     15          1           0       -2.030078    1.494819    0.434284
     16          1           0       -0.800289    2.569410   -0.288970
     17          1           0       -0.760535    0.525131   -2.027730
     18          1           0        1.257246    1.729961   -0.816231
     19          1           0        2.393576   -0.305410   -1.626730
 ---------------------------------------------------------------------

 SCF Done:  E(RB3LYP) =  -423.178530507     A.U. after    1 cycles

 The electronic state is 1-A.
 Alpha  occ. eigenvalues --  -19.14401 -19.13735 -10.27353 -10.23431 -10.20596
 Alpha  occ. eigenvalues --  -10.20514 -10.20250 -10.19781 -10.17934  -1.04960
 Alpha  occ. eigenvalues --   -1.02139  -0.89679  -0.73077  -0.70746  -0.69257
 Alpha  occ. eigenvalues --   -0.60011  -0.57991  -0.54026  -0.52028  -0.49663
 Alpha  occ. eigenvalues --   -0.47225  -0.45515  -0.43708  -0.40437  -0.39944
 Alpha  occ. eigenvalues --   -0.38232  -0.37169  -0.35683  -0.34240  -0.33120
 Alpha  occ. eigenvalues --   -0.32278  -0.31244  -0.26076  -0.25110
 Alpha virt. eigenvalues --   -0.02840   0.06813   0.09102   0.11453   0.12393
 Alpha virt. eigenvalues --    0.13403   0.13908   0.15040   0.15312   0.16270
 Alpha virt. eigenvalues --    0.17353   0.18226   0.19336   0.20764   0.22118

 Mulliken charges:
               1
     1  O   -0.447722
     2  C    0.164012
     3  C   -0.259104
     4  C   -0.033546
     5  C   -0.243437
     6  C   -0.076515
     7  C   -0.079081
     8  C    0.126339
     9  O   -0.246236
    10  H    0.276391
    11  H    0.093538
    12  H    0.090909
    13  H    0.132918
    14  H    0.072156
    15  H    0.080404
    16  H    0.104443
    17  H    0.073481
    18  H    0.095314
    19  H    0.075735
 Sum of Mulliken charges =   0.00000

 Dipole moment (field-independent basis, Debye):
    X=             -0.9406    Y=              2.8046    Z=             -0.6692  Tot=              3.0328
 Quadrupole moment (field-independent basis, Debye-Ang):
   XX=            -57.5857   YY=            -55.4315   ZZ=            -52.1414
   XY=             -0.1400   XZ=             -5.2027   YZ=             -0.2200

  Exact polarizability:  81.331  -3.807  71.676  -2.301  -1.854  71.568
 Approx polarizability: 116.549  -7.072 108.766   1.883  -5.798 111.628

                      1                      2                      3
                      A                      A                      A
 Frequencies --     76.8830               163.3825               188.2794
 Red. masses --      5.5867                 3.1075                 3.7133
 Frc consts  --      0.0195                 0.0489                 0.0776
 IR Inten    --      4.6709                 3.2253                 8.2183

                      4                      5                      6
                      A                      A                      A
 Frequencies --    248.6649               259.2557               342.2513
 Red. masses --      1.1591                 2.6700                 4.0796
 Frc consts  --      0.0422                 0.1057                 0.2815
 IR Inten    --     69.0526                 0.4673                18.5271

                      7                      8                      9
                      A                      A                      A
 Frequencies --    417.5738               464.9422               531.1473
 Red. masses --      3.2864                 2.0247                 3.4403
 Frc consts  --      0.3376                 0.2579                 0.5718
 IR Inten    --      2.4374                 1.7784                 0.7676

                     10                     11                     12
                      A                      A                      A
 Frequencies --    632.7774               715.2269               753.5572
 Red. masses --      3.0096                 3.4224                 3.4364
 Frc consts  --      0.7100                 1.0315                 1.1497
 IR Inten    --      3.6712                13.2206                13.1633

                     13                     14                     15
                      A                      A                      A
 Frequencies --    831.6104               837.6222               847.2290
 Red. masses --      2.8503                 2.5803                 2.5060
 Frc consts  --      1.1614                 1.0667                 1.0598
 IR Inten    --      6.4764                 5.3500                 4.2793

                     16                     17                     18
                      A                      A                      A
 Frequencies --    899.5389               941.3346               953.3442
 Red. masses --      2.3812                 1.7583                 2.2418
 Frc consts  --      1.1352                 0.9180                 1.2005
 IR Inten    --      5.8377                 0.0404                 7.3397

                     19                     20                     21
                      A                      A                      A
 Frequencies --    971.2493              1011.5104              1016.1634
 Red. masses --      1.7745                 1.8756                 1.4560
 Frc consts  --      0.9862                 1.1307                 0.8858
 IR Inten    --      3.5445                10.3419                 0.7663

                     22                     23                     24
                      A                      A                      A
 Frequencies --   1050.2521              1061.2346              1087.8282
 Red. masses --      1.7076                 1.8017                 1.3998
 Frc consts  --      1.1098                 1.1955                 0.9760
 IR Inten    --     12.2813                 1.2351                18.4511

                     25                     26                     27
                      A                      A                      A
 Frequencies --   1104.2770              1123.5267              1159.2144
 Red. masses --      1.6334                 2.0848                 1.3389
 Frc consts  --      1.1736                 1.5505                 1.0600
 IR Inten    --      9.9876                80.9462                15.9699

                     28                     29                     30
                      A                      A                      A
 Frequencies --   1186.4990              1215.0307              1229.4881
 Red. masses --      1.7465                 1.6955                 1.4839
 Frc consts  --      1.4486                 1.4748                 1.3216
 IR Inten    --     19.8887                 4.1926                 2.9381

                     31                     32                     33
                      A                      A                      A
 Frequencies --   1256.7345              1285.2939              1307.7739
 Red. masses --      1.5692                 1.4614                 1.4287
 Frc consts  --      1.4602                 1.4224                 1.4396
 IR Inten    --      2.7615                 1.8759                14.0465

                     34                     35                     36
                      A                      A                      A
 Frequencies --   1311.7189              1334.6354              1374.7074
 Red. masses --      1.5833                 1.5795                 1.6768
 Frc consts  --      1.6050                 1.6576                 1.8671
 IR Inten    --      0.8794                 4.9757                10.0309

                     37                     38                     39
                      A                      A                      A
 Frequencies --   1424.5932              1445.4318              1490.6383
 Red. masses --      1.1996                 1.2028                 1.0940
 Frc consts  --      1.4344                 1.4806                 1.4322
 IR Inten    --      7.9909                57.7238                 6.6392

                     40                     41                     42
                      A                      A                      A
 Frequencies --   1511.8269              1817.8844              2847.9624
 Red. masses --      1.1158                10.3797                 1.0815
 Frc consts  --      1.5026                20.2101                 5.1681
 IR Inten    --      1.8166               137.4930               139.3916

                     43                     44                     45
                      A                      A                      A
 Frequencies --   3033.9385              3040.9256              3056.9264
 Red. masses --      1.0816                 1.0637                 1.0676
 Frc consts  --      5.8658                 5.7955                 5.8780
 IR Inten    --     26.7064                38.0273                33.1545

                     46                     47                     48
                      A                      A                      A
 Frequencies --   3075.7300              3111.0789              3123.6798
 Red. masses --      1.0864                 1.1021                 1.0885
 Frc consts  --      6.0554                 6.2846                 6.2577
 IR Inten    --     23.1601                23.3992                64.9887

                     49                     50                     51
                      A                      A                      A
 Frequencies --   3126.5502              3139.4518              3813.0635
 Red. masses --      1.0923                 1.0975                 1.0656
 Frc consts  --      6.2912                 6.3731                 9.1282
 IR Inten    --     13.5197                 8.1395                10.0201

 - Thermochemistry -
 -------------------
 Temperature   298.150 Kelvin.  Pressure   1.00000 Atm.
 Atom     1 has atomic number  8 and mass  15.99491

 Molecular mass:   126.06808 amu.
 Principal axes and moments of inertia in atomic units:
                           1         2         3
     Eigenvalues --   657.207031270.222271452.39809
           X            0.99975  -0.00675  -0.02116
           Y            0.00633   0.99978  -0.01977
           Z            0.02129   0.01963   0.99958
 This molecule is an asymmetric top.
 Rotational symmetry number  1.
 Warning -- assumption of classical behavior for rotation
           may cause significant error
 Rotational temperatures (Kelvin)      0.13179     0.06819     0.05964
 Rotational constants (GHZ):           2.74608     1.42081     1.24259
 Zero-point vibrational energy     420196.9 (Joules/Mol)
                                  100.42948 (Kcal/Mol)
 Warning -- explicit consideration of   9 degrees of freedom as
           vibrations may cause significant error
 Vibrational temperatures:    110.62   235.07   270.89   357.77   373.01
          (Kelvin)            492.42   600.79   668.95   764.20   910.42
                             1029.05  1084.20  1196.50  1205.15  1218.97
                             1294.23  1354.37  1371.65  1397.41  1455.34
                             1462.03  1511.08  1526.88  1565.14  1588.81
                             1616.50  1667.85  1707.11  1748.16  1768.96
                             1808.16  1849.25  1881.59  1887.27  1920.24
                             1977.89  2049.67  2079.65  2144.69  2175.18
                             2615.53  4097.58  4365.16  4375.21  4398.23
                             4425.28  4476.14  4494.27  4498.40  4516.97
                             5486.14

 Zero-point correction=                           0.160045 (Hartree/Particle)
 Thermal correction to Energy=                    0.168026
 Thermal correction to Enthalpy=                  0.168970
 Thermal correction to Gibbs Free Energy=         0.127443
 Sum of electronic and zero-point Energies=           -423.018486
 Sum of electronic and thermal Energies=              -423.010505
 Sum of electronic and thermal Enthalpies=            -423.009561
 Sum of electronic and thermal Free Energies=         -423.051087

                     E (Thermal)             CV                S
                      KCal/Mol        Cal/Mol-Kelvin    Cal/Mol-Kelvin
 Total                  105.438             31.005             87.400
 Electronic               0.000              0.000              0.000
 Translational            0.889              2.981             40.409
 Rotational               0.889              2.981             28.585
 Vibrational            103.660             25.043             18.406
 Vibration     1          0.599              1.965              3.969
 Vibration     2          0.623              1.887              2.510
 Vibration     3          0.633              1.856              2.245
 Vibration     4          0.662              1.765              1.740
 Vibration     5          0.668              1.747              1.667
 Vibration     6          0.721              1.591              1.202
 Vibration     7          0.781              1.432              0.900
 Vibration     8          0.822              1.328              0.752
 Vibration     9          0.886              1.181              0.585

 Optimization completed.
    -- Stationary point found.
 Normal termination of Gaussian 09 at Tue Jan 28 03:59:57 2020.
