 Gaussian 09, Revision D.01,
 Gaussian 09:  ES64L-G09RevD.01 24-Apr-2013

 -----------------------------
 # b3lyp 6-31G(2df,p) opt Freq
 -----------------------------

 -----
 titel
 -----
 Symbolic Z-matrix:
 Charge =  0 Multiplicity = 1

 SCF Done:  E(RB3LYP) =  -423.151319929     A.U. after   13 cycles
 Optimization completed.
    -- Stationary point found.
 Normal termination of Gaussian 09 at Tue Jan 28 13:29:20 2020.

 ----------------------------------------------------------------------
 #N Geom=AllCheck Guess=TCheck SCRF=Check GenChk RB3LYP/6-31G(2df,p) Fr
 eq
 ----------------------------------------------------------------------

 Structure from the checkpoint file:  "/scratch/puck/g09_c972566a-491c-428a-b10d-c0980fa7ff12/Gau-31143.chk"
 -----
 titel
 -----
 Charge =  0 Multiplicity = 1

                         Standard orientation:
 ---------------------------------------------------------------------
 Center     Atomic      Atomic             Coordinates (Angstroms)
 Number     Number       Type             X           Y           Z
 ---------------------------------------------------------------------
      1          6           0       -2.222451   -1.314599    0.498202
      2          8           0       -2.130580   -0.087641   -0.204479
      3          6           0       -1.166513    0.762828    0.313786
      4          6           0       -0.502818    1.682744   -0.673480
      5          6           0        0.293300    0.548815   -0.061672
      6          8           0        0.605878   -0.554062   -0.888027
      7          6           0        1.883519   -1.076731   -0.513055
      8          6           0        2.346897   -0.206114    0.622792
      9          6           0        1.425584    0.721396    0.869873
     10          1           0       -2.469479   -1.153897    1.558886
     11          1           0       -3.028022   -1.887048    0.032348
     12          1           0       -1.287155   -1.882586    0.430920
     13          1           0       -1.375201    1.135524    1.320297
     14          1           0       -0.794449    1.530632   -1.706886
     15          1           0       -0.284865    2.707265   -0.391451
     16          1           0        1.779319   -2.133823   -0.221613
     17          1           0        2.563279   -1.044716   -1.378797
     18          1           0        3.289626   -0.345779    1.135085
     19          1           0        1.459466    1.498005    1.622581
 ---------------------------------------------------------------------

 SCF Done:  E(RB3LYP) =  -423.151319929     A.U. after    1 cycles

 The electronic state is 1-A.
 Alpha  occ. eigenvalues --  -19.14064 -19.14046 -10.23926 -10.23349 -10.22983
 Alpha  occ. eigenvalues --  -10.21693 -10.19042 -10.18795 -10.17991  -1.04707
 Alpha  occ. eigenvalues --   -1.02798  -0.84367  -0.78924  -0.70155  -0.67477
 Alpha  occ. eigenvalues --   -0.59377  -0.57506  -0.55602  -0.51546  -0.49167
 Alpha  occ. eigenvalues --   -0.46825  -0.46177  -0.43897  -0.42168  -0.41696
 Alpha  occ. eigenvalues --   -0.38791  -0.37601  -0.35719  -0.33839  -0.33099
 Alpha  occ. eigenvalues --   -0.28163  -0.27776  -0.26992  -0.20271
 Alpha virt. eigenvalues --    0.01302   0.07897   0.11087   0.11848   0.13218
 Alpha virt. eigenvalues --    0.14067   0.15543   0.15733   0.16297   0.16713
 Alpha virt. eigenvalues --    0.17126   0.18158   0.18929   0.20252   0.22094

 Mulliken charges:
               1
     1  C   -0.230774
     2  O   -0.229123
     3  C    0.040653
     4  C   -0.392159
     5  C    0.403436
     6  O   -0.303002
     7  C   -0.129634
     8  C   -0.112241
     9  C   -0.154698
    10  H    0.099593
    11  H    0.125181
    12  H    0.121579
    13  H    0.078212
    14  H    0.138290
    15  H    0.112360
    16  H    0.106220
    17  H    0.109672
    18  H    0.107203
    19  H    0.109232
 Sum of Mulliken charges =   0.00000

 Dipole moment (field-independent basis, Debye):
    X=              1.4931    Y=             -0.0454    Z=              1.7157  Tot=              2.2749
 Quadrupole moment (field-independent basis, Debye-Ang):
   XX=            -51.7650   YY=            -49.5721   ZZ=            -53.1237
   XY=              0.2624   XZ=             -0.9758   YZ=              0.3319

  Exact polarizability:  92.402  -8.790  80.957   0.108   2.956  65.543
 Approx polarizability: 127.570 -19.923 119.263   0.547   6.148  98.613

                      1                      2                      3
                      A                      A                      A
 Frequencies --     71.6058               115.0975               143.0726
 Red. masses --      2.9908                 3.2492                 2.6435
 Frc consts  --      0.0090                 0.0254                 0.0319
 IR Inten    --      0.7917                 6.9421                 1.6076

                      4                      5                      6
                      A                      A                      A
 Frequencies --    156.0158               219.2958               312.0399
 Red. masses --      1.8027                 1.7607                 2.8621
 Frc consts  --      0.0259                 0.0499                 0.1642
 IR Inten    --      0.6456                 2.2464                 1.2425

                      7                      8                      9
                      A                      A                      A
 Frequencies --    324.9079               444.5102               457.3198
 Red. masses --      2.7668                 3.4499                 2.5343
 Frc consts  --      0.1721                 0.4016                 0.3123
 IR Inten    --      1.2667                 4.1090                 3.0909

                     10                     11                     12
                      A                      A                      A
 Frequencies --    541.6350               642.0554               713.1104
 Red. masses --      3.1973                 3.9573                 1.3640
 Frc consts  --      0.5526                 0.9612                 0.4087
 IR Inten    --      1.5190                19.6295                12.4869

                     13                     14                     15
                      A                      A                      A
 Frequencies --    781.1815               806.0313               845.5504
 Red. masses --      5.9192                 1.9772                 4.7593
 Frc consts  --      2.1282                 0.7568                 2.0048
 IR Inten    --      3.2311                11.7940                12.4707

                     16                     17                     18
                      A                      A                      A
 Frequencies --    876.1854               897.7617               947.3428
 Red. masses --      1.5614                 3.1844                 1.2907
 Frc consts  --      0.7062                 1.5121                 0.6825
 IR Inten    --      6.0588                31.5916                 0.9448

                     19                     20                     21
                      A                      A                      A
 Frequencies --    955.0061              1005.0082              1027.7266
 Red. masses --      2.3206                 2.2734                 2.3005
 Frc consts  --      1.2470                 1.3529                 1.4317
 IR Inten    --      2.3239                32.0218                51.4030

                     22                     23                     24
                      A                      A                      A
 Frequencies --   1043.9493              1058.0040              1094.1030
 Red. masses --      1.6302                 1.8633                 2.3260
 Frc consts  --      1.0468                 1.2288                 1.6405
 IR Inten    --      5.7634                 3.7130                21.8034

                     25                     26                     27
                      A                      A                      A
 Frequencies --   1118.3956              1127.9818              1173.6359
 Red. masses --      1.7850                 1.4519                 1.4541
 Frc consts  --      1.3155                 1.0884                 1.1801
 IR Inten    --     50.2736                18.0465                20.2944

                     28                     29                     30
                      A                      A                      A
 Frequencies --   1188.2246              1194.8558              1226.9260
 Red. masses --      2.0069                 1.0773                 2.1197
 Frc consts  --      1.6695                 0.9062                 1.8800
 IR Inten    --     39.0290                 0.3748                18.3399

                     31                     32                     33
                      A                      A                      A
 Frequencies --   1245.2980              1288.7984              1357.2579
 Red. masses --      2.0420                 1.9713                 1.5599
 Frc consts  --      1.8657                 1.9292                 1.6931
 IR Inten    --     53.1004                18.8764                14.7483

                     34                     35                     36
                      A                      A                      A
 Frequencies --   1383.5875              1407.7571              1458.6686
 Red. masses --      1.5792                 1.5591                 1.3503
 Frc consts  --      1.7812                 1.8205                 1.6927
 IR Inten    --      5.2836                15.1113                17.0860

                     37                     38                     39
                      A                      A                      A
 Frequencies --   1485.8122              1488.6352              1506.3934
 Red. masses --      1.0491                 1.4527                 1.0557
 Frc consts  --      1.3646                 1.8967                 1.4115
 IR Inten    --      2.7362                12.5331                 2.8942

                     40                     41                     42
                      A                      A                      A
 Frequencies --   1519.7018              1676.2396              2973.4193
 Red. masses --      1.0879                 6.4589                 1.0565
 Frc consts  --      1.4803                10.6925                 5.5032
 IR Inten    --      2.4839                 1.4055                98.6678

                     43                     44                     45
                      A                      A                      A
 Frequencies --   2986.4715              2990.3823              3058.1432
 Red. masses --      1.0435                 1.1054                 1.0876
 Frc consts  --      5.4834                 5.8242                 5.9930
 IR Inten    --     65.4590                41.1895                66.1748

                     46                     47                     48
                      A                      A                      A
 Frequencies --   3062.3947              3120.7247              3131.3737
 Red. masses --      1.0910                 1.1006                 1.0544
 Frc consts  --      6.0283                 6.3155                 6.0918
 IR Inten    --     11.5515                30.5765                 8.1130

                     49                     50                     51
                      A                      A                      A
 Frequencies --   3212.5985              3229.5185              3236.2623
 Red. masses --      1.0858                 1.1168                 1.1066
 Frc consts  --      6.6026                 6.8627                 6.8286
 IR Inten    --      0.9465                 4.0225                 7.9922

 - Thermochemistry -
 -------------------
 Temperature   298.150 Kelvin.  Pressure   1.00000 Atm.
 Atom     1 has atomic number  6 and mass  12.00000

 Molecular mass:   126.06808 amu.
 Principal axes and moments of inertia in atomic units:
                           1         2         3
     Eigenvalues --   613.344471381.758171615.54868
           X            0.99991   0.00911  -0.00958
           Y           -0.00924   0.99986  -0.01423
           Z            0.00945   0.01432   0.99985
 This molecule is an asymmetric top.
 Rotational symmetry number  1.
 Warning -- assumption of classical behavior for rotation
           may cause significant error
 Rotational temperatures (Kelvin)      0.14122     0.06268     0.05361
 Rotational constants (GHZ):           2.94246     1.30612     1.11711
 Zero-point vibrational energy     414673.4 (Joules/Mol)
                                   99.10931 (Kcal/Mol)
 Warning -- explicit consideration of  10 degrees of freedom as
           vibrations may cause significant error
 Vibrational temperatures:    103.02   165.60   205.85   224.47   315.52
          (Kelvin)            448.96   467.47   639.55   657.98   779.29
                              923.77  1026.01  1123.94  1159.70  1216.56
                             1260.63  1291.68  1363.01  1374.04  1445.98
                             1478.67  1502.01  1522.23  1574.17  1609.12
                             1622.91  1688.60  1709.59  1719.13  1765.27
                             1791.70  1854.29  1952.79  1990.67  2025.45
                             2098.70  2137.75  2141.81  2167.36  2186.51
                             2411.73  4278.08  4296.86  4302.49  4399.98
                             4406.10  4490.02  4505.34  4622.21  4646.55
                             4656.25

 Zero-point correction=                           0.157941 (Hartree/Particle)
 Thermal correction to Energy=                    0.166628
 Thermal correction to Enthalpy=                  0.167572
 Thermal correction to Gibbs Free Energy=         0.124254
 Sum of electronic and zero-point Energies=           -422.993379
 Sum of electronic and thermal Energies=              -422.984692
 Sum of electronic and thermal Enthalpies=            -422.983748
 Sum of electronic and thermal Free Energies=         -423.027066

                     E (Thermal)             CV                S
                      KCal/Mol        Cal/Mol-Kelvin    Cal/Mol-Kelvin
 Total                  104.560             32.293             91.170
 Electronic               0.000              0.000              0.000
 Translational            0.889              2.981             40.409
 Rotational               0.889              2.981             28.706
 Vibrational            102.783             26.331             22.056
 Vibration     1          0.598              1.968              4.109
 Vibration     2          0.608              1.937              3.181
 Vibration     3          0.616              1.910              2.762
 Vibration     4          0.620              1.896              2.598
 Vibration     5          0.647              1.812              1.965
 Vibration     6          0.700              1.651              1.351
 Vibration     7          0.709              1.626              1.285
 Vibration     8          0.804              1.373              0.813
 Vibration     9          0.815              1.345              0.774
 Vibration    10          0.897              1.158              0.562

 Optimization completed.
    -- Stationary point found.
 Normal termination of Gaussian 09 at Tue Jan 28 14:11:09 2020.
