 Gaussian 09, Revision D.01,
 Gaussian 09:  ES64L-G09RevD.01 24-Apr-2013

 -----------------------------
 # b3lyp 6-31G(2df,p) opt Freq
 -----------------------------

 -----
 titel
 -----
 Symbolic Z-matrix:
 Charge =  0 Multiplicity = 1

 SCF Done:  E(RB3LYP) =  -423.113225431     A.U. after   14 cycles
 Optimization completed.
    -- Stationary point found.
 Normal termination of Gaussian 09 at Tue Jan 28 08:21:09 2020.

 ----------------------------------------------------------------------
 #N Geom=AllCheck Guess=TCheck SCRF=Check GenChk RB3LYP/6-31G(2df,p) Fr
 eq
 ----------------------------------------------------------------------

 Structure from the checkpoint file:  "/scratch/puck/g09_acd1ee02-7403-47db-b30a-bdf6bf894079/Gau-59928.chk"
 -----
 titel
 -----
 Charge =  0 Multiplicity = 1

                         Standard orientation:
 ---------------------------------------------------------------------
 Center     Atomic      Atomic             Coordinates (Angstroms)
 Number     Number       Type             X           Y           Z
 ---------------------------------------------------------------------
      1          6           0       -2.326044   -1.391240   -0.177758
      2          8           0       -1.008338   -1.126278    0.261047
      3          6           0       -0.362288   -0.048028   -0.408577
      4          6           0       -1.051787    1.231419   -0.193506
      5          6           0       -1.623327    2.276245   -0.032233
      6          6           0        1.056745   -0.034496    0.138664
      7          8           0        1.106704    0.098322    1.526238
      8          6           0        2.148538    0.640645   -0.620417
      9          6           0        2.107405   -0.875617   -0.544609
     10          1           0       -2.345979   -1.651891   -1.246836
     11          1           0       -2.686438   -2.244104    0.401541
     12          1           0       -2.989987   -0.533187   -0.012943
     13          1           0       -0.327903   -0.251821   -1.491502
     14          1           0       -2.116279    3.205039    0.118295
     15          1           0        0.513099   -0.576602    1.879299
     16          1           0        1.908165    1.124580   -1.560832
     17          1           0        2.894062    1.152371   -0.023122
     18          1           0        1.840953   -1.434338   -1.435436
     19          1           0        2.827928   -1.359966    0.103877
 ---------------------------------------------------------------------

 SCF Done:  E(RB3LYP) =  -423.113225431     A.U. after    1 cycles

 The electronic state is 1-A.
 Alpha  occ. eigenvalues --  -19.15399 -19.13568 -10.26069 -10.24117 -10.22900
 Alpha  occ. eigenvalues --  -10.18470 -10.18324 -10.18223 -10.17882  -1.05044
 Alpha  occ. eigenvalues --   -1.02000  -0.84936  -0.77464  -0.72252  -0.65962
 Alpha  occ. eigenvalues --   -0.60597  -0.58032  -0.54473  -0.51590  -0.50268
 Alpha  occ. eigenvalues --   -0.49268  -0.47616  -0.44672  -0.42053  -0.40958
 Alpha  occ. eigenvalues --   -0.38241  -0.36453  -0.34011  -0.32705  -0.29368
 Alpha  occ. eigenvalues --   -0.28099  -0.27256  -0.26952  -0.24637
 Alpha virt. eigenvalues --    0.03349   0.04492   0.09558   0.10928   0.11900
 Alpha virt. eigenvalues --    0.12328   0.12466   0.13814   0.15028   0.16394
 Alpha virt. eigenvalues --    0.17072   0.17412   0.19152   0.21839   0.22560

 Mulliken charges:
               1
     1  C   -0.238045
     2  O   -0.251208
     3  C   -0.154263
     4  C    0.363506
     5  C   -0.471591
     6  C    0.451961
     7  O   -0.473189
     8  C   -0.311826
     9  C   -0.336262
    10  H    0.107146
    11  H    0.129998
    12  H    0.125979
    13  H    0.091273
    14  H    0.200072
    15  H    0.289883
    16  H    0.117005
    17  H    0.128664
    18  H    0.110587
    19  H    0.120312
 Sum of Mulliken charges =   0.00000

 Dipole moment (field-independent basis, Debye):
    X=             -1.2587    Y=             -0.5964    Z=             -1.2733  Tot=              1.8871
 Quadrupole moment (field-independent basis, Debye-Ang):
   XX=            -50.1562   YY=            -49.7501   ZZ=            -53.2602
   XY=             -0.8963   XZ=             -1.3090   YZ=             -0.8783

  Exact polarizability:  84.980  -6.353  86.314  -3.236   1.576  62.880
 Approx polarizability: 109.075 -15.169 131.211  -4.747   3.346  96.021

                      1                      2                      3
                      A                      A                      A
 Frequencies --     67.6260                99.4204               128.8439
 Red. masses --      4.0050                 2.5624                 4.0420
 Frc consts  --      0.0108                 0.0149                 0.0395
 IR Inten    --      0.8732                 2.4050                 0.8287

                      4                      5                      6
                      A                      A                      A
 Frequencies --    169.5952               177.6030               241.1657
 Red. masses --      2.3917                 1.7428                 2.1963
 Frc consts  --      0.0405                 0.0324                 0.0753
 IR Inten    --      1.4246                 0.1259                 3.4055

                      7                      8                      9
                      A                      A                      A
 Frequencies --    308.1190               319.0482               344.2619
 Red. masses --      3.0826                 2.6412                 3.3309
 Frc consts  --      0.1724                 0.1584                 0.2326
 IR Inten    --      1.8235                 4.1061                 9.5211

                     10                     11                     12
                      A                      A                      A
 Frequencies --    390.4835               426.7889               505.1847
 Red. masses --      2.7622                 1.4411                 3.5866
 Frc consts  --      0.2482                 0.1547                 0.5393
 IR Inten    --      8.4299               105.9603                23.9813

                     13                     14                     15
                      A                      A                      A
 Frequencies --    543.2737               594.5980               632.0687
 Red. masses --      4.3415                 6.2595                 1.2451
 Frc consts  --      0.7550                 1.3039                 0.2931
 IR Inten    --     11.1028                 5.3300                38.1253

                     16                     17                     18
                      A                      A                      A
 Frequencies --    674.2135               765.3371               837.2593
 Red. masses --      1.2538                 1.0534                 3.9433
 Frc consts  --      0.3358                 0.3636                 1.6286
 IR Inten    --     33.4544                 0.2176                 6.4409

                     19                     20                     21
                      A                      A                      A
 Frequencies --    880.6123               905.4909               953.4782
 Red. masses --      2.3368                 1.5471                 3.3925
 Frc consts  --      1.0677                 0.7474                 1.8172
 IR Inten    --      7.2832                 3.5349                46.3705

                     22                     23                     24
                      A                      A                      A
 Frequencies --    975.1067               994.7493              1022.2653
 Red. masses --      2.7211                 2.4953                 3.3119
 Frc consts  --      1.5244                 1.4548                 2.0392
 IR Inten    --     20.3092                 7.1219                22.8961

                     25                     26                     27
                      A                      A                      A
 Frequencies --   1050.1218              1076.8427              1132.9892
 Red. masses --      1.4725                 1.4412                 8.1100
 Frc consts  --      0.9567                 0.9846                 6.1337
 IR Inten    --     14.6157                 1.7997               181.2386

                     28                     29                     30
                      A                      A                      A
 Frequencies --   1184.1875              1186.3455              1208.1493
 Red. masses --      1.2771                 1.2793                 1.4714
 Frc consts  --      1.0552                 1.0609                 1.2654
 IR Inten    --      1.4030                 0.1697                27.8787

                     31                     32                     33
                      A                      A                      A
 Frequencies --   1234.7151              1316.3130              1323.4294
 Red. masses --      1.7402                 3.2200                 1.4459
 Frc consts  --      1.5630                 3.2872                 1.4921
 IR Inten    --     40.9630                20.8571                87.8422

                     34                     35                     36
                      A                      A                      A
 Frequencies --   1342.6980              1424.2145              1452.2879
 Red. masses --      1.2339                 1.4160                 1.0919
 Frc consts  --      1.3107                 1.6923                 1.3569
 IR Inten    --     21.1560                20.8954                 3.0082

                     37                     38                     39
                      A                      A                      A
 Frequencies --   1478.4260              1484.7164              1508.7954
 Red. masses --      1.1453                 1.0461                 1.7436
 Frc consts  --      1.4750                 1.3586                 2.3387
 IR Inten    --      0.9022                 3.9574                13.8347

                     40                     41                     42
                      A                      A                      A
 Frequencies --   1511.2461              2231.7589              2968.5452
 Red. masses --      1.0682                 5.8885                 1.0808
 Frc consts  --      1.4374                17.2801                 5.6113
 IR Inten    --      5.9130                 2.9096                29.5971

                     43                     44                     45
                      A                      A                      A
 Frequencies --   2989.3960              3055.3447              3123.4399
 Red. masses --      1.0411                 1.0964                 1.0993
 Frc consts  --      5.4816                 6.0302                 6.3188
 IR Inten    --     59.0191                34.6729                23.2499

                     46                     47                     48
                      A                      A                      A
 Frequencies --   3133.7079              3139.1624              3220.9328
 Red. masses --      1.0526                 1.0574                 1.1181
 Frc consts  --      6.0903                 6.1390                 6.8342
 IR Inten    --     12.5551                 5.8695                 0.4108

                     49                     50                     51
                      A                      A                      A
 Frequencies --   3234.4099              3501.0682              3778.9936
 Red. masses --      1.1154                 1.1628                 1.0651
 Frc consts  --      6.8752                 8.3973                 8.9613
 IR Inten    --      9.4171                60.9189                37.5264

 - Thermochemistry -
 -------------------
 Temperature   298.150 Kelvin.  Pressure   1.00000 Atm.
 Atom     1 has atomic number  6 and mass  12.00000

 Molecular mass:   126.06808 amu.
 Principal axes and moments of inertia in atomic units:
                           1         2         3
     Eigenvalues --   803.781011361.709751725.69796
           X            0.99971   0.02245  -0.00866
           Y           -0.02237   0.99970   0.00980
           Z            0.00887  -0.00960   0.99991
 This molecule is an asymmetric top.
 Rotational symmetry number  1.
 Warning -- assumption of classical behavior for rotation
           may cause significant error
 Rotational temperatures (Kelvin)      0.10776     0.06361     0.05019
 Rotational constants (GHZ):           2.24531     1.32535     1.04580
 Zero-point vibrational energy     408218.7 (Joules/Mol)
                                   97.56660 (Kcal/Mol)
 Warning -- explicit consideration of  14 degrees of freedom as
           vibrations may cause significant error
 Vibrational temperatures:     97.30   143.04   185.38   244.01   255.53
          (Kelvin)            346.98   443.31   459.04   495.32   561.82
                              614.05   726.85   781.65   855.49   909.40
                              970.04  1101.15  1204.63  1267.00  1302.80
                             1371.84  1402.96  1431.22  1470.81  1510.89
                             1549.33  1630.12  1703.78  1706.88  1738.26
                             1776.48  1893.88  1904.12  1931.84  2049.12
                             2089.52  2127.12  2136.17  2170.82  2174.34
                             3211.00  4271.07  4301.07  4395.95  4493.93
                             4508.70  4516.55  4634.20  4653.59  5037.25
                             5437.12

 Zero-point correction=                           0.155482 (Hartree/Particle)
 Thermal correction to Energy=                    0.165490
 Thermal correction to Enthalpy=                  0.166434
 Thermal correction to Gibbs Free Energy=         0.120615
 Sum of electronic and zero-point Energies=           -422.957743
 Sum of electronic and thermal Energies=              -422.947735
 Sum of electronic and thermal Enthalpies=            -422.946791
 Sum of electronic and thermal Free Energies=         -422.992610

                     E (Thermal)             CV                S
                      KCal/Mol        Cal/Mol-Kelvin    Cal/Mol-Kelvin
 Total                  103.847             36.884             96.434
 Electronic               0.000              0.000              0.000
 Translational            0.889              2.981             40.409
 Rotational               0.889              2.981             29.025
 Vibrational            102.069             30.922             27.000
 Vibration     1          0.598              1.970              4.221
 Vibration     2          0.604              1.950              3.466
 Vibration     3          0.611              1.924              2.963
 Vibration     4          0.625              1.880              2.440
 Vibration     5          0.628              1.870              2.353
 Vibration     6          0.658              1.777              1.794
 Vibration     7          0.698              1.658              1.372
 Vibration     8          0.705              1.637              1.315
 Vibration     9          0.723              1.587              1.192
 Vibration    10          0.758              1.491              0.998
 Vibration    11          0.788              1.412              0.869
 Vibration    12          0.860              1.239              0.645
 Vibration    13          0.898              1.154              0.558
 Vibration    14          0.952              1.043              0.459

 Optimization completed.
    -- Stationary point found.
 Normal termination of Gaussian 09 at Tue Jan 28 10:08:31 2020.
