 Gaussian 09, Revision D.01,
 Gaussian 09:  ES64L-G09RevD.01 24-Apr-2013

 -----------------------------
 # b3lyp 6-31G(2df,p) opt Freq
 -----------------------------

 -----
 titel
 -----
 Symbolic Z-matrix:
 Charge =  0 Multiplicity = 1

 SCF Done:  E(RB3LYP) =  -423.149100196     A.U. after   12 cycles
 Optimization completed.
    -- Stationary point found.
 Normal termination of Gaussian 09 at Mon Jan 27 22:06:14 2020.

 ----------------------------------------------------------------------
 #N Geom=AllCheck Guess=TCheck SCRF=Check GenChk RB3LYP/6-31G(2df,p) Fr
 eq
 ----------------------------------------------------------------------

 Structure from the checkpoint file:  "/scratch/puck/g09_a94e24f7-f419-4fc2-aa27-306868c0437e/Gau-85629.chk"
 -----
 titel
 -----
 Charge =  0 Multiplicity = 1

                         Standard orientation:
 ---------------------------------------------------------------------
 Center     Atomic      Atomic             Coordinates (Angstroms)
 Number     Number       Type             X           Y           Z
 ---------------------------------------------------------------------
      1          8           0       -2.757823    0.106280    0.318939
      2          6           0       -1.366522   -0.030460    0.407473
      3          6           0       -0.683043   -0.983955   -0.544887
      4          6           0        0.725840   -1.476192   -0.266208
      5          6           0        1.458550   -1.024845    0.975619
      6          6           0        1.665045   -0.290113   -0.323898
      7          6           0        0.837716    0.975295   -0.573367
      8          8           0        1.021376    1.884675    0.509640
      9          6           0       -0.617187    0.518009   -0.768964
     10          1           0       -3.156291   -0.650994    0.760800
     11          1           0       -0.957693    0.120703    1.403488
     12          1           0       -1.329026   -1.599949   -1.160559
     13          1           0        1.004612   -2.429678   -0.700556
     14          1           0        0.930842   -0.527944    1.779199
     15          1           0        2.276694   -1.650853    1.316048
     16          1           0        2.635075   -0.354814   -0.803011
     17          1           0        1.182935    1.439414   -1.509264
     18          1           0        0.397963    2.608484    0.390326
     19          1           0       -1.215926    0.991552   -1.539721
 ---------------------------------------------------------------------

 SCF Done:  E(RB3LYP) =  -423.149100196     A.U. after    1 cycles

 The electronic state is 1-A.
 Alpha  occ. eigenvalues --  -19.14107 -19.12911 -10.23237 -10.23133 -10.19047
 Alpha  occ. eigenvalues --  -10.18770 -10.18169 -10.18045 -10.18027  -1.02618
 Alpha  occ. eigenvalues --   -1.01064  -0.88662  -0.81596  -0.70195  -0.63716
 Alpha  occ. eigenvalues --   -0.58433  -0.56259  -0.55279  -0.53381  -0.49658
 Alpha  occ. eigenvalues --   -0.48074  -0.44875  -0.44065  -0.41354  -0.39171
 Alpha  occ. eigenvalues --   -0.37868  -0.36245  -0.33206  -0.31900  -0.29491
 Alpha  occ. eigenvalues --   -0.28851  -0.27061  -0.26226  -0.23494
 Alpha virt. eigenvalues --    0.06444   0.08121   0.08870   0.10944   0.12434
 Alpha virt. eigenvalues --    0.13807   0.15157   0.16924   0.17956   0.18301
 Alpha virt. eigenvalues --    0.18854   0.20430   0.20878   0.21399   0.24398

 Mulliken charges:
               1
     1  O   -0.443210
     2  C    0.086893
     3  C   -0.106602
     4  C   -0.042964
     5  C   -0.297683
     6  C   -0.036802
     7  C    0.075147
     8  O   -0.431754
     9  C   -0.110240
    10  H    0.284799
    11  H    0.096044
    12  H    0.085707
    13  H    0.081586
    14  H    0.128493
    15  H    0.106570
    16  H    0.082946
    17  H    0.066692
    18  H    0.282500
    19  H    0.091878
 Sum of Mulliken charges =   0.00000

 Dipole moment (field-independent basis, Debye):
    X=             -0.4461    Y=             -1.0630    Z=             -0.4501  Tot=              1.2376
 Quadrupole moment (field-independent basis, Debye-Ang):
   XX=            -54.3662   YY=            -49.2076   ZZ=            -52.0027
   XY=              0.7015   XZ=             -3.3172   YZ=             -2.1085

  Exact polarizability:  80.606  -1.355  74.088  -0.050  -1.955  65.914
 Approx polarizability: 109.621  -0.018 109.877  -0.495  -1.648 102.871

                      1                      2                      3
                      A                      A                      A
 Frequencies --    137.3179               169.7611               252.1922
 Red. masses --      3.6695                 3.7760                 3.4269
 Frc consts  --      0.0408                 0.0641                 0.1284
 IR Inten    --      2.4407                 0.1466                17.2478

                      4                      5                      6
                      A                      A                      A
 Frequencies --    263.6827               280.2069               310.1073
 Red. masses --      1.3999                 1.6279                 1.3990
 Frc consts  --      0.0573                 0.0753                 0.0793
 IR Inten    --     75.1542                35.9681                91.0796

                      7                      8                      9
                      A                      A                      A
 Frequencies --    393.5489               434.7168               507.4453
 Red. masses --      3.8618                 2.7827                 3.6856
 Frc consts  --      0.3524                 0.3098                 0.5592
 IR Inten    --      5.1011                 2.9146                 9.3912

                     10                     11                     12
                      A                      A                      A
 Frequencies --    543.2533               676.6665               714.1624
 Red. masses --      4.8589                 3.7942                 3.4011
 Frc consts  --      0.8449                 1.0236                 1.0220
 IR Inten    --      5.0959                 1.6457                 1.4502

                     13                     14                     15
                      A                      A                      A
 Frequencies --    767.6092               796.4778               830.2376
 Red. masses --      2.3585                 1.5551                 1.8202
 Frc consts  --      0.8188                 0.5812                 0.7392
 IR Inten    --      8.0786                 2.3191                 6.7992

                     16                     17                     18
                      A                      A                      A
 Frequencies --    894.7746               911.6484               922.7444
 Red. masses --      3.2621                 4.3995                 1.7865
 Frc consts  --      1.5388                 2.1543                 0.8962
 IR Inten    --      8.9563                11.2588                 9.7875

                     19                     20                     21
                      A                      A                      A
 Frequencies --    959.0328               998.2724              1013.1097
 Red. masses --      2.9437                 1.8916                 1.8270
 Frc consts  --      1.5952                 1.1106                 1.1048
 IR Inten    --      6.1791                 9.3774                17.1178

                     22                     23                     24
                      A                      A                      A
 Frequencies --   1036.1345              1049.5858              1061.6940
 Red. masses --      1.2674                 1.9888                 1.3173
 Frc consts  --      0.8017                 1.2908                 0.8749
 IR Inten    --      9.7807                16.9638                 4.6026

                     25                     26                     27
                      A                      A                      A
 Frequencies --   1074.9955              1085.6949              1109.5458
 Red. masses --      1.2211                 2.6086                 1.2411
 Frc consts  --      0.8314                 1.8117                 0.9002
 IR Inten    --      3.0108                51.6877                 0.8071

                     28                     29                     30
                      A                      A                      A
 Frequencies --   1126.7195              1150.7945              1181.3019
 Red. masses --      2.0035                 2.3151                 2.0087
 Frc consts  --      1.4986                 1.8064                 1.6516
 IR Inten    --     23.8983                80.5296                 5.3504

                     31                     32                     33
                      A                      A                      A
 Frequencies --   1206.9839              1241.8548              1283.9224
 Red. masses --      1.5568                 1.2133                 1.2981
 Frc consts  --      1.3362                 1.1024                 1.2607
 IR Inten    --      6.1094                28.5337                24.8597

                     34                     35                     36
                      A                      A                      A
 Frequencies --   1301.0797              1311.8732              1342.7782
 Red. masses --      1.3190                 1.6785                 1.4798
 Frc consts  --      1.3155                 1.7020                 1.5720
 IR Inten    --     11.9463                56.0836                23.2577

                     37                     38                     39
                      A                      A                      A
 Frequencies --   1360.5951              1389.2360              1406.7396
 Red. masses --      1.4029                 1.9751                 1.4847
 Frc consts  --      1.5302                 2.2459                 1.7311
 IR Inten    --      1.2483                 5.9342                 5.1042

                     40                     41                     42
                      A                      A                      A
 Frequencies --   1463.4460              1496.8468              2985.1670
 Red. masses --      2.1675                 1.2276                 1.0843
 Frc consts  --      2.7350                 1.6205                 5.6928
 IR Inten    --     13.6910                 3.6633                59.4657

                     43                     44                     45
                      A                      A                      A
 Frequencies --   3125.9166              3143.3883              3162.2760
 Red. masses --      1.0847                 1.0601                 1.0879
 Frc consts  --      6.2449                 6.1715                 6.4096
 IR Inten    --      9.6152                23.1243                 1.0469

                     46                     47                     48
                      A                      A                      A
 Frequencies --   3168.1467              3172.3928              3180.3748
 Red. masses --      1.0891                 1.0907                 1.0941
 Frc consts  --      6.4404                 6.4675                 6.5202
 IR Inten    --     17.8027                26.5880                16.8556

                     49                     50                     51
                      A                      A                      A
 Frequencies --   3229.2044              3804.5870              3815.3235
 Red. masses --      1.1122                 1.0661                 1.0662
 Frc consts  --      6.8335                 9.0922                 9.1439
 IR Inten    --      9.4001                22.7007                18.3898

 - Thermochemistry -
 -------------------
 Temperature   298.150 Kelvin.  Pressure   1.00000 Atm.
 Atom     1 has atomic number  8 and mass  15.99491

 Molecular mass:   126.06808 amu.
 Principal axes and moments of inertia in atomic units:
                           1         2         3
     Eigenvalues --   699.116141160.879991497.89217
           X            0.99988  -0.01571  -0.00036
           Y            0.01570   0.99959  -0.02384
           Z            0.00074   0.02384   0.99972
 This molecule is an asymmetric top.
 Rotational symmetry number  1.
 Warning -- assumption of classical behavior for rotation
           may cause significant error
 Rotational temperatures (Kelvin)      0.12389     0.07461     0.05782
 Rotational constants (GHZ):           2.58146     1.55463     1.20485
 Zero-point vibrational energy     420161.8 (Joules/Mol)
                                  100.42108 (Kcal/Mol)
 Warning -- explicit consideration of  10 degrees of freedom as
           vibrations may cause significant error
 Vibrational temperatures:    197.57   244.25   362.85   379.38   403.15
          (Kelvin)            446.17   566.23   625.46   730.10   781.62
                              973.57  1027.52  1104.42  1145.95  1194.53
                             1287.38  1311.66  1327.62  1379.83  1436.29
                             1457.64  1490.76  1510.12  1527.54  1546.68
                             1562.07  1596.39  1621.10  1655.73  1699.63
                             1736.58  1786.75  1847.28  1871.96  1887.49
                             1931.96  1957.59  1998.80  2023.98  2105.57
                             2153.63  4294.98  4497.49  4522.63  4549.80
                             4558.25  4564.36  4575.84  4646.10  5473.95
                             5489.39

 Zero-point correction=                           0.160031 (Hartree/Particle)
 Thermal correction to Energy=                    0.168026
 Thermal correction to Enthalpy=                  0.168970
 Thermal correction to Gibbs Free Energy=         0.127947
 Sum of electronic and zero-point Energies=           -422.989069
 Sum of electronic and thermal Energies=              -422.981074
 Sum of electronic and thermal Enthalpies=            -422.980130
 Sum of electronic and thermal Free Energies=         -423.021154

                     E (Thermal)             CV                S
                      KCal/Mol        Cal/Mol-Kelvin    Cal/Mol-Kelvin
 Total                  105.438             32.167             86.341
 Electronic               0.000              0.000              0.000
 Translational            0.889              2.981             40.409
 Rotational               0.889              2.981             28.588
 Vibrational            103.660             26.205             17.345
 Vibration     1          0.614              1.916              2.841
 Vibration     2          0.625              1.880              2.438
 Vibration     3          0.664              1.759              1.715
 Vibration     4          0.670              1.739              1.637
 Vibration     5          0.680              1.710              1.532
 Vibration     6          0.699              1.654              1.362
 Vibration     7          0.761              1.484              0.987
 Vibration     8          0.795              1.395              0.843
 Vibration     9          0.863              1.234              0.640
 Vibration    10          0.898              1.154              0.558

 Optimization completed.
    -- Stationary point found.
 Normal termination of Gaussian 09 at Mon Jan 27 23:04:47 2020.
