 Gaussian 09, Revision D.01,
 Gaussian 09:  ES64L-G09RevD.01 24-Apr-2013

 -----------------------------
 # b3lyp 6-31G(2df,p) opt Freq
 -----------------------------

 -----
 titel
 -----
 Symbolic Z-matrix:
 Charge =  0 Multiplicity = 1

 SCF Done:  E(RB3LYP) =  -423.158069671     A.U. after   14 cycles
 Optimization completed.
    -- Stationary point found.
 Normal termination of Gaussian 09 at Tue Jan 28 13:32:03 2020.

 ----------------------------------------------------------------------
 #N Geom=AllCheck Guess=TCheck SCRF=Check GenChk RB3LYP/6-31G(2df,p) Fr
 eq
 ----------------------------------------------------------------------

 Structure from the checkpoint file:  "/scratch/puck/g09_9241d1b9-b1ad-40d2-b031-a09e3c2cb147/Gau-31631.chk"
 -----
 titel
 -----
 Charge =  0 Multiplicity = 1

                         Standard orientation:
 ---------------------------------------------------------------------
 Center     Atomic      Atomic             Coordinates (Angstroms)
 Number     Number       Type             X           Y           Z
 ---------------------------------------------------------------------
      1          8           0        2.962115   -1.360858   -0.076693
      2          6           0        2.524526   -0.026115    0.111531
      3          6           0        1.151325    0.241434   -0.493704
      4          6           0        0.601331    1.675927   -0.183357
      5          6           0       -0.550360    1.041919    0.603698
      6          6           0       -1.337212    0.115777   -0.311805
      7          6           0       -2.563133   -0.470530    0.272539
      8          8           0       -3.569229   -0.722619   -0.342839
      9          6           0       -0.026901   -0.344767    0.306265
     10          1           0        2.374399   -1.942020    0.416075
     11          1           0        2.522069    0.251187    1.178765
     12          1           0        3.269240    0.604990   -0.385937
     13          1           0        1.168638   -0.045589   -1.550051
     14          1           0        1.285786    2.242164    0.454632
     15          1           0        0.320651    2.299068   -1.036913
     16          1           0       -0.996233    1.430405    1.511698
     17          1           0       -1.393528    0.320016   -1.378103
     18          1           0       -2.492085   -0.673250    1.368899
     19          1           0        0.000533   -1.221022    0.946187
 ---------------------------------------------------------------------

 SCF Done:  E(RB3LYP) =  -423.158069671     A.U. after    1 cycles

 The electronic state is 1-A.
 Alpha  occ. eigenvalues --  -19.14279 -19.13316 -10.27042 -10.23618 -10.21735
 Alpha  occ. eigenvalues --  -10.21682 -10.20929 -10.20473 -10.20282  -1.04141
 Alpha  occ. eigenvalues --   -1.02420  -0.92006  -0.77674  -0.70330  -0.65818
 Alpha  occ. eigenvalues --   -0.62580  -0.58333  -0.54874  -0.52193  -0.50857
 Alpha  occ. eigenvalues --   -0.48177  -0.45494  -0.43482  -0.42414  -0.41812
 Alpha  occ. eigenvalues --   -0.40136  -0.38963  -0.36109  -0.34669  -0.32824
 Alpha  occ. eigenvalues --   -0.29850  -0.28964  -0.27326  -0.25057
 Alpha virt. eigenvalues --   -0.02076   0.05892   0.09167   0.09406   0.10703
 Alpha virt. eigenvalues --    0.11216   0.13055   0.13434   0.14550   0.15887
 Alpha virt. eigenvalues --    0.16363   0.17675   0.18899   0.20360   0.22411

 Mulliken charges:
               1
     1  O   -0.419147
     2  C   -0.085153
     3  C   -0.009742
     4  C   -0.277921
     5  C   -0.054285
     6  C   -0.113676
     7  C    0.153342
     8  O   -0.270275
     9  C   -0.071135
    10  H    0.284685
    11  H    0.086255
    12  H    0.115183
    13  H    0.086836
    14  H    0.113004
    15  H    0.109835
    16  H    0.099562
    17  H    0.102159
    18  H    0.063210
    19  H    0.087262
 Sum of Mulliken charges =   0.00000

 Dipole moment (field-independent basis, Debye):
    X=              1.8739    Y=              1.3062    Z=              1.7274  Tot=              2.8639
 Quadrupole moment (field-independent basis, Debye-Ang):
   XX=            -73.1675   YY=            -51.5021   ZZ=            -51.5166
   XY=             -0.0392   XZ=             -1.6283   YZ=             -2.5848

  Exact polarizability:  97.451   6.133  71.117   0.913  -1.115  66.468
 Approx polarizability: 131.243   8.347 107.476   6.797   1.286 105.414

                      1                      2                      3
                      A                      A                      A
 Frequencies --     82.1109               107.8402               145.1622
 Red. masses --      7.3716                 3.5304                 2.6329
 Frc consts  --      0.0293                 0.0242                 0.0327
 IR Inten    --      5.4545                 1.6237                 5.5151

                      4                      5                      6
                      A                      A                      A
 Frequencies --    177.3701               231.5018               271.6118
 Red. masses --      3.5346                 1.9313                 1.6945
 Frc consts  --      0.0655                 0.0610                 0.0737
 IR Inten    --      1.6933                14.4250                37.6239

                      7                      8                      9
                      A                      A                      A
 Frequencies --    298.3398               379.6605               413.7625
 Red. masses --      1.7012                 4.5143                 2.1688
 Frc consts  --      0.0892                 0.3834                 0.2188
 IR Inten    --     66.3992                 2.2594                 7.5896

                     10                     11                     12
                      A                      A                      A
 Frequencies --    458.6729               528.1296               718.0018
 Red. masses --      4.6853                 3.8519                 2.7647
 Frc consts  --      0.5808                 0.6330                 0.8398
 IR Inten    --      7.0164                15.4636                 6.4861

                     13                     14                     15
                      A                      A                      A
 Frequencies --    829.9449               852.1740               868.1752
 Red. masses --      1.8465                 2.5210                 1.7078
 Frc consts  --      0.7494                 1.0786                 0.7584
 IR Inten    --     14.8122                 8.1045                 2.6315

                     16                     17                     18
                      A                      A                      A
 Frequencies --    877.5374               951.3281               982.6740
 Red. masses --      2.1563                 2.1387                 1.8814
 Frc consts  --      0.9784                 1.1404                 1.0704
 IR Inten    --      0.5612                 1.6987                 5.9994

                     19                     20                     21
                      A                      A                      A
 Frequencies --    992.9354              1008.3110              1051.9166
 Red. masses --      2.5818                 1.4156                 1.8192
 Frc consts  --      1.4997                 0.8480                 1.1860
 IR Inten    --     25.4015                 0.9830                24.7186

                     22                     23                     24
                      A                      A                      A
 Frequencies --   1059.5820              1067.1004              1089.3760
 Red. masses --      1.7863                 1.5918                 2.5787
 Frc consts  --      1.1816                 1.0679                 1.8030
 IR Inten    --     68.5359                 2.8449                40.7211

                     25                     26                     27
                      A                      A                      A
 Frequencies --   1120.8077              1128.0812              1165.3033
 Red. masses --      2.0562                 1.8259                 1.5518
 Frc consts  --      1.5219                 1.3690                 1.2416
 IR Inten    --     61.1885                 7.7696                 0.7496

                     28                     29                     30
                      A                      A                      A
 Frequencies --   1188.3938              1209.4953              1234.3719
 Red. masses --      1.3141                 1.4564                 1.5706
 Frc consts  --      1.0935                 1.2553                 1.4100
 IR Inten    --     14.3990                22.5246                 0.0801

                     31                     32                     33
                      A                      A                      A
 Frequencies --   1257.0265              1275.7601              1279.2349
 Red. masses --      1.4239                 1.5505                 1.5192
 Frc consts  --      1.3256                 1.4868                 1.4648
 IR Inten    --      0.3720                 2.3269                 3.7767

                     34                     35                     36
                      A                      A                      A
 Frequencies --   1346.9441              1373.6344              1392.4544
 Red. masses --      1.5326                 2.2003                 1.2179
 Frc consts  --      1.6383                 2.4461                 1.3913
 IR Inten    --      2.1235                 6.8170                 6.8510

                     37                     38                     39
                      A                      A                      A
 Frequencies --   1416.7401              1444.6191              1488.6209
 Red. masses --      1.2974                 1.3545                 1.1054
 Frc consts  --      1.5343                 1.6654                 1.4432
 IR Inten    --     60.1118                 5.5264                 1.3007

                     40                     41                     42
                      A                      A                      A
 Frequencies --   1500.9923              1823.7096              2835.4343
 Red. masses --      1.0879                10.0543                 1.0807
 Frc consts  --      1.4441                19.7022                 5.1190
 IR Inten    --      1.1569               289.6017                98.9292

                     43                     44                     45
                      A                      A                      A
 Frequencies --   2968.5594              3052.9740              3056.4530
 Red. masses --      1.0697                 1.0687                 1.0738
 Frc consts  --      5.5540                 5.8687                 5.9104
 IR Inten    --     45.2007                37.9115                12.9325

                     46                     47                     48
                      A                      A                      A
 Frequencies --   3071.5097              3105.4203              3145.3804
 Red. masses --      1.0934                 1.1079                 1.0899
 Frc consts  --      6.0775                 6.2948                 6.3530
 IR Inten    --     46.2428                20.9428                 8.5661

                     49                     50                     51
                      A                      A                      A
 Frequencies --   3156.2665              3182.3130              3820.5479
 Red. masses --      1.0895                 1.0943                 1.0661
 Frc consts  --      6.3949                 6.5296                 9.1687
 IR Inten    --     17.4573                12.5113                12.7731

 - Thermochemistry -
 -------------------
 Temperature   298.150 Kelvin.  Pressure   1.00000 Atm.
 Atom     1 has atomic number  8 and mass  15.99491

 Molecular mass:   126.06808 amu.
 Principal axes and moments of inertia in atomic units:
                           1         2         3
     Eigenvalues --   477.647612160.795452457.28124
           X            0.99999   0.00309  -0.00326
           Y           -0.00319   0.99960  -0.02820
           Z            0.00317   0.02821   0.99960
 This molecule is an asymmetric top.
 Rotational symmetry number  1.
 Warning -- assumption of classical behavior for rotation
           may cause significant error
 Rotational temperatures (Kelvin)      0.18133     0.04008     0.03525
 Rotational constants (GHZ):           3.77839     0.83522     0.73445
 Zero-point vibrational energy     415608.2 (Joules/Mol)
                                   99.33275 (Kcal/Mol)
 Warning -- explicit consideration of  11 degrees of freedom as
           vibrations may cause significant error
 Vibrational temperatures:    118.14   155.16   208.86   255.20   333.08
          (Kelvin)            390.79   429.24   546.25   595.31   659.93
                              759.86  1033.04  1194.10  1226.09  1249.11
                             1262.58  1368.75  1413.85  1428.61  1450.73
                             1513.47  1524.50  1535.32  1567.37  1612.59
                             1623.06  1676.61  1709.83  1740.19  1775.98
                             1808.58  1835.53  1840.53  1937.95  1976.35
                             2003.43  2038.37  2078.48  2141.79  2159.59
                             2623.91  4079.55  4271.09  4392.54  4397.55
                             4419.21  4468.00  4525.50  4541.16  4578.63
                             5496.91

 Zero-point correction=                           0.158297 (Hartree/Particle)
 Thermal correction to Energy=                    0.167177
 Thermal correction to Enthalpy=                  0.168122
 Thermal correction to Gibbs Free Energy=         0.124273
 Sum of electronic and zero-point Energies=           -422.999773
 Sum of electronic and thermal Energies=              -422.990892
 Sum of electronic and thermal Enthalpies=            -422.989948
 Sum of electronic and thermal Free Energies=         -423.033797

                     E (Thermal)             CV                S
                      KCal/Mol        Cal/Mol-Kelvin    Cal/Mol-Kelvin
 Total                  104.905             32.739             92.288
 Electronic               0.000              0.000              0.000
 Translational            0.889              2.981             40.409
 Rotational               0.889              2.981             29.318
 Vibrational            103.128             26.777             22.561
 Vibration     1          0.600              1.961              3.840
 Vibration     2          0.606              1.943              3.307
 Vibration     3          0.617              1.908              2.735
 Vibration     4          0.628              1.870              2.356
 Vibration     5          0.653              1.793              1.867
 Vibration     6          0.675              1.726              1.586
 Vibration     7          0.691              1.677              1.426
 Vibration     8          0.750              1.514              1.041
 Vibration     9          0.777              1.440              0.913
 Vibration    10          0.817              1.342              0.770
 Vibration    11          0.883              1.188              0.591

 Optimization completed.
    -- Stationary point found.
 Normal termination of Gaussian 09 at Tue Jan 28 14:11:30 2020.
