 Gaussian 09, Revision D.01,
 Gaussian 09:  ES64L-G09RevD.01 24-Apr-2013

 -----------------------------
 # b3lyp 6-31G(2df,p) opt Freq
 -----------------------------

 -----
 titel
 -----
 Symbolic Z-matrix:
 Charge =  0 Multiplicity = 1

 SCF Done:  E(RB3LYP) =  -423.156566269     A.U. after   13 cycles
 Optimization completed.
    -- Stationary point found.
 Normal termination of Gaussian 09 at Mon Jan 27 12:02:08 2020.

 ----------------------------------------------------------------------
 #N Geom=AllCheck Guess=TCheck SCRF=Check GenChk RB3LYP/6-31G(2df,p) Fr
 eq
 ----------------------------------------------------------------------

 Structure from the checkpoint file:  "/scratch/puck/g09_3a00421d-d3d9-495d-b554-838d2b83e5de/Gau-24387.chk"
 -----
 titel
 -----
 Charge =  0 Multiplicity = 1

                         Standard orientation:
 ---------------------------------------------------------------------
 Center     Atomic      Atomic             Coordinates (Angstroms)
 Number     Number       Type             X           Y           Z
 ---------------------------------------------------------------------
      1          6           0       -2.422313   -0.236689   -0.476617
      2          6           0       -1.986282    0.134430    0.929938
      3          6           0       -0.969167   -0.123489   -0.159038
      4          6           0       -0.075783   -1.350333   -0.117640
      5          6           0        1.315983   -0.996907    0.384452
      6          8           0        2.196388   -0.401506   -0.578360
      7          6           0        1.712598    0.416134    0.482975
      8          6           0        0.715920    1.489448    0.103821
      9          8           0       -0.335160    1.001551   -0.710730
     10          1           0       -2.834775   -1.224948   -0.650448
     11          1           0       -2.847890    0.549938   -1.088744
     12          1           0       -2.137052    1.163971    1.235084
     13          1           0       -2.107042   -0.596693    1.722359
     14          1           0       -0.520307   -2.115879    0.526167
     15          1           0        0.019477   -1.781539   -1.121396
     16          1           0        1.803677   -1.726925    1.029697
     17          1           0        2.462153    0.719161    1.215902
     18          1           0        0.320103    1.937268    1.030679
     19          1           0        1.206097    2.279718   -0.473923
 ---------------------------------------------------------------------

 SCF Done:  E(RB3LYP) =  -423.156566269     A.U. after    1 cycles

 The electronic state is 1-A.
 Alpha  occ. eigenvalues --  -19.14637 -19.14510 -10.24055 -10.23837 -10.23624
 Alpha  occ. eigenvalues --  -10.23266 -10.19010 -10.18602 -10.18484  -1.07408
 Alpha  occ. eigenvalues --   -1.03810  -0.85408  -0.75291  -0.73144  -0.62922
 Alpha  occ. eigenvalues --   -0.61566  -0.60324  -0.53130  -0.52133  -0.50780
 Alpha  occ. eigenvalues --   -0.46915  -0.45485  -0.45073  -0.42566  -0.41127
 Alpha  occ. eigenvalues --   -0.39268  -0.37355  -0.36137  -0.35053  -0.31782
 Alpha  occ. eigenvalues --   -0.29122  -0.27427  -0.26398  -0.25044
 Alpha virt. eigenvalues --    0.08380   0.09305   0.10227   0.11748   0.12120
 Alpha virt. eigenvalues --    0.13109   0.14104   0.14373   0.15755   0.16151
 Alpha virt. eigenvalues --    0.18004   0.18400   0.19903   0.21023   0.22584

 Mulliken charges:
               1
     1  C   -0.326944
     2  C   -0.327004
     3  C    0.441631
     4  C   -0.296097
     5  C    0.036418
     6  O   -0.246904
     7  C    0.045465
     8  C   -0.127289
     9  O   -0.282634
    10  H    0.112340
    11  H    0.126434
    12  H    0.118629
    13  H    0.110371
    14  H    0.100591
    15  H    0.123692
    16  H    0.092336
    17  H    0.089093
    18  H    0.091004
    19  H    0.118869
 Sum of Mulliken charges =   0.00000

 Dipole moment (field-independent basis, Debye):
    X=             -0.8070    Y=             -0.3344    Z=              2.2121  Tot=              2.3783
 Quadrupole moment (field-independent basis, Debye-Ang):
   XX=            -55.5398   YY=            -49.3615   ZZ=            -54.1127
   XY=              2.5874   XZ=              3.4003   YZ=              0.4746

  Exact polarizability:  82.274   4.056  76.586   2.309   1.515  64.638
 Approx polarizability: 107.110   6.091 111.030  -0.989   2.074 104.388

                      1                      2                      3
                      A                      A                      A
 Frequencies --     93.7915               191.8404               279.6086
 Red. masses --      3.2261                 3.4540                 2.0860
 Frc consts  --      0.0167                 0.0749                 0.0961
 IR Inten    --      1.0058                 1.9807                 0.5402

                      4                      5                      6
                      A                      A                      A
 Frequencies --    297.9445               339.4583               390.7512
 Red. masses --      4.0542                 2.1921                 2.4863
 Frc consts  --      0.2120                 0.1488                 0.2237
 IR Inten    --      1.7308                 1.5291                 7.6844

                      7                      8                      9
                      A                      A                      A
 Frequencies --    421.0493               514.8709               552.3970
 Red. masses --      3.8799                 3.2437                 3.7571
 Frc consts  --      0.4053                 0.5066                 0.6755
 IR Inten    --      4.6211                 1.5561                 7.7858

                     10                     11                     12
                      A                      A                      A
 Frequencies --    682.9752               767.4516               770.9718
 Red. masses --      4.9104                 4.6033                 1.0869
 Frc consts  --      1.3495                 1.5974                 0.3806
 IR Inten    --      5.1105                15.6838                 0.4792

                     13                     14                     15
                      A                      A                      A
 Frequencies --    812.7276               819.2312               866.2795
 Red. masses --      3.0273                 2.4469                 1.9616
 Frc consts  --      1.1781                 0.9676                 0.8673
 IR Inten    --     21.5460                 0.3435                16.5548

                     16                     17                     18
                      A                      A                      A
 Frequencies --    915.6669               929.6001               941.1571
 Red. masses --      3.0165                 1.8391                 1.7514
 Frc consts  --      1.4901                 0.9364                 0.9140
 IR Inten    --      6.9724                 7.6754                 3.9689

                     19                     20                     21
                      A                      A                      A
 Frequencies --    983.3875               992.7504              1033.8692
 Red. masses --      1.9884                 2.7203                 2.4040
 Frc consts  --      1.1329                 1.5796                 1.5140
 IR Inten    --      0.8466                 4.0355                22.3204

                     22                     23                     24
                      A                      A                      A
 Frequencies --   1046.2705              1049.7602              1079.4688
 Red. masses --      1.4098                 1.5871                 1.4522
 Frc consts  --      0.9093                 1.0305                 0.9970
 IR Inten    --      4.1919                 8.7371                 1.1629

                     25                     26                     27
                      A                      A                      A
 Frequencies --   1087.4233              1135.3167              1161.9575
 Red. masses --      2.5785                 2.5870                 1.5387
 Frc consts  --      1.7964                 1.9646                 1.2240
 IR Inten    --     32.0751                33.0485                11.4043

                     28                     29                     30
                      A                      A                      A
 Frequencies --   1188.0177              1218.1738              1275.9919
 Red. masses --      1.2711                 1.6404                 1.3858
 Frc consts  --      1.0570                 1.4342                 1.3294
 IR Inten    --      0.0393                13.0233                 6.2782

                     31                     32                     33
                      A                      A                      A
 Frequencies --   1282.5936              1298.9052              1311.9459
 Red. masses --      1.6215                 1.4503                 1.3708
 Frc consts  --      1.5716                 1.4417                 1.3902
 IR Inten    --      7.6890                35.9204                 2.7095

                     34                     35                     36
                      A                      A                      A
 Frequencies --   1373.8129              1380.4330              1405.7118
 Red. masses --      1.4106                 2.1659                 1.5755
 Frc consts  --      1.5686                 2.4317                 1.8343
 IR Inten    --     11.5084                12.7247                 6.2284

                     37                     38                     39
                      A                      A                      A
 Frequencies --   1451.6395              1468.0351              1476.5280
 Red. masses --      1.0940                 1.1629                 2.2150
 Frc consts  --      1.3582                 1.4766                 2.8451
 IR Inten    --      2.1514                 5.5914                21.3087

                     40                     41                     42
                      A                      A                      A
 Frequencies --   1482.4062              1498.7564              2973.0141
 Red. masses --      1.1640                 1.5009                 1.0692
 Frc consts  --      1.5071                 1.9864                 5.5683
 IR Inten    --      1.1497                10.6490                47.1337

                     43                     44                     45
                      A                      A                      A
 Frequencies --   3035.5335              3077.0008              3082.5600
 Red. masses --      1.0615                 1.0920                 1.1004
 Frc consts  --      5.7629                 6.0915                 6.1605
 IR Inten    --     18.8295                24.1886                12.2600

                     46                     47                     48
                      A                      A                      A
 Frequencies --   3097.0652              3115.4518              3130.4286
 Red. masses --      1.0861                 1.0916                 1.0521
 Frc consts  --      6.1380                 6.2425                 6.0745
 IR Inten    --     32.9907                48.4245                13.8667

                     49                     50                     51
                      A                      A                      A
 Frequencies --   3136.6417              3215.2428              3230.3825
 Red. masses --      1.0572                 1.1179                 1.1156
 Frc consts  --      6.1284                 6.8091                 6.8591
 IR Inten    --      7.8195                 1.5181                10.4867

 - Thermochemistry -
 -------------------
 Temperature   298.150 Kelvin.  Pressure   1.00000 Atm.
 Atom     1 has atomic number  6 and mass  12.00000

 Molecular mass:   126.06808 amu.
 Principal axes and moments of inertia in atomic units:
                           1         2         3
     Eigenvalues --   532.298821249.132471473.62679
           X            0.99977   0.01839   0.01111
           Y           -0.01866   0.99954   0.02402
           Z           -0.01066  -0.02422   0.99965
 This molecule is an asymmetric top.
 Rotational symmetry number  1.
 Warning -- assumption of classical behavior for rotation
           may cause significant error
 Rotational temperatures (Kelvin)      0.16272     0.06934     0.05878
 Rotational constants (GHZ):           3.39047     1.44480     1.22469
 Zero-point vibrational energy     420871.7 (Joules/Mol)
                                  100.59074 (Kcal/Mol)
 Warning -- explicit consideration of   9 degrees of freedom as
           vibrations may cause significant error
 Vibrational temperatures:    134.94   276.02   402.29   428.68   488.40
          (Kelvin)            562.20   605.80   740.78   794.78   982.65
                             1104.19  1109.26  1169.33  1178.69  1246.38
                             1317.44  1337.49  1354.11  1414.87  1428.34
                             1487.51  1505.35  1510.37  1553.11  1564.56
                             1633.47  1671.80  1709.29  1752.68  1835.87
                             1845.36  1868.83  1887.60  1976.61  1986.13
                             2022.50  2088.58  2112.17  2124.39  2132.85
                             2156.37  4277.50  4367.45  4427.11  4435.11
                             4455.98  4482.43  4503.98  4512.92  4626.01
                             4647.79

 Zero-point correction=                           0.160302 (Hartree/Particle)
 Thermal correction to Energy=                    0.167751
 Thermal correction to Enthalpy=                  0.168695
 Thermal correction to Gibbs Free Energy=         0.128546
 Sum of electronic and zero-point Energies=           -422.996265
 Sum of electronic and thermal Energies=              -422.988815
 Sum of electronic and thermal Enthalpies=            -422.987871
 Sum of electronic and thermal Free Energies=         -423.028020

                     E (Thermal)             CV                S
                      KCal/Mol        Cal/Mol-Kelvin    Cal/Mol-Kelvin
 Total                  105.265             30.074             84.500
 Electronic               0.000              0.000              0.000
 Translational            0.889              2.981             40.409
 Rotational               0.889              2.981             28.373
 Vibrational            103.488             24.113             15.718
 Vibration     1          0.603              1.954              3.579
 Vibration     2          0.634              1.851              2.210
 Vibration     3          0.680              1.711              1.536
 Vibration     4          0.691              1.678              1.428
 Vibration     5          0.719              1.597              1.215
 Vibration     6          0.758              1.490              0.997
 Vibration     7          0.784              1.424              0.888
 Vibration     8          0.870              1.217              0.622
 Vibration     9          0.908              1.134              0.539

 Optimization completed.
    -- Stationary point found.
 Normal termination of Gaussian 09 at Mon Jan 27 12:52:41 2020.
