 Gaussian 09, Revision D.01,
 Gaussian 09:  ES64L-G09RevD.01 24-Apr-2013

 -----------------------------
 # b3lyp 6-31G(2df,p) opt Freq
 -----------------------------

 -----
 titel
 -----
 Symbolic Z-matrix:
 Charge =  0 Multiplicity = 1

 SCF Done:  E(RB3LYP) =  -423.123656033     A.U. after   14 cycles
 Optimization completed.
    -- Stationary point found.
 Normal termination of Gaussian 09 at Tue Jan 28 08:59:40 2020.

 ----------------------------------------------------------------------
 #N Geom=AllCheck Guess=TCheck SCRF=Check GenChk RB3LYP/6-31G(2df,p) Fr
 eq
 ----------------------------------------------------------------------

 Structure from the checkpoint file:  "/scratch/puck/g09_a9581ade-888d-4c72-8b3a-e2df6fca0c33/Gau-15826.chk"
 -----
 titel
 -----
 Charge =  0 Multiplicity = 1

                         Standard orientation:
 ---------------------------------------------------------------------
 Center     Atomic      Atomic             Coordinates (Angstroms)
 Number     Number       Type             X           Y           Z
 ---------------------------------------------------------------------
      1          8           0       -2.452973   -0.638981   -0.427553
      2          6           0       -1.517078   -0.495805    0.633039
      3          6           0       -0.180194    0.091132    0.143699
      4          6           0       -0.449090    1.545279   -0.185393
      5          8           0        0.214830    2.485747    0.178295
      6          6           0        1.169915   -0.275759    0.851158
      7          6           0        1.041951   -1.714304    0.260110
      8          6           0        0.669029   -0.749278   -0.901926
      9          6           0        1.906107    0.092008   -0.475702
     10          1           0       -2.101488   -1.291431   -1.042028
     11          1           0       -1.986108    0.196342    1.341730
     12          1           0       -1.372602   -1.439529    1.170976
     13          1           0       -1.378456    1.696890   -0.776676
     14          1           0        1.462751    0.003176    1.863154
     15          1           0        1.983621   -2.253234    0.131362
     16          1           0        0.275140   -2.379359    0.656583
     17          1           0        0.368662   -1.013934   -1.918127
     18          1           0        2.872215   -0.394712   -0.627988
     19          1           0        1.937565    1.142016   -0.754831
 ---------------------------------------------------------------------

 SCF Done:  E(RB3LYP) =  -423.123656033     A.U. after    1 cycles

 The electronic state is 1-A.
 Alpha  occ. eigenvalues --  -19.14814 -19.13712 -10.26441 -10.23884 -10.22005
 Alpha  occ. eigenvalues --  -10.21257 -10.21032 -10.19899 -10.19219  -1.04350
 Alpha  occ. eigenvalues --   -1.02824  -0.92211  -0.75051  -0.68187  -0.64615
 Alpha  occ. eigenvalues --   -0.63644  -0.60014  -0.53152  -0.50943  -0.50208
 Alpha  occ. eigenvalues --   -0.47735  -0.46724  -0.43640  -0.42798  -0.38933
 Alpha  occ. eigenvalues --   -0.37949  -0.36169  -0.34127  -0.33458  -0.32893
 Alpha  occ. eigenvalues --   -0.32700  -0.31067  -0.28321  -0.23849
 Alpha virt. eigenvalues --   -0.02400   0.05668   0.10542   0.11705   0.12069
 Alpha virt. eigenvalues --    0.13182   0.13578   0.14018   0.14195   0.15618
 Alpha virt. eigenvalues --    0.16098   0.17317   0.20026   0.20248   0.21098

 Mulliken charges:
               1
     1  O   -0.414897
     2  C   -0.175930
     3  C    0.253226
     4  C    0.080594
     5  O   -0.261712
     6  C   -0.092193
     7  C   -0.241309
     8  C   -0.102034
     9  C   -0.228175
    10  H    0.287980
    11  H    0.122160
    12  H    0.105761
    13  H    0.095396
    14  H    0.084428
    15  H    0.099573
    16  H    0.093651
    17  H    0.074434
    18  H    0.092124
    19  H    0.126923
 Sum of Mulliken charges =   0.00000

 Dipole moment (field-independent basis, Debye):
    X=              0.4591    Y=             -3.0434    Z=             -0.4809  Tot=              3.1152
 Quadrupole moment (field-independent basis, Debye-Ang):
   XX=            -57.0976   YY=            -58.5336   ZZ=            -50.6433
   XY=             -1.2804   XZ=             -0.5127   YZ=              0.0706

  Exact polarizability:  81.389  -1.327  79.789   0.696   0.457  65.812
 Approx polarizability: 115.722   3.289 120.824   3.655   4.720 104.876

                      1                      2                      3
                      A                      A                      A
 Frequencies --     81.6853               103.0140               159.6089
 Red. masses --      3.6393                 3.6510                 3.1350
 Frc consts  --      0.0143                 0.0228                 0.0471
 IR Inten    --      2.6140                 2.9791                 1.9482

                      4                      5                      6
                      A                      A                      A
 Frequencies --    206.5582               306.4474               321.4442
 Red. masses --      5.8172                 2.5447                 1.2273
 Frc consts  --      0.1462                 0.1408                 0.0747
 IR Inten    --      4.5997                10.8269                87.9208

                      7                      8                      9
                      A                      A                      A
 Frequencies --    369.6092               403.1655               457.7199
 Red. masses --      2.0969                 4.7950                 3.2508
 Frc consts  --      0.1688                 0.4592                 0.4013
 IR Inten    --     11.3240                10.1136                 0.3476

                     10                     11                     12
                      A                      A                      A
 Frequencies --    586.6591               629.6515               710.0494
 Red. masses --      2.0221                 3.4040                 3.4746
 Frc consts  --      0.4100                 0.7951                 1.0321
 IR Inten    --      0.2731                 8.6386                20.2737

                     13                     14                     15
                      A                      A                      A
 Frequencies --    801.5295               803.2527               867.7421
 Red. masses --      2.8527                 3.0989                 2.2050
 Frc consts  --      1.0798                 1.1780                 0.9782
 IR Inten    --      1.1882                 2.2673                10.9390

                     16                     17                     18
                      A                      A                      A
 Frequencies --    895.6588               898.5190               942.5638
 Red. masses --      2.0954                 2.7573                 1.8085
 Frc consts  --      0.9904                 1.3116                 0.9466
 IR Inten    --      0.2844                 2.6268                11.2745

                     19                     20                     21
                      A                      A                      A
 Frequencies --   1000.3798              1015.0637              1018.8747
 Red. masses --      1.5134                 1.1200                 1.4271
 Frc consts  --      0.8923                 0.6799                 0.8729
 IR Inten    --      2.5049                 0.0913                 6.5082

                     22                     23                     24
                      A                      A                      A
 Frequencies --   1044.9619              1073.1960              1079.0380
 Red. masses --      2.5885                 2.5623                 1.5806
 Frc consts  --      1.6653                 1.7387                 1.0843
 IR Inten    --     60.2458                40.0548                 2.7990

                     25                     26                     27
                      A                      A                      A
 Frequencies --   1094.0685              1112.4287              1157.8033
 Red. masses --      1.4325                 1.8149                 1.7410
 Frc consts  --      1.0102                 1.3233                 1.3751
 IR Inten    --      0.4340                 0.0589                15.7176

                     28                     29                     30
                      A                      A                      A
 Frequencies --   1179.4447              1184.1137              1195.2027
 Red. masses --      2.3625                 1.6232                 1.3828
 Frc consts  --      1.9363                 1.3410                 1.1638
 IR Inten    --      3.7273                 1.0133                 0.2376

                     31                     32                     33
                      A                      A                      A
 Frequencies --   1233.2192              1239.5356              1249.9492
 Red. masses --      1.6484                 1.5397                 1.7983
 Frc consts  --      1.4770                 1.3938                 1.6553
 IR Inten    --     11.9831                 4.1201                 2.1870

                     34                     35                     36
                      A                      A                      A
 Frequencies --   1292.1053              1378.3703              1413.3971
 Red. masses --      2.2050                 1.2998                 1.2147
 Frc consts  --      2.1690                 1.4550                 1.4298
 IR Inten    --     19.0439                 1.6327                47.8551

                     37                     38                     39
                      A                      A                      A
 Frequencies --   1421.3259              1498.2998              1523.1804
 Red. masses --      1.2120                 1.0872                 1.0911
 Frc consts  --      1.4426                 1.4380                 1.4914
 IR Inten    --     15.5710                 1.7737                 4.2450

                     40                     41                     42
                      A                      A                      A
 Frequencies --   1554.6971              1813.2438              2898.4352
 Red. masses --      1.1167                10.3738                 1.0828
 Frc consts  --      1.5903                20.0955                 5.3595
 IR Inten    --      1.3164               141.3851                88.4536

                     43                     44                     45
                      A                      A                      A
 Frequencies --   3031.4120              3065.9619              3073.3861
 Red. masses --      1.0588                 1.0938                 1.0686
 Frc consts  --      5.7328                 6.0578                 5.9470
 IR Inten    --     26.6072                 8.0684                41.9707

                     46                     47                     48
                      A                      A                      A
 Frequencies --   3074.4981              3089.0762              3118.6379
 Red. masses --      1.0672                 1.0858                 1.0922
 Frc consts  --      5.9434                 6.1046                 6.2590
 IR Inten    --     52.4499                67.5692                37.1475

                     49                     50                     51
                      A                      A                      A
 Frequencies --   3137.4103              3174.1841              3815.3765
 Red. masses --      1.1054                 1.1026                 1.0661
 Frc consts  --      6.4110                 6.5452                 9.1441
 IR Inten    --     39.1252                12.5047                14.9514

 - Thermochemistry -
 -------------------
 Temperature   298.150 Kelvin.  Pressure   1.00000 Atm.
 Atom     1 has atomic number  8 and mass  15.99491

 Molecular mass:   126.06808 amu.
 Principal axes and moments of inertia in atomic units:
                           1         2         3
     Eigenvalues --   871.658681003.598221558.33754
           X            0.99759  -0.06882  -0.00920
           Y            0.06871   0.99756  -0.01206
           Z            0.01001   0.01140   0.99988
 This molecule is an asymmetric top.
 Rotational symmetry number  1.
 Warning -- assumption of classical behavior for rotation
           may cause significant error
 Rotational temperatures (Kelvin)      0.09937     0.08630     0.05558
 Rotational constants (GHZ):           2.07047     1.79827     1.15812
 Zero-point vibrational energy     417467.7 (Joules/Mol)
                                   99.77718 (Kcal/Mol)
 Warning -- explicit consideration of  10 degrees of freedom as
           vibrations may cause significant error
 Vibrational temperatures:    117.53   148.21   229.64   297.19   440.91
          (Kelvin)            462.49   531.78   580.06   658.56   844.07
                              905.93  1021.60  1153.22  1155.70  1248.49
                             1288.65  1292.77  1356.14  1439.32  1460.45
                             1465.93  1503.47  1544.09  1552.49  1574.12
                             1600.53  1665.82  1696.96  1703.67  1719.63
                             1774.33  1783.41  1798.40  1859.05  1983.17
                             2033.56  2044.97  2155.72  2191.51  2236.86
                             2608.85  4170.20  4361.52  4411.23  4421.91
                             4423.51  4444.49  4487.02  4514.03  4566.94
                             5489.47

 Zero-point correction=                           0.159005 (Hartree/Particle)
 Thermal correction to Energy=                    0.167421
 Thermal correction to Enthalpy=                  0.168365
 Thermal correction to Gibbs Free Energy=         0.125783
 Sum of electronic and zero-point Energies=           -422.964651
 Sum of electronic and thermal Energies=              -422.956235
 Sum of electronic and thermal Enthalpies=            -422.955291
 Sum of electronic and thermal Free Energies=         -422.997873

                     E (Thermal)             CV                S
                      KCal/Mol        Cal/Mol-Kelvin    Cal/Mol-Kelvin
 Total                  105.058             32.054             89.621
 Electronic               0.000              0.000              0.000
 Translational            0.889              2.981             40.409
 Rotational               0.889              2.981             28.701
 Vibrational            103.281             26.093             20.511
 Vibration     1          0.600              1.962              3.850
 Vibration     2          0.605              1.947              3.396
 Vibration     3          0.621              1.892              2.554
 Vibration     4          0.641              1.831              2.074
 Vibration     5          0.697              1.661              1.381
 Vibration     6          0.707              1.632              1.303
 Vibration     7          0.742              1.535              1.081
 Vibration     8          0.769              1.463              0.951
 Vibration     9          0.816              1.344              0.773
 Vibration    10          0.944              1.060              0.473

 Normal termination of Gaussian 09 at Tue Jan 28 09:44:11 2020.
