 Gaussian 09, Revision D.01,
 Gaussian 09:  ES64L-G09RevD.01 24-Apr-2013

 -----------------------------
 # b3lyp 6-31G(2df,p) opt Freq
 -----------------------------

 -----
 titel
 -----
 Symbolic Z-matrix:
 Charge =  0 Multiplicity = 1

 SCF Done:  E(RB3LYP) =  -423.153343941     A.U. after   14 cycles
 Optimization completed.
    -- Stationary point found.
 Normal termination of Gaussian 09 at Mon Jan 27 13:58:19 2020.

 ----------------------------------------------------------------------
 #N Geom=AllCheck Guess=TCheck SCRF=Check GenChk RB3LYP/6-31G(2df,p) Fr
 eq
 ----------------------------------------------------------------------

 Structure from the checkpoint file:  "/scratch/puck/g09_869fd509-9355-4931-b37c-6d9cdfefa393/Gau-76756.chk"
 -----
 titel
 -----
 Charge =  0 Multiplicity = 1

                         Standard orientation:
 ---------------------------------------------------------------------
 Center     Atomic      Atomic             Coordinates (Angstroms)
 Number     Number       Type             X           Y           Z
 ---------------------------------------------------------------------
      1          6           0       -4.503538    0.059110   -0.354430
      2          6           0       -3.100545   -0.121613   -0.013937
      3          6           0       -1.938880   -0.264860    0.264372
      4          6           0       -0.541647   -0.462530    0.615308
      5          8           0        0.261437    0.540192   -0.000922
      6          6           0        1.638336    0.404243    0.292240
      7          6           0        2.332108    1.698350   -0.133836
      8          6           0        2.239750   -0.765048   -0.486365
      9          8           0        3.175084   -1.424647   -0.117332
     10          1           0       -5.119606    0.180028    0.543189
     11          1           0       -4.642233    0.951463   -0.974450
     12          1           0       -4.892449   -0.798058   -0.914670
     13          1           0       -0.413397   -0.420412    1.709979
     14          1           0       -0.215776   -1.468684    0.301678
     15          1           0        1.803456    0.223099    1.365590
     16          1           0        1.885735    2.543084    0.396349
     17          1           0        3.399182    1.649615    0.097029
     18          1           0        2.208176    1.863501   -1.208484
     19          1           0        1.741244   -0.933910   -1.470289
 ---------------------------------------------------------------------

 SCF Done:  E(RB3LYP) =  -423.153343941     A.U. after    1 cycles

 The electronic state is 1-A.
 Alpha  occ. eigenvalues --  -19.15526 -19.14670 -10.27231 -10.25885 -10.24675
 Alpha  occ. eigenvalues --  -10.20838 -10.19073 -10.18352 -10.17438  -1.05763
 Alpha  occ. eigenvalues --   -1.04455  -0.80076  -0.77555  -0.73058  -0.66934
 Alpha  occ. eigenvalues --   -0.65826  -0.58033  -0.51981  -0.50701  -0.48321
 Alpha  occ. eigenvalues --   -0.45922  -0.44878  -0.44224  -0.43064  -0.42998
 Alpha  occ. eigenvalues --   -0.41689  -0.39627  -0.38363  -0.37109  -0.33752
 Alpha  occ. eigenvalues --   -0.29422  -0.26427  -0.25550  -0.24435
 Alpha virt. eigenvalues --   -0.03283   0.03518   0.05660   0.10370   0.10718
 Alpha virt. eigenvalues --    0.12177   0.12228   0.15254   0.15779   0.16479
 Alpha virt. eigenvalues --    0.17132   0.17534   0.18802   0.19398   0.20388

 Mulliken charges:
               1
     1  C   -0.498798
     2  C    0.131980
     3  C    0.010534
     4  C   -0.224828
     5  O   -0.254613
     6  C    0.071742
     7  C   -0.414736
     8  C    0.131347
     9  O   -0.239251
    10  H    0.150875
    11  H    0.155190
    12  H    0.150887
    13  H    0.122180
    14  H    0.123178
    15  H    0.089362
    16  H    0.136513
    17  H    0.137180
    18  H    0.133328
    19  H    0.087929
 Sum of Mulliken charges =   0.00000

 Dipole moment (field-independent basis, Debye):
    X=             -2.1347    Y=              1.0268    Z=              0.1257  Tot=              2.3721
 Quadrupole moment (field-independent basis, Debye-Ang):
   XX=            -51.1534   YY=            -55.1819   ZZ=            -51.5875
   XY=              6.5301   XZ=              0.7216   YZ=              0.1716

  Exact polarizability: 118.714  -3.578  67.634   7.684  -0.214  63.288
 Approx polarizability: 157.069 -12.894  96.584  16.857  -3.274  94.705

                      1                      2                      3
                      A                      A                      A
 Frequencies --     31.6533                36.1597                54.7040
 Red. masses --      1.0706                 3.5869                 5.0295
 Frc consts  --      0.0006                 0.0028                 0.0089
 IR Inten    --      0.0163                 0.1487                 4.4754

                      4                      5                      6
                      A                      A                      A
 Frequencies --     82.5214               129.3806               201.4330
 Red. masses --      3.5974                 3.0775                 2.6309
 Frc consts  --      0.0144                 0.0304                 0.0629
 IR Inten    --      3.8145                 2.4676                 9.7252

                      7                      8                      9
                      A                      A                      A
 Frequencies --    214.3907               221.2876               273.5669
 Red. masses --      1.5069                 1.7357                 2.6829
 Frc consts  --      0.0408                 0.0501                 0.1183
 IR Inten    --      0.2805                 2.6895                 4.2181

                     10                     11                     12
                      A                      A                      A
 Frequencies --    329.0817               363.0374               381.3192
 Red. masses --      3.9148                 3.3059                 4.1154
 Frc consts  --      0.2498                 0.2567                 0.3526
 IR Inten    --      2.9619                11.2463                 5.5587

                     13                     14                     15
                      A                      A                      A
 Frequencies --    425.0729               472.4767               591.0709
 Red. masses --      3.3591                 6.3684                 4.8801
 Frc consts  --      0.3576                 0.8376                 1.0045
 IR Inten    --      0.3906                 0.5280                 0.9373

                     16                     17                     18
                      A                      A                      A
 Frequencies --    793.2616               884.2461               914.0240
 Red. masses --      3.6241                 1.6256                 1.8980
 Frc consts  --      1.3437                 0.7489                 0.9342
 IR Inten    --      2.6036                15.4357                 3.0598

                     19                     20                     21
                      A                      A                      A
 Frequencies --    952.1773              1025.5165              1051.3333
 Red. masses --      2.7119                 1.6238                 1.4238
 Frc consts  --      1.4487                 1.0062                 0.9272
 IR Inten    --      9.3644                 4.5605                 3.0769

                     22                     23                     24
                      A                      A                      A
 Frequencies --   1057.3346              1064.2981              1115.4908
 Red. masses --      1.4759                 3.2036                 3.8117
 Frc consts  --      0.9721                 2.1380                 2.7945
 IR Inten    --      4.0760                45.1163               143.9642

                     25                     26                     27
                      A                      A                      A
 Frequencies --   1154.1262              1158.6749              1184.0175
 Red. masses --      2.5800                 2.2712                 3.3557
 Frc consts  --      2.0248                 1.7965                 2.7717
 IR Inten    --     17.0813                45.6006                28.9194

                     28                     29                     30
                      A                      A                      A
 Frequencies --   1256.6929              1307.6577              1335.5649
 Red. masses --      1.0636                 1.3824                 1.2183
 Frc consts  --      0.9897                 1.3927                 1.2804
 IR Inten    --      2.6135                15.3351                58.1943

                     31                     32                     33
                      A                      A                      A
 Frequencies --   1390.7466              1400.9637              1413.9412
 Red. masses --      1.2327                 1.2378                 1.2641
 Frc consts  --      1.4048                 1.4314                 1.4890
 IR Inten    --      8.8958                30.0372                 6.6656

                     34                     35                     36
                      A                      A                      A
 Frequencies --   1429.5169              1475.9171              1478.4976
 Red. masses --      1.4058                 1.0392                 1.0401
 Frc consts  --      1.6926                 1.3337                 1.3396
 IR Inten    --     35.8821                 5.8661                 5.6965

                     37                     38                     39
                      A                      A                      A
 Frequencies --   1482.5286              1497.5368              1500.8065
 Red. masses --      1.0474                 1.0545                 1.0762
 Frc consts  --      1.3563                 1.3933                 1.4282
 IR Inten    --      5.5122                 1.3239                 1.3715

                     40                     41                     42
                      A                      A                      A
 Frequencies --   1838.1510              2380.9303              2861.1481
 Red. masses --     10.6282                11.8504                 1.0830
 Frc consts  --     21.1579                39.5802                 5.2236
 IR Inten    --    146.4437                23.7763                84.8225

                     43                     44                     45
                      A                      A                      A
 Frequencies --   2956.1617              2976.4567              2993.9451
 Red. masses --      1.0553                 1.1024                 1.0834
 Frc consts  --      5.4333                 5.7543                 5.7216
 IR Inten    --     34.2559                38.5055                30.1243

                     46                     47                     48
                      A                      A                      A
 Frequencies --   3029.7892              3047.2427              3091.5395
 Red. masses --      1.0348                 1.0339                 1.1005
 Frc consts  --      5.5964                 5.6566                 6.1972
 IR Inten    --     26.8434                11.9774                 9.3616

                     49                     50                     51
                      A                      A                      A
 Frequencies --   3092.9468              3123.1277              3135.9747
 Red. masses --      1.0999                 1.1017                 1.1031
 Frc consts  --      6.1995                 6.3313                 6.3914
 IR Inten    --      8.1528                15.1570                11.3459

 - Thermochemistry -
 -------------------
 Temperature   298.150 Kelvin.  Pressure   1.00000 Atm.
 Atom     1 has atomic number  6 and mass  12.00000

 Molecular mass:   126.06808 amu.
 Principal axes and moments of inertia in atomic units:
                           1         2         3
     Eigenvalues --   441.660353029.772863314.29134
           X            0.99985   0.01675   0.00452
           Y           -0.01671   0.99983  -0.00765
           Z           -0.00465   0.00758   0.99996
 This molecule is an asymmetric top.
 Rotational symmetry number  1.
 Warning -- assumption of classical behavior for rotation
           may cause significant error
 Rotational temperatures (Kelvin)      0.19611     0.02859     0.02613
 Rotational constants (GHZ):           4.08626     0.59567     0.54453
 Zero-point vibrational energy     404693.3 (Joules/Mol)
                                   96.72403 (Kcal/Mol)
 Warning -- explicit consideration of  15 degrees of freedom as
           vibrations may cause significant error
 Vibrational temperatures:     45.54    52.03    78.71   118.73   186.15
          (Kelvin)            289.82   308.46   318.38   393.60   473.47
                              522.33   548.63   611.58   679.79   850.42
                             1141.33  1272.23  1315.07  1369.97  1475.49
                             1512.63  1521.27  1531.29  1604.94  1660.53
                             1667.07  1703.54  1808.10  1881.43  1921.58
                             2000.97  2015.67  2034.34  2056.75  2123.51
                             2127.23  2133.03  2154.62  2159.32  2644.69
                             3425.62  4116.55  4253.25  4282.45  4307.61
                             4359.19  4384.30  4448.03  4450.05  4493.48
                             4511.96

 Zero-point correction=                           0.154140 (Hartree/Particle)
 Thermal correction to Energy=                    0.165345
 Thermal correction to Enthalpy=                  0.166289
 Thermal correction to Gibbs Free Energy=         0.115285
 Sum of electronic and zero-point Energies=           -422.999204
 Sum of electronic and thermal Energies=              -422.987999
 Sum of electronic and thermal Enthalpies=            -422.987054
 Sum of electronic and thermal Free Energies=         -423.038059

                     E (Thermal)             CV                S
                      KCal/Mol        Cal/Mol-Kelvin    Cal/Mol-Kelvin
 Total                  103.756             37.061            107.348
 Electronic               0.000              0.000              0.000
 Translational            0.889              2.981             40.409
 Rotational               0.889              2.981             29.874
 Vibrational            101.978             31.099             37.066
 Vibration     1          0.594              1.983              5.723
 Vibration     2          0.594              1.982              5.459
 Vibration     3          0.596              1.976              4.640
 Vibration     4          0.600              1.961              3.830
 Vibration     5          0.612              1.924              2.955
 Vibration     6          0.638              1.838              2.120
 Vibration     7          0.644              1.819              2.006
 Vibration     8          0.648              1.809              1.949
 Vibration     9          0.676              1.722              1.574
 Vibration    10          0.712              1.617              1.265
 Vibration    11          0.737              1.548              1.109
 Vibration    12          0.751              1.510              1.034
 Vibration    13          0.787              1.416              0.875
 Vibration    14          0.829              1.311              0.731
 Vibration    15          0.948              1.051              0.465

 Optimization completed.
    -- Stationary point found.
 Normal termination of Gaussian 09 at Mon Jan 27 14:27:55 2020.
