 Gaussian 09, Revision D.01,
 Gaussian 09:  ES64L-G09RevD.01 24-Apr-2013

 -----------------------------
 # b3lyp 6-31G(2df,p) opt Freq
 -----------------------------

 -----
 titel
 -----
 Symbolic Z-matrix:
 Charge =  0 Multiplicity = 1

 SCF Done:  E(RB3LYP) =  -423.138912101     A.U. after   14 cycles
 SCF Done:  E(RB3LYP) =  -423.138912245     A.U. after    8 cycles
 SCF Done:  E(RB3LYP) =  -423.138912359     A.U. after    7 cycles
 SCF Done:  E(RB3LYP) =  -423.138912478     A.U. after    7 cycles
 SCF Done:  E(RB3LYP) =  -423.138912518     A.U. after    6 cycles
 SCF Done:  E(RB3LYP) =  -423.138912537     A.U. after    6 cycles
 SCF Done:  E(RB3LYP) =  -423.138912564     A.U. after    7 cycles
 SCF Done:  E(RB3LYP) =  -423.138912593     A.U. after    7 cycles
 SCF Done:  E(RB3LYP) =  -423.138912626     A.U. after    7 cycles
 SCF Done:  E(RB3LYP) =  -423.138912658     A.U. after    8 cycles
 SCF Done:  E(RB3LYP) =  -423.138912655     A.U. after    8 cycles
 SCF Done:  E(RB3LYP) =  -423.138912606     A.U. after    8 cycles
 SCF Done:  E(RB3LYP) =  -423.138912595     A.U. after    6 cycles
 Optimization completed.
    -- Stationary point found.
 Normal termination of Gaussian 09 at Tue Jan 28 09:39:19 2020.

 ----------------------------------------------------------------------
 #N Geom=AllCheck Guess=TCheck SCRF=Check GenChk RB3LYP/6-31G(2df,p) Fr
 eq
 ----------------------------------------------------------------------

 Structure from the checkpoint file:  "/scratch/puck/g09_f89adcc6-365d-4600-8fb8-2a7ed544eead/Gau-103818.chk"
 -----
 titel
 -----
 Charge =  0 Multiplicity = 1

                         Standard orientation:
 ---------------------------------------------------------------------
 Center     Atomic      Atomic             Coordinates (Angstroms)
 Number     Number       Type             X           Y           Z
 ---------------------------------------------------------------------
      1          6           0       -3.728584    0.193843   -0.043179
      2          6           0       -2.344557   -0.246284   -0.137491
      3          6           0       -1.202043   -0.626115   -0.202801
      4          6           0        0.158607   -1.078971   -0.331537
      5          8           0        0.899198   -1.382203    0.867712
      6          6           0        1.320017   -0.256901    0.089833
      7          6           0        2.640105   -0.394282   -0.628698
      8          6           0        1.043222    1.099960    0.719666
      9          8           0        0.806406    2.089508   -0.269669
     10          1           0       -3.853584    0.941453    0.747371
     11          1           0       -4.065721    0.643629   -0.983443
     12          1           0       -4.395517   -0.645428    0.181941
     13          1           0        0.328055   -1.795230   -1.135635
     14          1           0        3.466503   -0.328925    0.087649
     15          1           0        2.714765   -1.350981   -1.151186
     16          1           0        2.751786    0.420387   -1.350202
     17          1           0        0.205824    1.002755    1.420992
     18          1           0        1.920964    1.434139    1.283430
     19          1           0       -0.038510    1.872272   -0.680028
 ---------------------------------------------------------------------

 SCF Done:  E(RB3LYP) =  -423.138912595     A.U. after    1 cycles

 The electronic state is 1-A.
 Alpha  occ. eigenvalues --  -19.15382 -19.13675 -10.25605 -10.24448 -10.22671
 Alpha  occ. eigenvalues --  -10.21452 -10.19282 -10.18243 -10.18149  -1.07434
 Alpha  occ. eigenvalues --   -1.01661  -0.79132  -0.75916  -0.73530  -0.68781
 Alpha  occ. eigenvalues --   -0.66241  -0.57845  -0.53132  -0.48951  -0.48079
 Alpha  occ. eigenvalues --   -0.46821  -0.44243  -0.43787  -0.43684  -0.42623
 Alpha  occ. eigenvalues --   -0.40169  -0.38353  -0.37895  -0.33818  -0.32598
 Alpha  occ. eigenvalues --   -0.28949  -0.26997  -0.25903  -0.25143
 Alpha virt. eigenvalues --    0.02176   0.03909   0.07349   0.10177   0.11447
 Alpha virt. eigenvalues --    0.12975   0.13820   0.14661   0.16005   0.16324
 Alpha virt. eigenvalues --    0.17302   0.17847   0.19424   0.20486   0.21490

 Mulliken charges:
               1
     1  C   -0.502740
     2  C    0.129756
     3  C    0.054637
     4  C   -0.231329
     5  O   -0.285402
     6  C    0.379560
     7  C   -0.464310
     8  C   -0.139147
     9  O   -0.419476
    10  H    0.156248
    11  H    0.153709
    12  H    0.157313
    13  H    0.109987
    14  H    0.128118
    15  H    0.123073
    16  H    0.140986
    17  H    0.111037
    18  H    0.109252
    19  H    0.288728
 Sum of Mulliken charges =   0.00000

 Dipole moment (field-independent basis, Debye):
    X=             -1.7493    Y=              0.1739    Z=             -1.1186  Tot=              2.0836
 Quadrupole moment (field-independent basis, Debye-Ang):
   XX=            -43.0675   YY=            -58.7427   ZZ=            -53.2693
   XY=             -2.8505   XZ=             -0.0727   YZ=              3.3501

  Exact polarizability: 117.442  -4.806  67.734   0.518   2.628  60.276
 Approx polarizability: 161.195 -11.295 100.945   4.001  -0.772  93.145

                      1                      2                      3
                      A                      A                      A
 Frequencies --     22.3603                44.9270                89.3885
 Red. masses --      1.0226                 4.6359                 3.1944
 Frc consts  --      0.0003                 0.0055                 0.0150
 IR Inten    --      0.0039                 1.0887                 1.3272

                      4                      5                      6
                      A                      A                      A
 Frequencies --    109.3954               193.0495               214.9556
 Red. masses --      3.0773                 1.5554                 2.0143
 Frc consts  --      0.0217                 0.0342                 0.0548
 IR Inten    --      4.3004                 0.7079                 0.4954

                      7                      8                      9
                      A                      A                      A
 Frequencies --    261.5522               278.2290               346.0972
 Red. masses --      2.9061                 3.0825                 2.1442
 Frc consts  --      0.1171                 0.1406                 0.1513
 IR Inten    --      1.4393                 9.5464                 5.3728

                     10                     11                     12
                      A                      A                      A
 Frequencies --    352.0647               389.2831               410.5145
 Red. masses --      2.9019                 4.1695                 1.4065
 Frc consts  --      0.2119                 0.3723                 0.1396
 IR Inten    --      6.6177                11.7092                63.1247

                     13                     14                     15
                      A                      A                      A
 Frequencies --    471.4529               527.7763               562.0248
 Red. masses --      4.6795                 7.3330                 4.2174
 Frc consts  --      0.6128                 1.2035                 0.7849
 IR Inten    --     10.8641                 2.3039                 7.3184

                     16                     17                     18
                      A                      A                      A
 Frequencies --    741.0795               792.3570               855.8147
 Red. masses --      4.2161                 4.1856                 3.7515
 Frc consts  --      1.3642                 1.5483                 1.6189
 IR Inten    --     12.3183                 8.6231                16.9401

                     19                     20                     21
                      A                      A                      A
 Frequencies --    906.1551               949.3778              1031.5874
 Red. masses --      3.1273                 1.5933                 1.6556
 Frc consts  --      1.5130                 0.8461                 1.0381
 IR Inten    --     24.6725                 2.8950                19.3928

                     22                     23                     24
                      A                      A                      A
 Frequencies --   1051.3018              1053.0403              1070.2700
 Red. masses --      1.3961                 1.4099                 3.1197
 Frc consts  --      0.9091                 0.9212                 2.1054
 IR Inten    --      1.8612                 1.6693                69.6026

                     25                     26                     27
                      A                      A                      A
 Frequencies --   1080.0148              1098.6305              1170.5745
 Red. masses --      2.0221                 1.8287                 1.8515
 Frc consts  --      1.3897                 1.3005                 1.4947
 IR Inten    --      5.6946                12.3328                21.7018

                     28                     29                     30
                      A                      A                      A
 Frequencies --   1207.9614              1274.8137              1332.5405
 Red. masses --      1.8762                 2.3321                 1.3959
 Frc consts  --      1.6130                 2.2330                 1.4604
 IR Inten    --     18.1348                16.9675                14.7117

                     31                     32                     33
                      A                      A                      A
 Frequencies --   1378.0496              1404.3172              1413.2398
 Red. masses --      1.3479                 1.3025                 1.2415
 Frc consts  --      1.5081                 1.5135                 1.4609
 IR Inten    --      6.1828                11.1013                11.3974

                     34                     35                     36
                      A                      A                      A
 Frequencies --   1420.2788              1446.4977              1475.1063
 Red. masses --      1.2438                 2.7276                 1.0393
 Frc consts  --      1.4782                 3.3626                 1.3324
 IR Inten    --     30.6553                17.3573                 5.8860

                     37                     38                     39
                      A                      A                      A
 Frequencies --   1477.2125              1482.4814              1495.7774
 Red. masses --      1.0395                 1.0499                 1.1234
 Frc consts  --      1.3365                 1.3595                 1.4809
 IR Inten    --      6.6991                 4.3681                 7.0497

                     40                     41                     42
                      A                      A                      A
 Frequencies --   1502.3106              2361.8944              3029.7417
 Red. masses --      1.1276                11.8446                 1.0560
 Frc consts  --      1.4994                38.9306                 5.7112
 IR Inten    --      0.2998                11.3075                34.6144

                     43                     44                     45
                      A                      A                      A
 Frequencies --   3030.2673              3039.0235              3081.2431
 Red. masses --      1.0368                 1.0366                 1.1057
 Frc consts  --      5.6092                 5.6408                 6.1848
 IR Inten    --     23.2268                16.2514                33.5656

                     46                     47                     48
                      A                      A                      A
 Frequencies --   3092.3303              3094.3670              3104.7949
 Red. masses --      1.1002                 1.1003                 1.0882
 Frc consts  --      6.1986                 6.2076                 6.1803
 IR Inten    --      7.3108                 6.7549                12.9323

                     49                     50                     51
                      A                      A                      A
 Frequencies --   3107.2902              3128.5573              3797.0100
 Red. masses --      1.0965                 1.1025                 1.0660
 Frc consts  --      6.2379                 6.3580                 9.0549
 IR Inten    --     21.9811                15.0908                22.3358

 - Thermochemistry -
 -------------------
 Temperature   298.150 Kelvin.  Pressure   1.00000 Atm.
 Atom     1 has atomic number  6 and mass  12.00000

 Molecular mass:   126.06808 amu.
 Principal axes and moments of inertia in atomic units:
                           1         2         3
     Eigenvalues --   669.660841820.827262231.41614
           X            0.99986  -0.01418  -0.00906
           Y            0.01455   0.99898   0.04273
           Z            0.00844  -0.04285   0.99905
 This molecule is an asymmetric top.
 Rotational symmetry number  1.
 Warning -- assumption of classical behavior for rotation
           may cause significant error
 Rotational temperatures (Kelvin)      0.12934     0.04757     0.03882
 Rotational constants (GHZ):           2.69501     0.99117     0.80879
 Zero-point vibrational energy     408227.9 (Joules/Mol)
                                   97.56882 (Kcal/Mol)
 Warning -- explicit consideration of  15 degrees of freedom as
           vibrations may cause significant error
 Vibrational temperatures:     32.17    64.64   128.61   157.40   277.75
          (Kelvin)            309.27   376.31   400.31   497.96   506.54
                              560.09   590.64   678.31   759.35   808.63
                             1066.25  1140.02  1231.32  1303.75  1365.94
                             1484.22  1512.59  1515.09  1539.88  1553.90
                             1580.68  1684.19  1737.98  1834.17  1917.23
                             1982.70  2020.50  2033.33  2043.46  2081.19
                             2122.35  2125.38  2132.96  2152.09  2161.49
                             3398.24  4359.12  4359.87  4372.47  4433.22
                             4449.17  4452.10  4467.10  4470.69  4501.29
                             5463.04

 Zero-point correction=                           0.155486 (Hartree/Particle)
 Thermal correction to Energy=                    0.166165
 Thermal correction to Enthalpy=                  0.167109
 Thermal correction to Gibbs Free Energy=         0.118020
 Sum of electronic and zero-point Energies=           -422.983427
 Sum of electronic and thermal Energies=              -422.972747
 Sum of electronic and thermal Enthalpies=            -422.971803
 Sum of electronic and thermal Free Energies=         -423.020892

                     E (Thermal)             CV                S
                      KCal/Mol        Cal/Mol-Kelvin    Cal/Mol-Kelvin
 Total                  104.270             37.066            103.317
 Electronic               0.000              0.000              0.000
 Translational            0.889              2.981             40.409
 Rotational               0.889              2.981             29.388
 Vibrational            102.493             31.105             33.520
 Vibration     1          0.593              1.985              6.413
 Vibration     2          0.595              1.979              5.029
 Vibration     3          0.602              1.957              3.673
 Vibration     4          0.606              1.942              3.280
 Vibration     5          0.635              1.850              2.198
 Vibration     6          0.645              1.818              2.001
 Vibration     7          0.669              1.743              1.651
 Vibration     8          0.679              1.714              1.545
 Vibration     9          0.724              1.583              1.184
 Vibration    10          0.729              1.571              1.157
 Vibration    11          0.757              1.493              1.003
 Vibration    12          0.775              1.447              0.925
 Vibration    13          0.828              1.313              0.733
 Vibration    14          0.883              1.189              0.592
 Vibration    15          0.918              1.113              0.520

 Optimization completed.
    -- Stationary point found.
 Normal termination of Gaussian 09 at Tue Jan 28 10:15:09 2020.
