 Gaussian 09, Revision D.01,
 Gaussian 09:  ES64L-G09RevD.01 24-Apr-2013

 -----------------------------
 # b3lyp 6-31G(2df,p) opt Freq
 -----------------------------

 -----
 titel
 -----
 Symbolic Z-matrix:
 Charge =  0 Multiplicity = 1

 SCF Done:  E(RB3LYP) =  -423.136706791     A.U. after   14 cycles
 Optimization completed.
    -- Stationary point found.
 Normal termination of Gaussian 09 at Mon Jan 27 23:07:15 2020.

 ----------------------------------------------------------------------
 #N Geom=AllCheck Guess=TCheck SCRF=Check GenChk RB3LYP/6-31G(2df,p) Fr
 eq
 ----------------------------------------------------------------------

 Structure from the checkpoint file:  "/scratch/puck/g09_0be0e630-3f9a-4b13-9b74-039dd7ac7627/Gau-81803.chk"
 -----
 titel
 -----
 Charge =  0 Multiplicity = 1

                         Standard orientation:
 ---------------------------------------------------------------------
 Center     Atomic      Atomic             Coordinates (Angstroms)
 Number     Number       Type             X           Y           Z
 ---------------------------------------------------------------------
      1          8           0       -0.083011    1.769260    0.565636
      2          6           0        0.995975    1.044824    0.052666
      3          6           0        1.513651   -0.256840    0.766225
      4          6           0        2.221749   -0.570363   -0.579419
      5          6           0        0.789980   -0.107477   -0.974801
      6          6           0        0.283100   -1.028884    0.190629
      7          6           0       -1.115334   -0.890858    0.845701
      8          6           0       -2.185228   -0.568273   -0.170216
      9          8           0       -2.275840    0.506484   -0.724461
     10          1           0       -0.871608    1.581709    0.031461
     11          1           0        1.800916    1.743755   -0.206808
     12          1           0        1.929167   -0.345760    1.771107
     13          1           0        3.042599    0.089846   -0.869422
     14          1           0        2.461875   -1.618314   -0.768900
     15          1           0        0.378040   -0.029896   -1.982193
     16          1           0        0.482281   -2.087870   -0.002562
     17          1           0       -1.366688   -1.822207    1.361395
     18          1           0       -1.101740   -0.076804    1.573736
     19          1           0       -2.907387   -1.373177   -0.421919
 ---------------------------------------------------------------------

 SCF Done:  E(RB3LYP) =  -423.136706791     A.U. after    1 cycles

 The electronic state is 1-A.
 Alpha  occ. eigenvalues --  -19.16041 -19.12005 -10.28813 -10.23169 -10.20813
 Alpha  occ. eigenvalues --  -10.20226 -10.19883 -10.19714 -10.19147  -1.06486
 Alpha  occ. eigenvalues --   -1.01019  -0.90615  -0.77329  -0.65681  -0.64752
 Alpha  occ. eigenvalues --   -0.63105  -0.58278  -0.55439  -0.49949  -0.49303
 Alpha  occ. eigenvalues --   -0.47632  -0.45736  -0.44963  -0.41477  -0.40419
 Alpha  occ. eigenvalues --   -0.39242  -0.35657  -0.35082  -0.32805  -0.32514
 Alpha  occ. eigenvalues --   -0.31467  -0.29365  -0.26547  -0.24905
 Alpha virt. eigenvalues --   -0.04250   0.09148   0.10895   0.12063   0.12534
 Alpha virt. eigenvalues --    0.13333   0.14162   0.14395   0.16254   0.16879
 Alpha virt. eigenvalues --    0.17532   0.18335   0.19326   0.20680   0.22077

 Mulliken charges:
               1
     1  O   -0.465220
     2  C    0.182717
     3  C   -0.100193
     4  C   -0.234706
     5  C   -0.113918
     6  C    0.028683
     7  C   -0.349477
     8  C    0.155659
     9  O   -0.249963
    10  H    0.299822
    11  H    0.069338
    12  H    0.072813
    13  H    0.096803
    14  H    0.095626
    15  H    0.077907
    16  H    0.072429
    17  H    0.101694
    18  H    0.159877
    19  H    0.100107
 Sum of Mulliken charges =   0.00000

 Dipole moment (field-independent basis, Debye):
    X=              0.1502    Y=             -2.9823    Z=              0.0845  Tot=              2.9872
 Quadrupole moment (field-independent basis, Debye-Ang):
   XX=            -51.9719   YY=            -55.4015   ZZ=            -53.9493
   XY=              3.8675   XZ=             -2.3515   YZ=             -1.4219

  Exact polarizability:  87.182   3.051  75.052  -0.033  -2.460  65.791
 Approx polarizability: 116.498   0.399 118.822   2.778  -5.836 105.040

                      1                      2                      3
                      A                      A                      A
 Frequencies --    102.5170               151.0405               154.8304
 Red. masses --      3.5538                 3.0402                 4.2949
 Frc consts  --      0.0220                 0.0409                 0.0607
 IR Inten    --      9.5817                 3.1805                 3.3678

                      4                      5                      6
                      A                      A                      A
 Frequencies --    244.8891               286.7782               381.6127
 Red. masses --      6.8170                 3.0708                 3.4069
 Frc consts  --      0.2409                 0.1488                 0.2923
 IR Inten    --     22.0031                 1.5782                 0.9689

                      7                      8                      9
                      A                      A                      A
 Frequencies --    402.7562               515.7196               563.0950
 Red. masses --      3.6871                 2.7928                 2.1396
 Frc consts  --      0.3524                 0.4376                 0.3997
 IR Inten    --      2.8276                 4.1451                17.8588

                     10                     11                     12
                      A                      A                      A
 Frequencies --    600.0396               661.0089               752.0378
 Red. masses --      1.4311                 2.2081                 3.0689
 Frc consts  --      0.3036                 0.5684                 1.0226
 IR Inten    --     69.6605                28.8681                 1.6607

                     13                     14                     15
                      A                      A                      A
 Frequencies --    788.2646               821.2985               889.3670
 Red. masses --      2.3167                 2.7720                 2.2176
 Frc consts  --      0.8481                 1.1016                 1.0335
 IR Inten    --      1.7603                 6.8010                 2.8552

                     16                     17                     18
                      A                      A                      A
 Frequencies --    896.1803               900.8073               942.5879
 Red. masses --      2.0013                 2.4969                 2.5000
 Frc consts  --      0.9470                 1.1938                 1.3087
 IR Inten    --      3.0117                 2.5721                15.5123

                     19                     20                     21
                      A                      A                      A
 Frequencies --    981.3702              1023.4707              1029.1494
 Red. masses --      1.9539                 1.0641                 1.4016
 Frc consts  --      1.1087                 0.6567                 0.8747
 IR Inten    --      2.7352                 0.7526                 7.9870

                     22                     23                     24
                      A                      A                      A
 Frequencies --   1040.1082              1080.9170              1086.8660
 Red. masses --      2.8948                 1.4718                 1.6554
 Frc consts  --      1.8452                 1.0131                 1.1521
 IR Inten    --     39.7519                 4.2077                 9.7404

                     25                     26                     27
                      A                      A                      A
 Frequencies --   1104.3206              1134.9084              1164.6516
 Red. masses --      1.9730                 3.0434                 1.4073
 Frc consts  --      1.4176                 2.3096                 1.1247
 IR Inten    --      7.6041                 8.6908                14.7849

                     28                     29                     30
                      A                      A                      A
 Frequencies --   1185.9473              1220.4934              1226.9334
 Red. masses --      3.0268                 1.4733                 1.5881
 Frc consts  --      2.5082                 1.2930                 1.4086
 IR Inten    --     63.3910                 1.8717                19.9432

                     31                     32                     33
                      A                      A                      A
 Frequencies --   1235.1618              1242.1284              1283.9829
 Red. masses --      1.4348                 1.4434                 1.9525
 Frc consts  --      1.2897                 1.3121                 1.8966
 IR Inten    --      2.9930                19.1005                29.6538

                     34                     35                     36
                      A                      A                      A
 Frequencies --   1316.6313              1381.4439              1408.8779
 Red. masses --      1.4102                 1.2259                 1.2018
 Frc consts  --      1.4403                 1.3784                 1.4055
 IR Inten    --     15.9136                 8.4725                18.3405

                     37                     38                     39
                      A                      A                      A
 Frequencies --   1428.0720              1449.9195              1483.2468
 Red. masses --      1.2048                 1.1372                 1.1009
 Frc consts  --      1.4477                 1.4086                 1.4270
 IR Inten    --      5.8943                37.5757                 4.9528

                     40                     41                     42
                      A                      A                      A
 Frequencies --   1520.2974              1792.0750              2912.5352
 Red. masses --      1.1316                 9.5827                 1.0847
 Frc consts  --      1.5411                18.1322                 5.4212
 IR Inten    --      6.3212               111.8294               132.8714

                     43                     44                     45
                      A                      A                      A
 Frequencies --   3023.0523              3043.5525              3060.3068
 Red. masses --      1.0845                 1.0828                 1.0605
 Frc consts  --      5.8397                 5.9098                 5.8516
 IR Inten    --     74.8332                22.5118                45.0946

                     46                     47                     48
                      A                      A                      A
 Frequencies --   3062.8061              3100.2817              3106.1796
 Red. masses --      1.0556                 1.0897                 1.0937
 Frc consts  --      5.8342                 6.1713                 6.2170
 IR Inten    --     38.2538                90.5873                 8.2084

                     49                     50                     51
                      A                      A                      A
 Frequencies --   3120.9542              3128.6412              3652.5210
 Red. masses --      1.1025                 1.1109                 1.0676
 Frc consts  --      6.3269                 6.4066                 8.3914
 IR Inten    --      6.7416                35.2461               257.2484

 - Thermochemistry -
 -------------------
 Temperature   298.150 Kelvin.  Pressure   1.00000 Atm.
 Atom     1 has atomic number  8 and mass  15.99491

 Molecular mass:   126.06808 amu.
 Principal axes and moments of inertia in atomic units:
                           1         2         3
     Eigenvalues --   622.834791270.655371477.02338
           X            0.99970   0.01458  -0.01950
           Y           -0.01517   0.99942  -0.03057
           Z            0.01905   0.03085   0.99934
 This molecule is an asymmetric top.
 Rotational symmetry number  1.
 Warning -- assumption of classical behavior for rotation
           may cause significant error
 Rotational temperatures (Kelvin)      0.13906     0.06816     0.05864
 Rotational constants (GHZ):           2.89762     1.42032     1.22188
 Zero-point vibrational energy     419211.2 (Joules/Mol)
                                  100.19387 (Kcal/Mol)
 Warning -- explicit consideration of  10 degrees of freedom as
           vibrations may cause significant error
 Vibrational temperatures:    147.50   217.31   222.77   352.34   412.61
          (Kelvin)            549.05   579.48   742.00   810.17   863.32
                              951.04  1082.01  1134.14  1181.66  1279.60
                             1289.40  1296.06  1356.17  1411.97  1472.54
                             1480.71  1496.48  1555.20  1563.76  1588.87
                             1632.88  1675.67  1706.31  1756.02  1765.28
                             1777.12  1787.14  1847.36  1894.34  1987.59
                             2027.06  2054.67  2086.11  2134.06  2187.37
                             2578.39  4190.48  4349.49  4378.99  4403.09
                             4406.69  4460.61  4469.09  4490.35  4501.41
                             5255.16

 Zero-point correction=                           0.159669 (Hartree/Particle)
 Thermal correction to Energy=                    0.167610
 Thermal correction to Enthalpy=                  0.168554
 Thermal correction to Gibbs Free Energy=         0.127214
 Sum of electronic and zero-point Energies=           -422.977038
 Sum of electronic and thermal Energies=              -422.969097
 Sum of electronic and thermal Enthalpies=            -422.968153
 Sum of electronic and thermal Free Energies=         -423.009493

                     E (Thermal)             CV                S
                      KCal/Mol        Cal/Mol-Kelvin    Cal/Mol-Kelvin
 Total                  105.177             31.004             87.008
 Electronic               0.000              0.000              0.000
 Translational            0.889              2.981             40.409
 Rotational               0.889              2.981             28.549
 Vibrational            103.399             25.042             18.051
 Vibration     1          0.605              1.947              3.406
 Vibration     2          0.618              1.902              2.659
 Vibration     3          0.620              1.897              2.612
 Vibration     4          0.660              1.771              1.767
 Vibration     5          0.684              1.698              1.493
 Vibration     6          0.751              1.509              1.033
 Vibration     7          0.768              1.464              0.953
 Vibration     8          0.871              1.215              0.620
 Vibration     9          0.919              1.111              0.518
 Vibration    10          0.958              1.032              0.450

 Normal termination of Gaussian 09 at Mon Jan 27 23:55:14 2020.
