 Gaussian 09, Revision D.01,
 Gaussian 09:  ES64L-G09RevD.01 24-Apr-2013

 -----------------------------
 # b3lyp 6-31G(2df,p) opt Freq
 -----------------------------

 -----
 titel
 -----
 Symbolic Z-matrix:
 Charge =  0 Multiplicity = 1

 SCF Done:  E(RB3LYP) =  -423.144915471     A.U. after   13 cycles
 Optimization completed.
    -- Stationary point found.
 Normal termination of Gaussian 09 at Mon Jan 27 17:46:51 2020.

 ----------------------------------------------------------------------
 #N Geom=AllCheck Guess=TCheck SCRF=Check GenChk RB3LYP/6-31G(2df,p) Fr
 eq
 ----------------------------------------------------------------------

 Structure from the checkpoint file:  "/scratch/puck/g09_9b047d97-7543-45b7-b741-5d650845f067/Gau-51616.chk"
 -----
 titel
 -----
 Charge =  0 Multiplicity = 1

                         Standard orientation:
 ---------------------------------------------------------------------
 Center     Atomic      Atomic             Coordinates (Angstroms)
 Number     Number       Type             X           Y           Z
 ---------------------------------------------------------------------
      1          8           0       -2.456684    0.556055   -0.327002
      2          6           0       -1.143501    0.241559    0.063629
      3          6           0       -1.093389   -0.821114    1.128706
      4          6           0       -0.629322   -1.129443   -0.284648
      5          8           0        0.710368   -1.401574   -0.580340
      6          6           0        1.645224   -0.360012   -0.559479
      7          6           0        2.114962    0.245127    0.740985
      8          6           0        1.269242    1.056063   -0.225117
      9          6           0       -0.184012    1.421023    0.046531
     10          1           0       -2.436782    0.810331   -1.257028
     11          1           0       -0.353780   -0.737532    1.915833
     12          1           0       -2.046355   -1.237008    1.435375
     13          1           0       -1.280969   -1.761073   -0.880170
     14          1           0        2.385477   -0.528407   -1.335320
     15          1           0        1.656004   -0.112511    1.655092
     16          1           0        3.164045    0.502140    0.842343
     17          1           0        1.808621    1.822755   -0.773231
     18          1           0       -0.283752    2.014321    0.964111
     19          1           0       -0.517204    2.071923   -0.771911
 ---------------------------------------------------------------------

 SCF Done:  E(RB3LYP) =  -423.144915471     A.U. after    1 cycles

 The electronic state is 1-A.
 Alpha  occ. eigenvalues --  -19.14778 -19.14308 -10.23970 -10.23731 -10.23252
 Alpha  occ. eigenvalues --  -10.19621 -10.19272 -10.18201 -10.17772  -1.04600
 Alpha  occ. eigenvalues --   -1.02624  -0.85444  -0.84059  -0.72656  -0.64732
 Alpha  occ. eigenvalues --   -0.59634  -0.58815  -0.54185  -0.52726  -0.50508
 Alpha  occ. eigenvalues --   -0.48110  -0.45024  -0.42902  -0.41486  -0.40372
 Alpha  occ. eigenvalues --   -0.38355  -0.36972  -0.36222  -0.35112  -0.32140
 Alpha  occ. eigenvalues --   -0.29119  -0.28589  -0.25310  -0.21717
 Alpha virt. eigenvalues --    0.07393   0.08063   0.09630   0.11108   0.11570
 Alpha virt. eigenvalues --    0.14132   0.14895   0.15292   0.17208   0.18155
 Alpha virt. eigenvalues --    0.18565   0.20337   0.21353   0.22116   0.23406

 Mulliken charges:
               1
     1  O   -0.460460
     2  C    0.353353
     3  C   -0.351448
     4  C    0.042282
     5  O   -0.257940
     6  C    0.122561
     7  C   -0.326940
     8  C   -0.065709
     9  C   -0.309250
    10  H    0.277172
    11  H    0.118503
    12  H    0.123654
    13  H    0.104216
    14  H    0.097917
    15  H    0.120713
    16  H    0.111897
    17  H    0.091719
    18  H    0.111968
    19  H    0.095792
 Sum of Mulliken charges =   0.00000

 Dipole moment (field-independent basis, Debye):
    X=              0.6984    Y=              1.3575    Z=             -0.8672  Tot=              1.7557
 Quadrupole moment (field-independent basis, Debye-Ang):
   XX=            -54.2094   YY=            -54.8597   ZZ=            -49.8630
   XY=              2.7330   XZ=              2.3984   YZ=             -2.4464

  Exact polarizability:  83.015   1.884  70.095   0.778  -2.235  68.292
 Approx polarizability: 110.320  -1.174 105.327   0.920  -1.321 106.662

                      1                      2                      3
                      A                      A                      A
 Frequencies --     84.4928               189.0556               271.0768
 Red. masses --      3.2266                 2.9609                 2.2757
 Frc consts  --      0.0136                 0.0624                 0.0985
 IR Inten    --      0.6883                 3.5911                 7.7119

                      4                      5                      6
                      A                      A                      A
 Frequencies --    309.8155               361.2408               369.2016
 Red. masses --      1.2021                 3.7572                 3.0301
 Frc consts  --      0.0680                 0.2889                 0.2434
 IR Inten    --     62.8212                12.8632                13.6073

                      7                      8                      9
                      A                      A                      A
 Frequencies --    401.5542               428.2278               508.3906
 Red. masses --      3.7677                 2.3736                 3.8352
 Frc consts  --      0.3579                 0.2565                 0.5840
 IR Inten    --      8.4495                 0.4456                 2.8647

                     10                     11                     12
                      A                      A                      A
 Frequencies --    540.1722               645.5244               737.7694
 Red. masses --      3.0753                 3.4880                 2.9413
 Frc consts  --      0.5287                 0.8563                 0.9433
 IR Inten    --      3.6338                 3.4963                17.2034

                     13                     14                     15
                      A                      A                      A
 Frequencies --    763.7858               791.2568               824.1041
 Red. masses --      2.1640                 2.3159                 1.5999
 Frc consts  --      0.7438                 0.8543                 0.6402
 IR Inten    --      0.5909                 8.5061                 7.3633

                     16                     17                     18
                      A                      A                      A
 Frequencies --    875.9168               917.5459               923.5226
 Red. masses --      1.9783                 2.1040                 1.6167
 Frc consts  --      0.8943                 1.0437                 0.8124
 IR Inten    --      2.2629                18.2367                11.6457

                     19                     20                     21
                      A                      A                      A
 Frequencies --    949.0239               991.6905              1005.8656
 Red. masses --      2.0850                 2.9449                 1.6631
 Frc consts  --      1.1064                 1.7063                 0.9914
 IR Inten    --      1.4016                 4.8896                14.6590

                     22                     23                     24
                      A                      A                      A
 Frequencies --   1020.7030              1052.6302              1065.2237
 Red. masses --      1.5724                 1.7767                 2.3608
 Frc consts  --      0.9652                 1.1599                 1.5783
 IR Inten    --      7.7688                13.0968                 4.9026

                     25                     26                     27
                      A                      A                      A
 Frequencies --   1077.0952              1122.2642              1134.3814
 Red. masses --      1.8172                 1.4822                 1.2432
 Frc consts  --      1.2421                 1.0999                 0.9426
 IR Inten    --     34.3531                 1.9626                 1.6840

                     28                     29                     30
                      A                      A                      A
 Frequencies --   1148.3831              1198.7224              1236.7540
 Red. masses --      1.5703                 2.1535                 1.8554
 Frc consts  --      1.2201                 1.8232                 1.6720
 IR Inten    --      9.1107               118.5864                39.3600

                     31                     32                     33
                      A                      A                      A
 Frequencies --   1243.4149              1258.3213              1308.1042
 Red. masses --      1.2294                 2.3073                 2.1216
 Frc consts  --      1.1199                 2.1525                 2.1389
 IR Inten    --     58.3678                39.0064                16.7379

                     34                     35                     36
                      A                      A                      A
 Frequencies --   1343.8133              1355.5044              1382.6618
 Red. masses --      1.2989                 2.0693                 1.4319
 Frc consts  --      1.3819                 2.2402                 1.6129
 IR Inten    --      3.1594                20.6232                 9.3858

                     37                     38                     39
                      A                      A                      A
 Frequencies --   1405.4888              1429.1860              1471.9075
 Red. masses --      1.3626                 1.5883                 1.3877
 Frc consts  --      1.5859                 1.9114                 1.7714
 IR Inten    --     10.0027                 5.3887                16.8394

                     40                     41                     42
                      A                      A                      A
 Frequencies --   1484.4700              1504.2612              3015.6840
 Red. masses --      1.2298                 1.3809                 1.0592
 Frc consts  --      1.5967                 1.8410                 5.6756
 IR Inten    --      9.4211                13.9809                43.9363

                     43                     44                     45
                      A                      A                      A
 Frequencies --   3047.5993              3135.2656              3140.9839
 Red. masses --      1.1031                 1.0553                 1.0869
 Frc consts  --      6.0362                 6.1120                 6.3180
 IR Inten    --     23.3380                 8.1896                10.6058

                     46                     47                     48
                      A                      A                      A
 Frequencies --   3145.0027              3154.6534              3160.4417
 Red. masses --      1.0552                 1.0898                 1.0908
 Frc consts  --      6.1494                 6.3901                 6.4193
 IR Inten    --      9.8868                33.3599                15.0361

                     49                     50                     51
                      A                      A                      A
 Frequencies --   3223.7159              3238.1233              3783.5295
 Red. masses --      1.1156                 1.1158                 1.0659
 Frc consts  --      6.8310                 6.8930                 8.9897
 IR Inten    --     15.5305                 2.9822                12.4133

 - Thermochemistry -
 -------------------
 Temperature   298.150 Kelvin.  Pressure   1.00000 Atm.
 Atom     1 has atomic number  8 and mass  15.99491

 Molecular mass:   126.06808 amu.
 Principal axes and moments of inertia in atomic units:
                           1         2         3
     Eigenvalues --   600.818421176.458071421.55527
           X            0.99952   0.03055   0.00588
           Y           -0.03029   0.99878  -0.03911
           Z           -0.00707   0.03891   0.99922
 This molecule is an asymmetric top.
 Rotational symmetry number  1.
 Warning -- assumption of classical behavior for rotation
           may cause significant error
 Rotational temperatures (Kelvin)      0.14416     0.07362     0.06093
 Rotational constants (GHZ):           3.00380     1.53405     1.26955
 Zero-point vibrational energy     419754.8 (Joules/Mol)
                                  100.32381 (Kcal/Mol)
 Warning -- explicit consideration of  10 degrees of freedom as
           vibrations may cause significant error
 Vibrational temperatures:    121.57   272.01   390.02   445.75   519.74
          (Kelvin)            531.20   577.75   616.12   731.46   777.19
                              928.76  1061.48  1098.92  1138.44  1185.70
                             1260.25  1320.14  1328.74  1365.43  1426.82
                             1447.21  1468.56  1514.50  1532.62  1549.70
                             1614.69  1632.12  1652.27  1724.69  1779.41
                             1788.99  1810.44  1882.07  1933.45  1950.27
                             1989.34  2022.18  2056.28  2117.74  2135.82
                             2164.29  4338.89  4384.81  4510.94  4519.17
                             4524.95  4538.84  4547.17  4638.20  4658.93
                             5443.65

 Zero-point correction=                           0.159876 (Hartree/Particle)
 Thermal correction to Energy=                    0.167677
 Thermal correction to Enthalpy=                  0.168621
 Thermal correction to Gibbs Free Energy=         0.127868
 Sum of electronic and zero-point Energies=           -422.985039
 Sum of electronic and thermal Energies=              -422.977239
 Sum of electronic and thermal Enthalpies=            -422.976294
 Sum of electronic and thermal Free Energies=         -423.017047

                     E (Thermal)             CV                S
                      KCal/Mol        Cal/Mol-Kelvin    Cal/Mol-Kelvin
 Total                  105.219             31.595             85.771
 Electronic               0.000              0.000              0.000
 Translational            0.889              2.981             40.409
 Rotational               0.889              2.981             28.398
 Vibrational            103.441             25.633             16.964
 Vibration     1          0.601              1.960              3.784
 Vibration     2          0.633              1.855              2.237
 Vibration     3          0.675              1.727              1.589
 Vibration     4          0.699              1.655              1.363
 Vibration     5          0.735              1.552              1.117
 Vibration     6          0.742              1.536              1.083
 Vibration     7          0.767              1.467              0.957
 Vibration     8          0.790              1.409              0.864
 Vibration     9          0.864              1.231              0.637
 Vibration    10          0.895              1.161              0.565

 Optimization completed.
    -- Stationary point found.
 Normal termination of Gaussian 09 at Mon Jan 27 18:32:00 2020.
