 Gaussian 09, Revision D.01,
 Gaussian 09:  ES64L-G09RevD.01 24-Apr-2013

 -----------------------------
 # b3lyp 6-31G(2df,p) opt Freq
 -----------------------------

 -----
 titel
 -----
 Symbolic Z-matrix:
 Charge =  0 Multiplicity = 1

 SCF Done:  E(RB3LYP) =  -423.125509624     A.U. after   14 cycles
 Optimization completed.
    -- Stationary point found.
 Normal termination of Gaussian 09 at Mon Jan 27 15:35:31 2020.

 ----------------------------------------------------------------------
 #N Geom=AllCheck Guess=TCheck SCRF=Check GenChk RB3LYP/6-31G(2df,p) Fr
 eq
 ----------------------------------------------------------------------

 Structure from the checkpoint file:  "/scratch/puck/g09_00e4cfcf-9e51-4679-9985-e96b6cfc341f/Gau-55453.chk"
 -----
 titel
 -----
 Charge =  0 Multiplicity = 1

                         Standard orientation:
 ---------------------------------------------------------------------
 Center     Atomic      Atomic             Coordinates (Angstroms)
 Number     Number       Type             X           Y           Z
 ---------------------------------------------------------------------
      1          6           0        3.029963   -0.934918    0.082328
      2          6           0        1.979075    0.068034   -0.372826
      3          8           0        2.519326    1.369195   -0.163788
      4          6           0        0.685800   -0.085133    0.404244
      5          8           0       -0.157256   -1.182065    0.036083
      6          6           0       -0.629479    0.142023   -0.210587
      7          6           0       -1.827334    0.599968    0.605546
      8          6           0       -3.097001    0.147753    0.047003
      9          6           0       -4.131885   -0.223408   -0.437155
     10          1           0        3.947982   -0.809562   -0.497360
     11          1           0        3.267991   -0.781489    1.139753
     12          1           0        2.659552   -1.954543   -0.052092
     13          1           0        1.756433   -0.100607   -1.438520
     14          1           0        1.882595    2.012678   -0.491980
     15          1           0        0.784705    0.071029    1.480957
     16          1           0       -0.667731    0.409097   -1.268220
     17          1           0       -1.713188    0.230924    1.631373
     18          1           0       -1.820157    1.697159    0.660103
     19          1           0       -5.049573   -0.557638   -0.853692
 ---------------------------------------------------------------------

 SCF Done:  E(RB3LYP) =  -423.125509624     A.U. after    1 cycles

 The electronic state is 1-A.
 Alpha  occ. eigenvalues --  -19.15768 -19.14278 -10.25005 -10.24034 -10.23965
 Alpha  occ. eigenvalues --  -10.22045 -10.18518 -10.17578 -10.17450  -1.08006
 Alpha  occ. eigenvalues --   -1.02411  -0.79995  -0.76611  -0.72039  -0.67499
 Alpha  occ. eigenvalues --   -0.61913  -0.59274  -0.53984  -0.52475  -0.50067
 Alpha  occ. eigenvalues --   -0.47465  -0.46268  -0.44395  -0.41782  -0.40359
 Alpha  occ. eigenvalues --   -0.38682  -0.38359  -0.36918  -0.33848  -0.30966
 Alpha  occ. eigenvalues --   -0.29099  -0.27215  -0.26804  -0.26109
 Alpha virt. eigenvalues --    0.04529   0.05211   0.06660   0.09822   0.10438
 Alpha virt. eigenvalues --    0.11788   0.12085   0.13058   0.14466   0.15244
 Alpha virt. eigenvalues --    0.16315   0.17422   0.18348   0.19014   0.21277

 Mulliken charges:
               1
     1  C   -0.385646
     2  C    0.086710
     3  O   -0.426632
     4  C    0.033177
     5  O   -0.248214
     6  C    0.053410
     7  C   -0.384665
     8  C    0.301947
     9  C   -0.438850
    10  H    0.125029
    11  H    0.123253
    12  H    0.133777
    13  H    0.073899
    14  H    0.282452
    15  H    0.094224
    16  H    0.100371
    17  H    0.142371
    18  H    0.133772
    19  H    0.199615
 Sum of Mulliken charges =   0.00000

 Dipole moment (field-independent basis, Debye):
    X=             -0.4516    Y=              1.5027    Z=             -0.3029  Tot=              1.5981
 Quadrupole moment (field-independent basis, Debye-Ang):
   XX=            -55.3978   YY=            -53.9670   ZZ=            -51.0594
   XY=             -2.5388   XZ=              0.6546   YZ=             -0.5541

  Exact polarizability: 108.131   2.145  64.227   9.283   1.853  63.276
 Approx polarizability: 137.001  10.641 100.859  20.200   5.156  97.781

                      1                      2                      3
                      A                      A                      A
 Frequencies --     44.2109                77.3013               104.2323
 Red. masses --      3.8736                 4.2620                 4.1669
 Frc consts  --      0.0045                 0.0150                 0.0267
 IR Inten    --      0.5857                 0.9070                 2.0798

                      4                      5                      6
                      A                      A                      A
 Frequencies --    136.7867               222.2707               242.9658
 Red. masses --      3.2865                 1.5785                 1.7509
 Frc consts  --      0.0362                 0.0459                 0.0609
 IR Inten    --      0.2792                 1.5745                 8.1114

                      7                      8                      9
                      A                      A                      A
 Frequencies --    299.0938               323.4436               336.7013
 Red. masses --      3.2112                 1.1438                 3.4051
 Frc consts  --      0.1693                 0.0705                 0.2274
 IR Inten    --     17.5441                76.9280                11.9846

                     10                     11                     12
                      A                      A                      A
 Frequencies --    369.8642               419.5014               441.3858
 Red. masses --      2.9838                 2.9634                 4.1021
 Frc consts  --      0.2405                 0.3073                 0.4709
 IR Inten    --      8.3410                 1.3894                11.4801

                     13                     14                     15
                      A                      A                      A
 Frequencies --    509.7571               586.6604               623.2375
 Red. masses --      4.5741                 3.5696                 1.2075
 Frc consts  --      0.7003                 0.7238                 0.2763
 IR Inten    --      3.2857                 9.6890                41.9592

                     16                     17                     18
                      A                      A                      A
 Frequencies --    648.0242               797.3374               885.9918
 Red. masses --      1.2194                 3.7161                 2.0747
 Frc consts  --      0.3017                 1.3919                 0.9596
 IR Inten    --     43.6113                16.5475                 5.3924

                     19                     20                     21
                      A                      A                      A
 Frequencies --    923.0451               940.9278               964.1351
 Red. masses --      3.6577                 2.6692                 3.2454
 Frc consts  --      1.8361                 1.3923                 1.7774
 IR Inten    --     16.2684                14.9154                15.8024

                     22                     23                     24
                      A                      A                      A
 Frequencies --    972.6537              1027.0882              1079.3091
 Red. masses --      1.8874                 2.2029                 2.2450
 Frc consts  --      1.0520                 1.3692                 1.5408
 IR Inten    --     28.4694                13.6910                28.8142

                     25                     26                     27
                      A                      A                      A
 Frequencies --   1109.3393              1131.2794              1147.6941
 Red. masses --      1.8985                 1.7524                 1.5375
 Frc consts  --      1.3766                 1.3214                 1.1932
 IR Inten    --     12.7821                16.6590                 7.3037

                     28                     29                     30
                      A                      A                      A
 Frequencies --   1182.5284              1241.0924              1264.8395
 Red. masses --      2.0778                 1.1968                 1.3277
 Frc consts  --      1.7119                 1.0861                 1.2515
 IR Inten    --      5.7134                 4.7721                 5.8235

                     31                     32                     33
                      A                      A                      A
 Frequencies --   1285.2977              1306.7447              1325.5169
 Red. masses --      1.3043                 1.2566                 1.3538
 Frc consts  --      1.2695                 1.2643                 1.4014
 IR Inten    --     78.0763                15.5946                 3.1934

                     34                     35                     36
                      A                      A                      A
 Frequencies --   1380.2612              1398.3837              1427.4997
 Red. masses --      1.2431                 1.2597                 1.5637
 Frc consts  --      1.3954                 1.4514                 1.8774
 IR Inten    --      1.9265                 9.5137                18.7179

                     37                     38                     39
                      A                      A                      A
 Frequencies --   1452.8836              1483.5587              1492.3587
 Red. masses --      1.0913                 1.2326                 1.2733
 Frc consts  --      1.3572                 1.5984                 1.6708
 IR Inten    --      4.2215                 5.7762                 2.7415

                     40                     41                     42
                      A                      A                      A
 Frequencies --   1504.8791              2243.0216              2977.7448
 Red. masses --      1.5815                 5.9093                 1.0832
 Frc consts  --      2.1102                17.5168                 5.6590
 IR Inten    --      5.5297                 1.6610                35.5885

                     43                     44                     45
                      A                      A                      A
 Frequencies --   3019.2233              3045.0169              3064.7433
 Red. masses --      1.0626                 1.0350                 1.0960
 Frc consts  --      5.7068                 5.6541                 6.0654
 IR Inten    --     13.4419                14.0637                 2.5779

                     46                     47                     48
                      A                      A                      A
 Frequencies --   3088.5644              3099.7922              3119.1075
 Red. masses --      1.0887                 1.0869                 1.1011
 Frc consts  --      6.1191                 6.1530                 6.3116
 IR Inten    --     12.5186                33.6930                24.3131

                     49                     50                     51
                      A                      A                      A
 Frequencies --   3131.8519              3506.6574              3810.9568
 Red. masses --      1.1025                 1.1629                 1.0661
 Frc consts  --      6.3714                 8.4253                 9.1228
 IR Inten    --     15.9547                69.2047                11.2349

 - Thermochemistry -
 -------------------
 Temperature   298.150 Kelvin.  Pressure   1.00000 Atm.
 Atom     1 has atomic number  6 and mass  12.00000

 Molecular mass:   126.06808 amu.
 Principal axes and moments of inertia in atomic units:
                           1         2         3
     Eigenvalues --   371.154852591.735282798.71112
           X            0.99991  -0.01308   0.00067
           Y            0.01308   0.99990   0.00549
           Z           -0.00074  -0.00548   0.99998
 This molecule is an asymmetric top.
 Rotational symmetry number  1.
 Rotational temperatures (Kelvin)      0.23336     0.03342     0.03095
 Rotational constants (GHZ):           4.86250     0.69634     0.64485
 Zero-point vibrational energy     408026.8 (Joules/Mol)
                                   97.52076 (Kcal/Mol)
 Warning -- explicit consideration of  14 degrees of freedom as
           vibrations may cause significant error
 Vibrational temperatures:     63.61   111.22   149.97   196.81   319.80
          (Kelvin)            349.57   430.33   465.36   484.44   532.15
                              603.57   635.05   733.43   844.07   896.70
                              932.36  1147.19  1274.74  1328.05  1353.78
                             1387.17  1399.43  1477.75  1552.88  1596.09
                             1627.66  1651.27  1701.39  1785.65  1819.82
                             1849.25  1880.11  1907.12  1985.89  2011.96
                             2053.85  2090.37  2134.51  2147.17  2165.18
                             3227.20  4284.31  4343.98  4381.09  4409.48
                             4443.75  4459.90  4487.69  4506.03  5045.29
                             5483.11

 Zero-point correction=                           0.155409 (Hartree/Particle)
 Thermal correction to Energy=                    0.165606
 Thermal correction to Enthalpy=                  0.166550
 Thermal correction to Gibbs Free Energy=         0.119603
 Sum of electronic and zero-point Energies=           -422.970100
 Sum of electronic and thermal Energies=              -422.959904
 Sum of electronic and thermal Enthalpies=            -422.958959
 Sum of electronic and thermal Free Energies=         -423.005907

                     E (Thermal)             CV                S
                      KCal/Mol        Cal/Mol-Kelvin    Cal/Mol-Kelvin
 Total                  103.919             36.771             98.810
 Electronic               0.000              0.000              0.000
 Translational            0.889              2.981             40.409
 Rotational               0.889              2.981             29.378
 Vibrational            102.142             30.809             29.023
 Vibration     1          0.595              1.980              5.061
 Vibration     2          0.599              1.964              3.958
 Vibration     3          0.605              1.946              3.374
 Vibration     4          0.614              1.917              2.848
 Vibration     5          0.648              1.807              1.941
 Vibration     6          0.659              1.774              1.781
 Vibration     7          0.692              1.675              1.422
 Vibration     8          0.708              1.629              1.293
 Vibration     9          0.717              1.602              1.228
 Vibration    10          0.742              1.534              1.080
 Vibration    11          0.782              1.428              0.894
 Vibration    12          0.801              1.380              0.822
 Vibration    13          0.865              1.228              0.634
 Vibration    14          0.944              1.060              0.473

 Optimization completed.
    -- Stationary point found.
 Normal termination of Gaussian 09 at Mon Jan 27 16:10:17 2020.
