 Gaussian 09, Revision D.01,
 Gaussian 09:  ES64L-G09RevD.01 24-Apr-2013

 -----------------------------
 # b3lyp 6-31G(2df,p) opt Freq
 -----------------------------

 -----
 titel
 -----
 Symbolic Z-matrix:
 Charge =  0 Multiplicity = 1

 SCF Done:  E(RB3LYP) =  -423.149367704     A.U. after   14 cycles
 Optimization completed.
    -- Stationary point found.
 Normal termination of Gaussian 09 at Tue Jan 28 03:54:37 2020.

 ----------------------------------------------------------------------
 #N Geom=AllCheck Guess=TCheck SCRF=Check GenChk RB3LYP/6-31G(2df,p) Fr
 eq
 ----------------------------------------------------------------------

 Structure from the checkpoint file:  "/scratch/puck/g09_216771c5-d25e-4a9b-bce2-a2c05ec37a1e/Gau-116759.chk"
 -----
 titel
 -----
 Charge =  0 Multiplicity = 1

                         Standard orientation:
 ---------------------------------------------------------------------
 Center     Atomic      Atomic             Coordinates (Angstroms)
 Number     Number       Type             X           Y           Z
 ---------------------------------------------------------------------
      1          6           0        2.686423    0.345565    0.606016
      2          6           0        1.469702   -0.075606   -0.211760
      3          6           0        1.001245   -1.518922    0.010677
      4          8           0       -0.398692   -1.564482   -0.298455
      5          6           0       -0.888287   -0.238960   -0.498069
      6          6           0       -2.206475   -0.062608    0.099010
      7          6           0       -3.283270    0.145154    0.591576
      8          6           0        0.189763    0.700262    0.100099
      9          8           0        0.219646    1.983404   -0.478414
     10          1           0        2.910389    1.402669    0.437677
     11          1           0        2.508265    0.201140    1.677797
     12          1           0        3.572788   -0.235552    0.331856
     13          1           0        1.675807    0.077437   -1.278979
     14          1           0        1.526149   -2.238608   -0.626767
     15          1           0        1.149439   -1.823022    1.057496
     16          1           0       -0.952021   -0.018858   -1.576088
     17          1           0       -4.240909    0.305425    1.022135
     18          1           0        0.044022    0.756361    1.189884
     19          1           0       -0.576156    2.452335   -0.205357
 ---------------------------------------------------------------------

 SCF Done:  E(RB3LYP) =  -423.149367704     A.U. after    1 cycles

 The electronic state is 1-A.
 Alpha  occ. eigenvalues --  -19.14821 -19.13993 -10.25138 -10.24051 -10.22882
 Alpha  occ. eigenvalues --  -10.19392 -10.18548 -10.18116 -10.18071  -1.04284
 Alpha  occ. eigenvalues --   -1.02552  -0.80206  -0.78217  -0.71984  -0.68559
 Alpha  occ. eigenvalues --   -0.62322  -0.58203  -0.53722  -0.53275  -0.49723
 Alpha  occ. eigenvalues --   -0.47136  -0.45294  -0.44373  -0.41590  -0.40821
 Alpha  occ. eigenvalues --   -0.38530  -0.37036  -0.35439  -0.33353  -0.31472
 Alpha  occ. eigenvalues --   -0.28898  -0.27707  -0.27042  -0.24740
 Alpha virt. eigenvalues --    0.02625   0.04986   0.08137   0.09374   0.11544
 Alpha virt. eigenvalues --    0.12061   0.12471   0.15375   0.16271   0.16529
 Alpha virt. eigenvalues --    0.16865   0.17948   0.18881   0.19404   0.23881

 Mulliken charges:
               1
     1  C   -0.427180
     2  C   -0.003018
     3  C   -0.081384
     4  O   -0.272149
     5  C   -0.066621
     6  C    0.291834
     7  C   -0.437927
     8  C    0.090280
     9  O   -0.436108
    10  H    0.135499
    11  H    0.116372
    12  H    0.117828
    13  H    0.091386
    14  H    0.108761
    15  H    0.097777
    16  H    0.102534
    17  H    0.199572
    18  H    0.080299
    19  H    0.292245
 Sum of Mulliken charges =   0.00000

 Dipole moment (field-independent basis, Debye):
    X=              0.3605    Y=              1.0206    Z=              0.8023  Tot=              1.3473
 Quadrupole moment (field-independent basis, Debye-Ang):
   XX=            -47.8790   YY=            -55.5459   ZZ=            -52.8359
   XY=             -6.2088   XZ=             -1.7099   YZ=              1.3821

  Exact polarizability: 102.813  -6.501  67.954  -6.459   0.578  62.646
 Approx polarizability: 137.955 -10.164  97.739 -16.377   1.129  98.796

                      1                      2                      3
                      A                      A                      A
 Frequencies --     42.9598               104.9569               129.3781
 Red. masses --      4.1594                 2.7245                 4.0363
 Frc consts  --      0.0045                 0.0177                 0.0398
 IR Inten    --      2.3155                 0.3972                 0.2970

                      4                      5                      6
                      A                      A                      A
 Frequencies --    210.1121               219.2307               248.1146
 Red. masses --      1.4740                 3.3185                 1.8265
 Frc consts  --      0.0383                 0.0940                 0.0662
 IR Inten    --      2.5223                 0.6250                 2.6086

                      7                      8                      9
                      A                      A                      A
 Frequencies --    317.8670               337.3822               367.4528
 Red. masses --      1.2153                 2.6478                 3.3960
 Frc consts  --      0.0724                 0.1776                 0.2702
 IR Inten    --     70.2958                22.8718                23.9265

                     10                     11                     12
                      A                      A                      A
 Frequencies --    472.5515               500.6737               529.8919
 Red. masses --      5.0386                 3.8515                 4.1652
 Frc consts  --      0.6629                 0.5688                 0.6891
 IR Inten    --      0.8889                 3.8945                 2.3833

                     13                     14                     15
                      A                      A                      A
 Frequencies --    587.5917               617.2775               639.1544
 Red. masses --      6.0658                 1.2381                 5.0413
 Frc consts  --      1.2339                 0.2779                 1.2134
 IR Inten    --      3.9389                43.1202                11.2878

                     16                     17                     18
                      A                      A                      A
 Frequencies --    675.0548               863.2668               918.3019
 Red. masses --      1.2570                 2.1524                 1.5578
 Frc consts  --      0.3375                 0.9451                 0.7740
 IR Inten    --     32.6798                 2.9095                 2.1508

                     19                     20                     21
                      A                      A                      A
 Frequencies --    945.1978               958.2278               988.2213
 Red. masses --      4.4448                 1.5099                 3.4176
 Frc consts  --      2.3397                 0.8169                 1.9664
 IR Inten    --     15.7150                 0.9651                16.4316

                     22                     23                     24
                      A                      A                      A
 Frequencies --   1062.5772              1090.1472              1109.9289
 Red. masses --      6.1631                 2.4869                 2.4639
 Frc consts  --      4.0999                 1.7413                 1.7884
 IR Inten    --    124.0949                33.8611                81.9354

                     25                     26                     27
                      A                      A                      A
 Frequencies --   1127.5094              1138.9959              1163.4290
 Red. masses --      2.2399                 4.0072                 1.8806
 Frc consts  --      1.6777                 3.0630                 1.4997
 IR Inten    --      9.7172                34.3912                13.8735

                     28                     29                     30
                      A                      A                      A
 Frequencies --   1209.2279              1257.7483              1276.2860
 Red. masses --      1.2258                 1.3087                 1.2662
 Frc consts  --      1.0560                 1.2197                 1.2152
 IR Inten    --      1.8863                11.8128                23.0344

                     31                     32                     33
                      A                      A                      A
 Frequencies --   1322.3442              1334.2616              1352.3934
 Red. masses --      1.2442                 1.2899                 1.2956
 Frc consts  --      1.2818                 1.3530                 1.3962
 IR Inten    --      2.1580                33.4493                 1.1377

                     34                     35                     36
                      A                      A                      A
 Frequencies --   1383.5634              1395.3968              1410.2207
 Red. masses --      1.4498                 1.3858                 1.2601
 Frc consts  --      1.6351                 1.5898                 1.4764
 IR Inten    --     24.4285                 3.3478                 2.8657

                     37                     38                     39
                      A                      A                      A
 Frequencies --   1446.8649              1495.9100              1502.1681
 Red. masses --      1.5226                 1.0544                 1.0504
 Frc consts  --      1.8780                 1.3902                 1.3965
 IR Inten    --      1.7316                 4.3103                 6.3010

                     40                     41                     42
                      A                      A                      A
 Frequencies --   1528.3399              2235.2983              2968.2517
 Red. masses --      1.0898                 5.9254                 1.0800
 Frc consts  --      1.4998                17.4437                 5.6061
 IR Inten    --      2.4776                 0.4470                15.6808

                     43                     44                     45
                      A                      A                      A
 Frequencies --   2988.8701              2995.2050              3029.0486
 Red. masses --      1.0833                 1.0691                 1.0677
 Frc consts  --      5.7019                 5.6508                 5.7716
 IR Inten    --     29.8034                53.9649                 8.6777

                     46                     47                     48
                      A                      A                      A
 Frequencies --   3033.7291              3063.0518              3098.4353
 Red. masses --      1.0499                 1.0976                 1.1008
 Frc consts  --      5.6933                 6.0673                 6.2265
 IR Inten    --     48.2025                42.3038                36.2632

                     49                     50                     51
                      A                      A                      A
 Frequencies --   3114.6848              3501.7430              3810.3439
 Red. masses --      1.1009                 1.1624                 1.0662
 Frc consts  --      6.2925                 8.3977                 9.1201
 IR Inten    --     16.6123                68.0435                25.5970

 - Thermochemistry -
 -------------------
 Temperature   298.150 Kelvin.  Pressure   1.00000 Atm.
 Atom     1 has atomic number  6 and mass  12.00000

 Molecular mass:   126.06808 amu.
 Principal axes and moments of inertia in atomic units:
                           1         2         3
     Eigenvalues --   657.072611455.377421907.24645
           X            0.99980  -0.01888   0.00626
           Y            0.01883   0.99979   0.00762
           Z           -0.00640  -0.00750   0.99995
 This molecule is an asymmetric top.
 Rotational symmetry number  1.
 Warning -- assumption of classical behavior for rotation
           may cause significant error
 Rotational temperatures (Kelvin)      0.13182     0.05951     0.04541
 Rotational constants (GHZ):           2.74664     1.24005     0.94625
 Zero-point vibrational energy     413422.5 (Joules/Mol)
                                   98.81034 (Kcal/Mol)
 Warning -- explicit consideration of  14 degrees of freedom as
           vibrations may cause significant error
 Vibrational temperatures:     61.81   151.01   186.15   302.30   315.42
          (Kelvin)            356.98   457.34   485.42   528.68   679.90
                              720.36   762.40   845.41   888.12   919.60
                              971.25  1242.05  1321.23  1359.93  1378.67
                             1421.83  1528.81  1568.48  1596.94  1622.23
                             1638.76  1673.91  1739.81  1809.62  1836.29
                             1902.56  1919.70  1945.79  1990.64  2007.66
                             2028.99  2081.71  2152.28  2161.28  2198.94
                             3216.09  4270.65  4300.31  4309.43  4358.12
                             4364.85  4407.04  4457.95  4481.33  5038.22
                             5482.23

 Zero-point correction=                           0.157464 (Hartree/Particle)
 Thermal correction to Energy=                    0.166981
 Thermal correction to Enthalpy=                  0.167925
 Thermal correction to Gibbs Free Energy=         0.122759
 Sum of electronic and zero-point Energies=           -422.991903
 Sum of electronic and thermal Energies=              -422.982387
 Sum of electronic and thermal Enthalpies=            -422.981443
 Sum of electronic and thermal Free Energies=         -423.026608

                     E (Thermal)             CV                S
                      KCal/Mol        Cal/Mol-Kelvin    Cal/Mol-Kelvin
 Total                  104.782             35.071             95.059
 Electronic               0.000              0.000              0.000
 Translational            0.889              2.981             40.409
 Rotational               0.889              2.981             28.991
 Vibrational            103.005             29.109             25.660
 Vibration     1          0.595              1.980              5.118
 Vibration     2          0.605              1.945              3.360
 Vibration     3          0.612              1.924              2.955
 Vibration     4          0.642              1.825              2.043
 Vibration     5          0.647              1.812              1.965
 Vibration     6          0.662              1.766              1.744
 Vibration     7          0.704              1.639              1.321
 Vibration     8          0.718              1.601              1.225
 Vibration     9          0.740              1.539              1.090
 Vibration    10          0.829              1.311              0.730
 Vibration    11          0.856              1.249              0.656
 Vibration    12          0.885              1.184              0.587
 Vibration    13          0.945              1.058              0.471
 Vibration    14          0.977              0.995              0.421

 Optimization completed.
    -- Stationary point found.
 Normal termination of Gaussian 09 at Tue Jan 28 04:33:30 2020.
