 Gaussian 09, Revision D.01,
 Gaussian 09:  ES64L-G09RevD.01 24-Apr-2013

 -----------------------------
 # b3lyp 6-31G(2df,p) opt Freq
 -----------------------------

 -----
 titel
 -----
 Symbolic Z-matrix:
 Charge =  0 Multiplicity = 1

 SCF Done:  E(RB3LYP) =  -423.156440318     A.U. after   13 cycles
 Optimization completed.
    -- Stationary point found.
 Normal termination of Gaussian 09 at Mon Jan 27 17:46:03 2020.

 ----------------------------------------------------------------------
 #N Geom=AllCheck Guess=TCheck SCRF=Check GenChk RB3LYP/6-31G(2df,p) Fr
 eq
 ----------------------------------------------------------------------

 Structure from the checkpoint file:  "/scratch/puck/g09_d4514f6f-fe88-4bd9-b718-01f15ee25edb/Gau-87733.chk"
 -----
 titel
 -----
 Charge =  0 Multiplicity = 1

                         Standard orientation:
 ---------------------------------------------------------------------
 Center     Atomic      Atomic             Coordinates (Angstroms)
 Number     Number       Type             X           Y           Z
 ---------------------------------------------------------------------
      1          6           0       -1.651043    1.566660   -0.396551
      2          6           0       -0.963012    0.326680    0.119238
      3          6           0       -1.757064   -0.879762    0.594381
      4          6           0       -0.878259   -0.973862   -0.627147
      5          8           0        0.373982   -1.600926   -0.445280
      6          6           0        1.191830   -0.772373    0.363792
      7          6           0        2.087804    0.238040   -0.386005
      8          8           0        1.288295    1.353007    0.072439
      9          6           0        0.390611    0.478286    0.794312
     10          1           0       -0.954156    2.172240   -0.982369
     11          1           0       -2.505140    1.308387   -1.030064
     12          1           0       -2.025371    2.183244    0.429000
     13          1           0       -1.430099   -1.414354    1.481364
     14          1           0       -2.833271   -0.844190    0.457202
     15          1           0       -1.291094   -1.128898   -1.617661
     16          1           0        1.681786   -1.381664    1.125010
     17          1           0        3.122503    0.313040   -0.031608
     18          1           0        2.074685    0.125752   -1.475752
     19          1           0        0.336736    0.747771    1.855482
 ---------------------------------------------------------------------

 SCF Done:  E(RB3LYP) =  -423.156440318     A.U. after    1 cycles

 The electronic state is 1-A.
 Alpha  occ. eigenvalues --  -19.14616 -19.13583 -10.23854 -10.23738 -10.23481
 Alpha  occ. eigenvalues --  -10.22857 -10.19868 -10.18645 -10.17895  -1.06100
 Alpha  occ. eigenvalues --   -1.02442  -0.85900  -0.73990  -0.71484  -0.69314
 Alpha  occ. eigenvalues --   -0.61558  -0.56946  -0.55801  -0.51445  -0.49932
 Alpha  occ. eigenvalues --   -0.45619  -0.45034  -0.43720  -0.41385  -0.40073
 Alpha  occ. eigenvalues --   -0.39501  -0.38956  -0.37337  -0.35904  -0.31366
 Alpha  occ. eigenvalues --   -0.30393  -0.27650  -0.25521  -0.23323
 Alpha virt. eigenvalues --    0.07328   0.09566   0.09886   0.10763   0.12394
 Alpha virt. eigenvalues --    0.14024   0.14985   0.15490   0.15920   0.16825
 Alpha virt. eigenvalues --    0.17522   0.18108   0.19364   0.21232   0.21438

 Mulliken charges:
               1
     1  C   -0.482854
     2  C    0.283880
     3  C   -0.365440
     4  C    0.064826
     5  O   -0.272769
     6  C    0.054601
     7  C   -0.099360
     8  O   -0.293066
     9  C    0.023417
    10  H    0.139727
    11  H    0.114148
    12  H    0.118390
    13  H    0.114240
    14  H    0.113653
    15  H    0.101250
    16  H    0.092341
    17  H    0.103864
    18  H    0.110547
    19  H    0.078606
 Sum of Mulliken charges =   0.00000

 Dipole moment (field-independent basis, Debye):
    X=             -0.5470    Y=             -0.2355    Z=              0.5301  Tot=              0.7973
 Quadrupole moment (field-independent basis, Debye-Ang):
   XX=            -49.1549   YY=            -59.4235   ZZ=            -50.8554
   XY=             -1.7966   XZ=              1.1680   YZ=             -1.2384

  Exact polarizability:  85.860   0.119  69.560  -1.025  -1.061  66.733
 Approx polarizability: 113.198   1.371 105.080  -2.670   1.532 102.188

                      1                      2                      3
                      A                      A                      A
 Frequencies --     86.2758               171.8455               197.2859
 Red. masses --      3.0633                 2.1125                 1.2884
 Frc consts  --      0.0134                 0.0368                 0.0295
 IR Inten    --      3.8825                 0.4970                 0.1200

                      4                      5                      6
                      A                      A                      A
 Frequencies --    245.1779               311.7235               372.4899
 Red. masses --      3.1396                 2.5523                 2.5777
 Frc consts  --      0.1112                 0.1461                 0.2107
 IR Inten    --      4.0210                 1.8114                 1.8121

                      7                      8                      9
                      A                      A                      A
 Frequencies --    450.0258               457.6010               556.0597
 Red. masses --      3.0092                 3.3725                 3.5552
 Frc consts  --      0.3591                 0.4161                 0.6477
 IR Inten    --      2.1627                 4.2138                 2.2720

                     10                     11                     12
                      A                      A                      A
 Frequencies --    672.8985               782.4541               789.9547
 Red. masses --      4.5184                 3.5604                 2.4012
 Frc consts  --      1.2054                 1.2843                 0.8828
 IR Inten    --      4.6113                 4.5830                12.1368

                     13                     14                     15
                      A                      A                      A
 Frequencies --    849.2403               865.4743               890.3831
 Red. masses --      1.8703                 2.2176                 2.5095
 Frc consts  --      0.7947                 0.9787                 1.1722
 IR Inten    --      6.0285                 6.4430                 6.7101

                     16                     17                     18
                      A                      A                      A
 Frequencies --    921.2742               925.0942               984.4711
 Red. masses --      2.0349                 1.8301                 1.7239
 Frc consts  --      1.0176                 0.9228                 0.9844
 IR Inten    --     12.8309                 4.3186                17.4091

                     19                     20                     21
                      A                      A                      A
 Frequencies --    999.2460              1014.3845              1032.5222
 Red. masses --      3.0314                 2.6968                 2.1115
 Frc consts  --      1.7834                 1.6350                 1.3263
 IR Inten    --     11.0156                48.2193                42.1168

                     22                     23                     24
                      A                      A                      A
 Frequencies --   1039.3093              1066.0221              1083.2193
 Red. masses --      1.9882                 2.4555                 2.0411
 Frc consts  --      1.2653                 1.6441                 1.4110
 IR Inten    --      0.3214                32.8197                 9.1467

                     25                     26                     27
                      A                      A                      A
 Frequencies --   1096.6299              1130.8301              1147.9619
 Red. masses --      1.9805                 1.9546                 2.4421
 Frc consts  --      1.4033                 1.4726                 1.8962
 IR Inten    --     18.7344                19.3715                66.0251

                     28                     29                     30
                      A                      A                      A
 Frequencies --   1168.3251              1241.2488              1245.4201
 Red. masses --      1.4015                 1.5070                 1.8919
 Frc consts  --      1.1272                 1.3680                 1.7290
 IR Inten    --     38.0476                 0.0385                 3.3151

                     31                     32                     33
                      A                      A                      A
 Frequencies --   1281.7418              1295.7011              1323.3077
 Red. masses --      1.4159                 1.4531                 2.3272
 Frc consts  --      1.3705                 1.4373                 2.4011
 IR Inten    --      2.6217                 1.7274                 7.6508

                     34                     35                     36
                      A                      A                      A
 Frequencies --   1339.2555              1368.2396              1403.2723
 Red. masses --      1.3416                 1.6032                 1.4373
 Frc consts  --      1.4177                 1.7683                 1.6676
 IR Inten    --      7.9991                 6.4674                 9.8835

                     37                     38                     39
                      A                      A                      A
 Frequencies --   1414.2465              1479.4369              1487.3506
 Red. masses --      1.4904                 1.3700                 1.0460
 Frc consts  --      1.7563                 1.7667                 1.3633
 IR Inten    --      1.6777                10.8776                 3.4957

                     40                     41                     42
                      A                      A                      A
 Frequencies --   1504.7506              1509.0802              3023.9859
 Red. masses --      1.0752                 1.0986                 1.0559
 Frc consts  --      1.4344                 1.4740                 5.6889
 IR Inten    --      5.5836                 1.1758                71.9534

                     43                     44                     45
                      A                      A                      A
 Frequencies --   3030.7380              3040.9908              3076.9850
 Red. masses --      1.0379                 1.0857                 1.1092
 Frc consts  --      5.6169                 5.9155                 6.1872
 IR Inten    --     31.2176                36.3543                16.5066

                     46                     47                     48
                      A                      A                      A
 Frequencies --   3093.0732              3099.8134              3117.8843
 Red. masses --      1.0988                 1.0909                 1.0937
 Frc consts  --      6.1936                 6.1762                 6.2643
 IR Inten    --     19.5846                54.3726                 4.1935

                     49                     50                     51
                      A                      A                      A
 Frequencies --   3119.8813              3174.5613              3209.2315
 Red. masses --      1.0606                 1.0925                 1.1165
 Frc consts  --      6.0823                 6.4868                 6.7750
 IR Inten    --     18.4285                15.2873                 9.8751

 - Thermochemistry -
 -------------------
 Temperature   298.150 Kelvin.  Pressure   1.00000 Atm.
 Atom     1 has atomic number  6 and mass  12.00000

 Molecular mass:   126.06808 amu.
 Principal axes and moments of inertia in atomic units:
                           1         2         3
     Eigenvalues --   675.99752 964.000601359.08696
           X            0.99826  -0.05874   0.00429
           Y            0.05885   0.99775  -0.03200
           Z           -0.00240   0.03220   0.99948
 This molecule is an asymmetric top.
 Rotational symmetry number  1.
 Warning -- assumption of classical behavior for rotation
           may cause significant error
 Rotational temperatures (Kelvin)      0.12813     0.08985     0.06373
 Rotational constants (GHZ):           2.66975     1.87214     1.32791
 Zero-point vibrational energy     419819.7 (Joules/Mol)
                                  100.33932 (Kcal/Mol)
 Warning -- explicit consideration of   9 degrees of freedom as
           vibrations may cause significant error
 Vibrational temperatures:    124.13   247.25   283.85   352.76   448.50
          (Kelvin)            535.93   647.49   658.38   800.04   968.15
                             1125.78  1136.57  1221.87  1245.22  1281.06
                             1325.51  1331.00  1416.43  1437.69  1459.47
                             1485.57  1495.33  1533.77  1558.51  1577.80
                             1627.01  1651.66  1680.96  1785.88  1791.88
                             1844.14  1864.22  1903.94  1926.89  1968.59
                             2018.99  2034.78  2128.58  2139.96  2165.00
                             2171.23  4350.84  4360.55  4375.30  4427.09
                             4450.24  4459.93  4485.93  4488.81  4567.48
                             4617.36

 Zero-point correction=                           0.159901 (Hartree/Particle)
 Thermal correction to Energy=                    0.167611
 Thermal correction to Enthalpy=                  0.168555
 Thermal correction to Gibbs Free Energy=         0.127756
 Sum of electronic and zero-point Energies=           -422.996539
 Sum of electronic and thermal Energies=              -422.988829
 Sum of electronic and thermal Enthalpies=            -422.987885
 Sum of electronic and thermal Free Energies=         -423.028685

                     E (Thermal)             CV                S
                      KCal/Mol        Cal/Mol-Kelvin    Cal/Mol-Kelvin
 Total                  105.178             30.211             85.870
 Electronic               0.000              0.000              0.000
 Translational            0.889              2.981             40.409
 Rotational               0.889              2.981             28.273
 Vibrational            103.400             24.249             17.189
 Vibration     1          0.601              1.959              3.743
 Vibration     2          0.626              1.877              2.415
 Vibration     3          0.637              1.844              2.158
 Vibration     4          0.660              1.771              1.765
 Vibration     5          0.700              1.651              1.353
 Vibration     6          0.744              1.529              1.070
 Vibration     7          0.809              1.361              0.796
 Vibration     8          0.816              1.344              0.773
 Vibration     9          0.912              1.126              0.532

 Normal termination of Gaussian 09 at Mon Jan 27 18:33:39 2020.
