 Gaussian 09, Revision D.01,
 Gaussian 09:  ES64L-G09RevD.01 24-Apr-2013

 -----------------------------
 # b3lyp 6-31G(2df,p) opt Freq
 -----------------------------

 -----
 titel
 -----
 Symbolic Z-matrix:
 Charge =  0 Multiplicity = 1

 SCF Done:  E(RB3LYP) =  -423.155229522     A.U. after   13 cycles
 Optimization completed.
    -- Stationary point found.
 Normal termination of Gaussian 09 at Mon Jan 27 18:04:47 2020.

 ----------------------------------------------------------------------
 #N Geom=AllCheck Guess=TCheck SCRF=Check GenChk RB3LYP/6-31G(2df,p) Fr
 eq
 ----------------------------------------------------------------------

 Structure from the checkpoint file:  "/scratch/puck/g09_5026a745-f22b-45b7-93dc-0027307663f9/Gau-170364.chk"
 -----
 titel
 -----
 Charge =  0 Multiplicity = 1

                         Standard orientation:
 ---------------------------------------------------------------------
 Center     Atomic      Atomic             Coordinates (Angstroms)
 Number     Number       Type             X           Y           Z
 ---------------------------------------------------------------------
      1          6           0        2.092888   -1.315164   -0.296777
      2          6           0        0.956508   -0.357134   -0.004784
      3          6           0       -0.122975   -0.803787    1.047118
      4          6           0       -1.195351   -0.306036    0.082372
      5          8           0       -2.481753   -0.803032   -0.020614
      6          6           0       -0.791430    1.054924   -0.456314
      7          8           0        0.139466    1.836688    0.263358
      8          6           0        1.362297    1.092141    0.291240
      9          6           0       -0.184972   -0.172976   -1.053073
     10          1           0        2.701946   -0.964287   -1.137729
     11          1           0        2.751832   -1.420369    0.572650
     12          1           0        1.713957   -2.310241   -0.548992
     13          1           0       -0.156780   -1.892813    1.139054
     14          1           0       -0.072170   -0.348860    2.043056
     15          1           0       -3.040713   -0.326691    0.603814
     16          1           0       -1.538685    1.631663   -0.988852
     17          1           0        2.058934    1.473743   -0.471619
     18          1           0        1.819835    1.215770    1.278937
     19          1           0       -0.201656   -0.478969   -2.090951
 ---------------------------------------------------------------------

 SCF Done:  E(RB3LYP) =  -423.155229522     A.U. after    1 cycles

 The electronic state is 1-A.
 Alpha  occ. eigenvalues --  -19.14870 -19.13552 -10.23723 -10.22865 -10.22278
 Alpha  occ. eigenvalues --  -10.20303 -10.18442 -10.18173 -10.18097  -1.04455
 Alpha  occ. eigenvalues --   -1.02762  -0.87840  -0.77694  -0.69924  -0.67796
 Alpha  occ. eigenvalues --   -0.60256  -0.58202  -0.53459  -0.53150  -0.47457
 Alpha  occ. eigenvalues --   -0.46248  -0.44791  -0.42868  -0.41028  -0.40454
 Alpha  occ. eigenvalues --   -0.39841  -0.38090  -0.34961  -0.33779  -0.32022
 Alpha  occ. eigenvalues --   -0.31070  -0.28209  -0.25787  -0.22009
 Alpha virt. eigenvalues --    0.08000   0.08815   0.10870   0.11615   0.13206
 Alpha virt. eigenvalues --    0.13625   0.14630   0.15702   0.16010   0.16564
 Alpha virt. eigenvalues --    0.17784   0.18827   0.19404   0.20995   0.23369

 Mulliken charges:
               1
     1  C   -0.495132
     2  C    0.292411
     3  C   -0.341573
     4  C    0.346469
     5  O   -0.461989
     6  C    0.029072
     7  O   -0.269765
     8  C   -0.108403
     9  C   -0.224723
    10  H    0.118732
    11  H    0.119475
    12  H    0.123982
    13  H    0.104888
    14  H    0.091931
    15  H    0.286739
    16  H    0.103490
    17  H    0.087636
    18  H    0.104023
    19  H    0.092736
 Sum of Mulliken charges =   0.00000

 Dipole moment (field-independent basis, Debye):
    X=              0.4674    Y=             -0.5232    Z=              0.2902  Tot=              0.7592
 Quadrupole moment (field-independent basis, Debye-Ang):
   XX=            -49.1540   YY=            -57.9854   ZZ=            -51.3383
   XY=             -3.3277   XZ=             -2.2208   YZ=             -1.3688

  Exact polarizability:  84.128  -0.871  70.229  -0.606  -1.195  67.885
 Approx polarizability: 115.020   0.780 105.009  -2.037   0.637 105.054

                      1                      2                      3
                      A                      A                      A
 Frequencies --    184.0979               219.8467               240.5568
 Red. masses --      2.7833                 1.0971                 2.3794
 Frc consts  --      0.0556                 0.0312                 0.0811
 IR Inten    --      2.7469                 0.4864                20.2253

                      4                      5                      6
                      A                      A                      A
 Frequencies --    262.3985               297.1970               333.7015
 Red. masses --      1.3679                 2.8317                 2.2601
 Frc consts  --      0.0555                 0.1474                 0.1483
 IR Inten    --     58.1762                 3.0006                17.4327

                      7                      8                      9
                      A                      A                      A
 Frequencies --    359.1692               425.5574               486.6506
 Red. masses --      3.1707                 2.1262                 3.2122
 Frc consts  --      0.2410                 0.2269                 0.4482
 IR Inten    --     10.3580                 2.9025                 4.6546

                     10                     11                     12
                      A                      A                      A
 Frequencies --    556.9011               592.7092               718.7735
 Red. masses --      4.3571                 3.1683                 3.4097
 Frc consts  --      0.7962                 0.6558                 1.0379
 IR Inten    --      1.8048                 2.1960                 1.4038

                     13                     14                     15
                      A                      A                      A
 Frequencies --    721.9690               790.1753               843.1716
 Red. masses --      3.7914                 3.1258                 3.1898
 Frc consts  --      1.1644                 1.1499                 1.3361
 IR Inten    --      8.4898                 8.6349                 3.3034

                     16                     17                     18
                      A                      A                      A
 Frequencies --    886.7440               906.1843               943.4127
 Red. masses --      1.8459                 1.7453                 1.9035
 Frc consts  --      0.8552                 0.8444                 0.9982
 IR Inten    --      9.0845                 8.6433                 2.4211

                     19                     20                     21
                      A                      A                      A
 Frequencies --    963.4310               982.9347              1005.7083
 Red. masses --      1.8086                 2.0591                 1.6930
 Frc consts  --      0.9891                 1.1721                 1.0089
 IR Inten    --      8.9133                21.4346                12.1167

                     22                     23                     24
                      A                      A                      A
 Frequencies --   1023.1016              1037.5084              1077.8172
 Red. masses --      2.4337                 1.6174                 4.4883
 Frc consts  --      1.5009                 1.0258                 3.0720
 IR Inten    --      5.1654                 1.0609               140.2506

                     25                     26                     27
                      A                      A                      A
 Frequencies --   1104.3090              1146.0769              1168.2290
 Red. masses --      1.7521                 1.6860                 1.9910
 Frc consts  --      1.2589                 1.3048                 1.6009
 IR Inten    --      1.5114                 2.0512                 7.4637

                     28                     29                     30
                      A                      A                      A
 Frequencies --   1192.3125              1226.5944              1247.7252
 Red. masses --      1.6652                 1.3816                 1.6487
 Frc consts  --      1.3948                 1.2247                 1.5122
 IR Inten    --      7.7348                 6.0012                 5.0143

                     31                     32                     33
                      A                      A                      A
 Frequencies --   1259.2049              1277.7548              1297.3336
 Red. masses --      2.3765                 1.9027                 2.2221
 Frc consts  --      2.2202                 1.8302                 2.2035
 IR Inten    --     33.0211                15.5414               105.7217

                     34                     35                     36
                      A                      A                      A
 Frequencies --   1325.3860              1385.8131              1413.5719
 Red. masses --      1.8703                 1.7089                 1.2783
 Frc consts  --      1.9358                 1.9336                 1.5049
 IR Inten    --      0.9902                 8.3393                 1.7083

                     37                     38                     39
                      A                      A                      A
 Frequencies --   1433.7846              1493.1595              1496.1294
 Red. masses --      2.3346                 1.0862                 1.0972
 Frc consts  --      2.8277                 1.4268                 1.4471
 IR Inten    --     21.0399                 5.8151                 3.8752

                     40                     41                     42
                      A                      A                      A
 Frequencies --   1497.2146              1514.6650              2980.7493
 Red. masses --      1.1595                 1.0952                 1.0678
 Frc consts  --      1.5314                 1.4804                 5.5896
 IR Inten    --      4.9879                 0.3691                72.4045

                     43                     44                     45
                      A                      A                      A
 Frequencies --   3025.9623              3033.6026              3065.5058
 Red. masses --      1.0367                 1.0593                 1.0953
 Frc consts  --      5.5930                 5.7438                 6.0643
 IR Inten    --     32.6515                37.6294                32.3609

                     46                     47                     48
                      A                      A                      A
 Frequencies --   3089.2596              3098.3617              3103.5870
 Red. masses --      1.1008                 1.1042                 1.1011
 Frc consts  --      6.1898                 6.2456                 6.2487
 IR Inten    --     26.1151                 8.0142                32.9717

                     49                     50                     51
                      A                      A                      A
 Frequencies --   3187.8688              3200.4756              3790.3692
 Red. masses --      1.0900                 1.0968                 1.0660
 Frc consts  --      6.5265                 6.6192                 9.0236
 IR Inten    --     10.8984                 9.8318                25.6718

 - Thermochemistry -
 -------------------
 Temperature   298.150 Kelvin.  Pressure   1.00000 Atm.
 Atom     1 has atomic number  6 and mass  12.00000

 Molecular mass:   126.06808 amu.
 Principal axes and moments of inertia in atomic units:
                           1         2         3
     Eigenvalues --   675.190691052.183341389.57872
           X            0.99811  -0.06113  -0.00596
           Y            0.06105   0.99805  -0.01292
           Z            0.00673   0.01254   0.99990
 This molecule is an asymmetric top.
 Rotational symmetry number  1.
 Warning -- assumption of classical behavior for rotation
           may cause significant error
 Rotational temperatures (Kelvin)      0.12828     0.08232     0.06233
 Rotational constants (GHZ):           2.67294     1.71523     1.29877
 Zero-point vibrational energy     418182.9 (Joules/Mol)
                                   99.94811 (Kcal/Mol)
 Warning -- explicit consideration of  11 degrees of freedom as
           vibrations may cause significant error
 Vibrational temperatures:    264.88   316.31   346.11   377.53   427.60
          (Kelvin)            480.12   516.76   612.28   700.18   801.26
                              852.78  1034.15  1038.75  1136.88  1213.13
                             1275.83  1303.80  1357.36  1386.16  1414.22
                             1446.99  1472.01  1492.74  1550.74  1588.85
                             1648.95  1680.82  1715.47  1764.79  1795.20
                             1811.71  1838.40  1866.57  1906.93  1993.87
                             2033.81  2062.89  2148.32  2152.59  2154.16
                             2179.26  4288.63  4353.68  4364.67  4410.57
                             4444.75  4457.85  4465.36  4586.63  4604.76
                             5453.49

 Zero-point correction=                           0.159277 (Hartree/Particle)
 Thermal correction to Energy=                    0.167141
 Thermal correction to Enthalpy=                  0.168085
 Thermal correction to Gibbs Free Energy=         0.127596
 Sum of electronic and zero-point Energies=           -422.995952
 Sum of electronic and thermal Energies=              -422.988089
 Sum of electronic and thermal Enthalpies=            -422.987145
 Sum of electronic and thermal Free Energies=         -423.027634

                     E (Thermal)             CV                S
                      KCal/Mol        Cal/Mol-Kelvin    Cal/Mol-Kelvin
 Total                  104.882             31.865             85.217
 Electronic               0.000              0.000              0.000
 Translational            0.889              2.981             40.409
 Rotational               0.889              2.981             28.381
 Vibrational            103.105             25.903             16.428
 Vibration     1          0.631              1.862              2.286
 Vibration     2          0.647              1.811              1.960
 Vibration     3          0.658              1.778              1.799
 Vibration     4          0.670              1.742              1.646
 Vibration     5          0.691              1.679              1.433
 Vibration     6          0.715              1.608              1.242
 Vibration     7          0.734              1.556              1.126
 Vibration     8          0.787              1.415              0.873
 Vibration     9          0.843              1.280              0.692
 Vibration    10          0.912              1.125              0.530
 Vibration    11          0.950              1.047              0.462

 Optimization completed.
    -- Stationary point found.
 Normal termination of Gaussian 09 at Mon Jan 27 18:50:17 2020.
