 Gaussian 09, Revision D.01,
 Gaussian 09:  ES64L-G09RevD.01 24-Apr-2013

 -----------------------------
 # b3lyp 6-31G(2df,p) opt Freq
 -----------------------------

 -----
 titel
 -----
 Symbolic Z-matrix:
 Charge =  0 Multiplicity = 1

 SCF Done:  E(RB3LYP) =  -423.189148475     A.U. after   14 cycles
 Optimization completed.
    -- Stationary point found.
 Normal termination of Gaussian 09 at Mon Jan 27 17:27:37 2020.

 ----------------------------------------------------------------------
 #N Geom=AllCheck Guess=TCheck SCRF=Check GenChk RB3LYP/6-31G(2df,p) Fr
 eq
 ----------------------------------------------------------------------

 Structure from the checkpoint file:  "/scratch/puck/g09_f15bcb42-75a6-47c4-8db9-73907f5e6af1/Gau-169132.chk"
 -----
 titel
 -----
 Charge =  0 Multiplicity = 1

                         Standard orientation:
 ---------------------------------------------------------------------
 Center     Atomic      Atomic             Coordinates (Angstroms)
 Number     Number       Type             X           Y           Z
 ---------------------------------------------------------------------
      1          6           0        2.122946   -1.151596   -0.809909
      2          6           0        1.262053   -0.138262   -0.097837
      3          6           0        1.372364    0.083697    1.391095
      4          6           0        0.110197   -0.506497    0.813441
      5          6           0       -0.990936    0.489325    0.512914
      6          8           0       -0.372979    1.572448   -0.176578
      7          6           0        0.766793    1.068762   -0.880498
      8          6           0       -2.121781   -0.114182   -0.319781
      9          8           0       -2.546113   -1.231933   -0.183635
     10          1           0        1.635309   -1.518257   -1.720474
     11          1           0        3.088982   -0.721306   -1.098886
     12          1           0        2.326185   -2.014542   -0.169129
     13          1           0        2.022945   -0.586066    1.943269
     14          1           0        1.335534    1.099524    1.773347
     15          1           0       -0.173302   -1.533472    1.005041
     16          1           0       -1.455757    0.915345    1.415199
     17          1           0        0.495513    0.762494   -1.904178
     18          1           0        1.488309    1.889988   -0.948880
     19          1           0       -2.540800    0.594683   -1.070161
 ---------------------------------------------------------------------

 SCF Done:  E(RB3LYP) =  -423.189148475     A.U. after    1 cycles

 The electronic state is 1-A.
 Alpha  occ. eigenvalues --  -19.15077 -19.14701 -10.27211 -10.24453 -10.23517
 Alpha  occ. eigenvalues --  -10.20568 -10.19777 -10.19071 -10.18762  -1.05753
 Alpha  occ. eigenvalues --   -1.04456  -0.87175  -0.76621  -0.71599  -0.67162
 Alpha  occ. eigenvalues --   -0.61364  -0.56655  -0.56352  -0.50284  -0.48826
 Alpha  occ. eigenvalues --   -0.47878  -0.44883  -0.43764  -0.42381  -0.41564
 Alpha  occ. eigenvalues --   -0.40779  -0.39040  -0.38405  -0.35903  -0.32418
 Alpha  occ. eigenvalues --   -0.30336  -0.28702  -0.27802  -0.24112
 Alpha virt. eigenvalues --   -0.03010   0.09074   0.09810   0.10959   0.11844
 Alpha virt. eigenvalues --    0.13150   0.13961   0.14058   0.15665   0.16418
 Alpha virt. eigenvalues --    0.17325   0.17943   0.19463   0.19957   0.21447

 Mulliken charges:
               1
     1  C   -0.487790
     2  C    0.331657
     3  C   -0.352028
     4  C   -0.089006
     5  C   -0.000138
     6  O   -0.270799
     7  C   -0.145934
     8  C    0.132944
     9  O   -0.242628
    10  H    0.122377
    11  H    0.122092
    12  H    0.123507
    13  H    0.113395
    14  H    0.121019
    15  H    0.111607
    16  H    0.113832
    17  H    0.093657
    18  H    0.112087
    19  H    0.090149
 Sum of Mulliken charges =   0.00000

 Dipole moment (field-independent basis, Debye):
    X=              2.0073    Y=              0.5141    Z=              0.0226  Tot=              2.0722
 Quadrupole moment (field-independent basis, Debye-Ang):
   XX=            -55.4432   YY=            -57.4106   ZZ=            -51.2218
   XY=             -4.6014   XZ=             -0.9313   YZ=             -0.4308

  Exact polarizability:  82.061   0.767  71.179   0.632  -1.476  71.900
 Approx polarizability: 109.244   6.579 112.612  -0.639  -3.052 106.130

                      1                      2                      3
                      A                      A                      A
 Frequencies --     61.1733               133.9463               157.1878
 Red. masses --      4.7038                 2.4925                 3.0291
 Frc consts  --      0.0104                 0.0263                 0.0441
 IR Inten    --      7.1533                 3.1359                 1.1675

                      4                      5                      6
                      A                      A                      A
 Frequencies --    208.2274               250.4510               300.6433
 Red. masses --      1.0879                 3.3625                 2.6728
 Frc consts  --      0.0278                 0.1243                 0.1423
 IR Inten    --      0.2879                 7.8007                 2.1905

                      7                      8                      9
                      A                      A                      A
 Frequencies --    367.6979               377.2383               438.7138
 Red. masses --      2.7117                 2.1563                 3.0828
 Frc consts  --      0.2160                 0.1808                 0.3496
 IR Inten    --      3.9415                 1.9422                 4.9659

                     10                     11                     12
                      A                      A                      A
 Frequencies --    559.4592               592.9995               703.0546
 Red. masses --      4.3688                 3.8263                 3.9914
 Frc consts  --      0.8057                 0.7928                 1.1624
 IR Inten    --      1.2190                 8.8807                 3.0638

                     13                     14                     15
                      A                      A                      A
 Frequencies --    738.7939               803.4907               859.0217
 Red. masses --      3.2402                 2.4192                 2.7501
 Frc consts  --      1.0420                 0.9202                 1.1957
 IR Inten    --      5.3339                10.2989                14.3955

                     16                     17                     18
                      A                      A                      A
 Frequencies --    912.5958               940.4546               956.6254
 Red. masses --      1.3869                 1.6206                 1.7420
 Frc consts  --      0.6806                 0.8445                 0.9393
 IR Inten    --      8.6426                 1.6726                11.6423

                     19                     20                     21
                      A                      A                      A
 Frequencies --    963.1349              1029.0347              1042.0474
 Red. masses --      2.5230                 2.1412                 1.5207
 Frc consts  --      1.3790                 1.3359                 0.9729
 IR Inten    --     14.4955                 7.8523                13.3174

                     22                     23                     24
                      A                      A                      A
 Frequencies --   1053.8377              1076.6703              1086.2084
 Red. masses --      2.1067                 1.4589                 2.3206
 Frc consts  --      1.3785                 0.9964                 1.6132
 IR Inten    --      3.7746                 1.8869                15.6800

                     25                     26                     27
                      A                      A                      A
 Frequencies --   1099.1478              1133.6786              1147.0451
 Red. masses --      1.7874                 2.3852                 1.9350
 Frc consts  --      1.2723                 1.8061                 1.5000
 IR Inten    --     13.0530                43.7738                 3.5840

                     28                     29                     30
                      A                      A                      A
 Frequencies --   1231.2911              1260.5492              1275.0925
 Red. masses --      1.1861                 1.5776                 1.6886
 Frc consts  --      1.0595                 1.4770                 1.6176
 IR Inten    --      7.2803                 1.3622                 5.3703

                     31                     32                     33
                      A                      A                      A
 Frequencies --   1309.9946              1330.1355              1358.5636
 Red. masses --      2.3091                 1.4455                 1.8961
 Frc consts  --      2.3347                 1.5069                 2.0619
 IR Inten    --      3.5389                 1.7201                 4.2158

                     34                     35                     36
                      A                      A                      A
 Frequencies --   1393.2810              1413.0969              1424.4686
 Red. masses --      1.2562                 1.2976                 1.5987
 Frc consts  --      1.4367                 1.5267                 1.9113
 IR Inten    --      8.1083                 2.1680                 1.0568

                     37                     38                     39
                      A                      A                      A
 Frequencies --   1486.0546              1490.1554              1501.0903
 Red. masses --      1.3504                 1.0576                 1.0996
 Frc consts  --      1.7571                 1.3836                 1.4599
 IR Inten    --      3.4822                 3.7545                 4.1845

                     40                     41                     42
                      A                      A                      A
 Frequencies --   1519.5252              1832.7815              2880.0805
 Red. masses --      1.0944                11.0237                 1.0841
 Frc consts  --      1.4888                21.8171                 5.2984
 IR Inten    --      1.3339               129.2499                98.7779

                     43                     44                     45
                      A                      A                      A
 Frequencies --   2970.6122              2997.7826              3025.2479
 Red. masses --      1.0699                 1.0819                 1.0365
 Frc consts  --      5.5627                 5.7283                 5.5890
 IR Inten    --     66.6552                31.0562                35.3772

                     46                     47                     48
                      A                      A                      A
 Frequencies --   3065.4664              3083.6273              3105.3564
 Red. masses --      1.0930                 1.1009                 1.0999
 Frc consts  --      6.0515                 6.1675                 6.2494
 IR Inten    --     33.2867                26.1290                17.3023

                     49                     50                     51
                      A                      A                      A
 Frequencies --   3124.1357              3200.9015              3213.9444
 Red. masses --      1.0543                 1.0946                 1.1129
 Frc consts  --      6.0629                 6.6079                 6.7731
 IR Inten    --     13.4477                 0.4294                 7.7798

 - Thermochemistry -
 -------------------
 Temperature   298.150 Kelvin.  Pressure   1.00000 Atm.
 Atom     1 has atomic number  6 and mass  12.00000

 Molecular mass:   126.06808 amu.
 Principal axes and moments of inertia in atomic units:
                           1         2         3
     Eigenvalues --   676.888511368.522851518.33084
           X            0.99899  -0.04375  -0.00980
           Y            0.04387   0.99896   0.01218
           Z            0.00926  -0.01259   0.99988
 This molecule is an asymmetric top.
 Rotational symmetry number  1.
 Warning -- assumption of classical behavior for rotation
           may cause significant error
 Rotational temperatures (Kelvin)      0.12796     0.06329     0.05705
 Rotational constants (GHZ):           2.66623     1.31875     1.18864
 Zero-point vibrational energy     415617.5 (Joules/Mol)
                                   99.33496 (Kcal/Mol)
 Warning -- explicit consideration of  11 degrees of freedom as
           vibrations may cause significant error
 Vibrational temperatures:     88.01   192.72   226.16   299.59   360.34
          (Kelvin)            432.56   529.03   542.76   631.21   804.94
                              853.19  1011.54  1062.96  1156.04  1235.94
                             1313.02  1353.10  1376.37  1385.73  1480.55
                             1499.27  1516.24  1549.09  1562.81  1581.43
                             1631.11  1650.34  1771.55  1813.65  1834.57
                             1884.79  1913.77  1954.67  2004.62  2033.13
                             2049.49  2138.10  2144.00  2159.73  2186.26
                             2636.96  4143.79  4274.04  4313.14  4352.65
                             4410.52  4436.65  4467.91  4494.93  4605.38
                             4624.14

 Zero-point correction=                           0.158300 (Hartree/Particle)
 Thermal correction to Energy=                    0.166857
 Thermal correction to Enthalpy=                  0.167801
 Thermal correction to Gibbs Free Energy=         0.124845
 Sum of electronic and zero-point Energies=           -423.030848
 Sum of electronic and thermal Energies=              -423.022292
 Sum of electronic and thermal Enthalpies=            -423.021347
 Sum of electronic and thermal Free Energies=         -423.064303

                     E (Thermal)             CV                S
                      KCal/Mol        Cal/Mol-Kelvin    Cal/Mol-Kelvin
 Total                  104.704             32.095             90.408
 Electronic               0.000              0.000              0.000
 Translational            0.889              2.981             40.409
 Rotational               0.889              2.981             28.733
 Vibrational            102.927             26.133             21.266
 Vibration     1          0.597              1.973              4.419
 Vibration     2          0.613              1.919              2.889
 Vibration     3          0.621              1.895              2.583
 Vibration     4          0.642              1.828              2.059
 Vibration     5          0.663              1.762              1.727
 Vibration     6          0.693              1.672              1.413
 Vibration     7          0.740              1.539              1.089
 Vibration     8          0.748              1.519              1.050
 Vibration     9          0.799              1.386              0.831
 Vibration    10          0.915              1.119              0.525
 Vibration    11          0.951              1.047              0.462

 Optimization completed.
    -- Stationary point found.
 Normal termination of Gaussian 09 at Mon Jan 27 18:14:14 2020.
