 Gaussian 09, Revision D.01,
 Gaussian 09:  ES64L-G09RevD.01 24-Apr-2013

 -----------------------------
 # b3lyp 6-31G(2df,p) opt Freq
 -----------------------------

 -----
 titel
 -----
 Symbolic Z-matrix:
 Charge =  0 Multiplicity = 1

 SCF Done:  E(RB3LYP) =  -423.191478257     A.U. after   14 cycles
 SCF Done:  E(RB3LYP) =  -423.191478187     A.U. after    7 cycles
 SCF Done:  E(RB3LYP) =  -423.191479330     A.U. after    8 cycles
 SCF Done:  E(RB3LYP) =  -423.191478729     A.U. after    7 cycles
 Optimization completed.
    -- Stationary point found.
 Normal termination of Gaussian 09 at Tue Jan 28 01:00:26 2020.

 ----------------------------------------------------------------------
 #N Geom=AllCheck Guess=TCheck SCRF=Check GenChk RB3LYP/6-31G(2df,p) Fr
 eq
 ----------------------------------------------------------------------

 Structure from the checkpoint file:  "/scratch/puck/g09_a57c129e-6f8c-4b40-a925-b47f828ec2d8/Gau-71762.chk"
 -----
 titel
 -----
 Charge =  0 Multiplicity = 1

                         Standard orientation:
 ---------------------------------------------------------------------
 Center     Atomic      Atomic             Coordinates (Angstroms)
 Number     Number       Type             X           Y           Z
 ---------------------------------------------------------------------
      1          8           0        0.815437    1.991392   -0.475777
      2          6           0        1.266191    0.870187    0.285317
      3          6           0        0.124244    0.490872    1.245630
      4          6           0       -0.770246   -0.526285    0.477835
      5          6           0       -1.868953    0.177078   -0.300834
      6          8           0       -3.040435   -0.091396   -0.210513
      7          6           0        0.199203   -1.201814   -0.494310
      8          6           0        1.504136   -1.699687    0.077315
      9          6           0        1.448052   -0.353214   -0.598777
     10          1           0        1.460096    2.162012   -1.170180
     11          1           0        2.181051    1.136063    0.835193
     12          1           0        0.524503    0.023369    2.148461
     13          1           0       -0.417501    1.386846    1.558141
     14          1           0       -1.255948   -1.237309    1.152896
     15          1           0       -1.504815    0.977229   -0.980550
     16          1           0       -0.209414   -1.714259   -1.358289
     17          1           0        1.630669   -1.754024    1.153582
     18          1           0        2.001177   -2.498182   -0.462301
     19          1           0        1.974406   -0.224544   -1.539678
 ---------------------------------------------------------------------

 SCF Done:  E(RB3LYP) =  -423.191478729     A.U. after    1 cycles

 The electronic state is 1-A.
 Alpha  occ. eigenvalues --  -19.14496 -19.12901 -10.25741 -10.24243 -10.20284
 Alpha  occ. eigenvalues --  -10.19932 -10.19709 -10.19607 -10.19288  -1.03538
 Alpha  occ. eigenvalues --   -1.02662  -0.89077  -0.77859  -0.72249  -0.63864
 Alpha  occ. eigenvalues --   -0.59288  -0.57332  -0.56171  -0.52360  -0.51224
 Alpha  occ. eigenvalues --   -0.47090  -0.44235  -0.43173  -0.41321  -0.40587
 Alpha  occ. eigenvalues --   -0.38292  -0.38206  -0.37101  -0.33838  -0.33053
 Alpha  occ. eigenvalues --   -0.30741  -0.29128  -0.27557  -0.23714
 Alpha virt. eigenvalues --   -0.01271   0.06927   0.08602   0.09122   0.12175
 Alpha virt. eigenvalues --    0.13545   0.15366   0.15461   0.15687   0.16243
 Alpha virt. eigenvalues --    0.17379   0.18105   0.19564   0.22077   0.22796

 Mulliken charges:
               1
     1  O   -0.432389
     2  C    0.128454
     3  C   -0.276769
     4  C   -0.079644
     5  C    0.145051
     6  O   -0.258384
     7  C   -0.031478
     8  C   -0.321425
     9  C   -0.054842
    10  H    0.282234
    11  H    0.069661
    12  H    0.113493
    13  H    0.125874
    14  H    0.087830
    15  H    0.094407
    16  H    0.095470
    17  H    0.115438
    18  H    0.117948
    19  H    0.079071
 Sum of Mulliken charges =   0.00000

 Dipole moment (field-independent basis, Debye):
    X=              4.0985    Y=             -0.4165    Z=             -0.3073  Tot=              4.1310
 Quadrupole moment (field-independent basis, Debye-Ang):
   XX=            -61.9772   YY=            -53.5115   ZZ=            -49.0562
   XY=              0.5558   XZ=             -2.5782   YZ=             -0.7428

  Exact polarizability:  84.851  -0.705  73.650  -0.622  -2.270  67.120
 Approx polarizability: 124.162   1.849 106.337  -0.593  -5.551 101.331

                      1                      2                      3
                      A                      A                      A
 Frequencies --     63.9228               121.5598               171.6265
 Red. masses --      4.5547                 4.7597                 3.1639
 Frc consts  --      0.0110                 0.0414                 0.0549
 IR Inten    --      4.2500                 0.2315                 0.8867

                      4                      5                      6
                      A                      A                      A
 Frequencies --    278.0159               304.6177               307.7721
 Red. masses --      2.1913                 1.1263                 2.8386
 Frc consts  --      0.0998                 0.0616                 0.1584
 IR Inten    --      4.2706               103.5056                 7.8012

                      7                      8                      9
                      A                      A                      A
 Frequencies --    366.9594               407.5781               451.7784
 Red. masses --      3.8222                 2.3372                 4.5643
 Frc consts  --      0.3032                 0.2288                 0.5489
 IR Inten    --      3.8773                 9.5171                 5.6521

                     10                     11                     12
                      A                      A                      A
 Frequencies --    474.6126               693.5186               750.1097
 Red. masses --      3.1695                 2.7553                 3.9763
 Frc consts  --      0.4207                 0.7808                 1.3182
 IR Inten    --      4.3248                 4.7110                 2.8065

                     13                     14                     15
                      A                      A                      A
 Frequencies --    797.9333               833.5478               840.6602
 Red. masses --      2.2924                 1.5573                 2.2370
 Frc consts  --      0.8600                 0.6375                 0.9314
 IR Inten    --      4.1215                 7.8332                 2.4676

                     16                     17                     18
                      A                      A                      A
 Frequencies --    874.9265               926.7479               959.5112
 Red. masses --      2.1812                 2.4337                 2.5004
 Frc consts  --      0.9837                 1.2315                 1.3563
 IR Inten    --      1.6107                14.2269                10.2177

                     19                     20                     21
                      A                      A                      A
 Frequencies --    987.6551              1007.5841              1017.1598
 Red. masses --      2.0387                 2.5587                 2.2545
 Frc consts  --      1.1717                 1.5305                 1.3743
 IR Inten    --     25.2907                 2.6501                57.1405

                     22                     23                     24
                      A                      A                      A
 Frequencies --   1048.0607              1065.2355              1084.7207
 Red. masses --      1.8809                 1.4030                 1.3058
 Frc consts  --      1.2172                 0.9380                 0.9053
 IR Inten    --      3.4453                 3.9861                 4.1718

                     25                     26                     27
                      A                      A                      A
 Frequencies --   1106.8001              1121.3763              1137.2808
 Red. masses --      1.2608                 1.8575                 2.3203
 Frc consts  --      0.9100                 1.3762                 1.7682
 IR Inten    --      1.9658                 7.0115                 3.7573

                     28                     29                     30
                      A                      A                      A
 Frequencies --   1196.0860              1207.2498              1218.9223
 Red. masses --      1.3335                 1.4873                 1.3462
 Frc consts  --      1.1240                 1.2771                 1.1785
 IR Inten    --     11.3881                13.0844                10.8123

                     31                     32                     33
                      A                      A                      A
 Frequencies --   1272.0158              1279.4141              1324.1088
 Red. masses --      1.4608                 1.3421                 1.3308
 Frc consts  --      1.3926                 1.2944                 1.3747
 IR Inten    --     22.1533                 3.2436                 0.9367

                     34                     35                     36
                      A                      A                      A
 Frequencies --   1339.7275              1360.2747              1373.4264
 Red. masses --      1.4375                 2.0882                 1.5811
 Frc consts  --      1.5201                 2.2765                 1.7572
 IR Inten    --     19.5949                23.7338                 5.8735

                     37                     38                     39
                      A                      A                      A
 Frequencies --   1419.4335              1426.7151              1477.6644
 Red. masses --      1.4256                 1.2650                 1.1971
 Frc consts  --      1.6922                 1.5171                 1.5400
 IR Inten    --      6.6527                 7.8667                 5.1347

                     40                     41                     42
                      A                      A                      A
 Frequencies --   1497.1703              1826.9461              2911.3296
 Red. masses --      1.1608                 9.8230                 1.0840
 Frc consts  --      1.5331                19.3173                 5.4134
 IR Inten    --      7.6131               195.2380                54.5853

                     43                     44                     45
                      A                      A                      A
 Frequencies --   2991.2750              3065.7584              3076.7749
 Red. masses --      1.0841                 1.0778                 1.0686
 Frc consts  --      5.7153                 5.9683                 5.9602
 IR Inten    --     62.8272                14.7491                23.1438

                     46                     47                     48
                      A                      A                      A
 Frequencies --   3116.3774              3132.2483              3153.3643
 Red. masses --      1.1037                 1.0553                 1.0896
 Frc consts  --      6.3156                 6.1002                 6.3837
 IR Inten    --      7.3487                18.4881                17.1147

                     49                     50                     51
                      A                      A                      A
 Frequencies --   3171.3038              3214.9867              3815.3727
 Red. masses --      1.0926                 1.1152                 1.0662
 Frc consts  --      6.4741                 6.7914                 9.1442
 IR Inten    --      9.0382                10.4942                20.1498

 - Thermochemistry -
 -------------------
 Temperature   298.150 Kelvin.  Pressure   1.00000 Atm.
 Atom     1 has atomic number  8 and mass  15.99491

 Molecular mass:   126.06808 amu.
 Principal axes and moments of inertia in atomic units:
                           1         2         3
     Eigenvalues --   742.255681263.362641631.83924
           X            0.99980  -0.01951  -0.00444
           Y            0.01952   0.99981   0.00039
           Z            0.00444  -0.00048   0.99999
 This molecule is an asymmetric top.
 Rotational symmetry number  1.
 Warning -- assumption of classical behavior for rotation
           may cause significant error
 Rotational temperatures (Kelvin)      0.11669     0.06856     0.05308
 Rotational constants (GHZ):           2.43143     1.42852     1.10596
 Zero-point vibrational energy     419107.0 (Joules/Mol)
                                  100.16897 (Kcal/Mol)
 Warning -- explicit consideration of  10 degrees of freedom as
           vibrations may cause significant error
 Vibrational temperatures:     91.97   174.90   246.93   400.00   438.28
          (Kelvin)            442.81   527.97   586.41   650.01   682.86
                              997.82  1079.24  1148.05  1199.29  1209.52
                             1258.82  1333.38  1380.52  1421.01  1449.69
                             1463.46  1507.92  1532.63  1560.67  1592.44
                             1613.41  1636.29  1720.90  1736.96  1753.76
                             1830.14  1840.79  1905.09  1927.57  1957.13
                             1976.05  2042.25  2052.72  2126.03  2154.09
                             2628.56  4188.75  4303.77  4410.94  4426.79
                             4483.77  4506.60  4536.98  4562.79  4625.64
                             5489.46

 Zero-point correction=                           0.159629 (Hartree/Particle)
 Thermal correction to Energy=                    0.167968
 Thermal correction to Enthalpy=                  0.168912
 Thermal correction to Gibbs Free Energy=         0.126425
 Sum of electronic and zero-point Energies=           -423.031849
 Sum of electronic and thermal Energies=              -423.023511
 Sum of electronic and thermal Enthalpies=            -423.022567
 Sum of electronic and thermal Free Energies=         -423.065053

                     E (Thermal)             CV                S
                      KCal/Mol        Cal/Mol-Kelvin    Cal/Mol-Kelvin
 Total                  105.401             31.913             89.421
 Electronic               0.000              0.000              0.000
 Translational            0.889              2.981             40.409
 Rotational               0.889              2.981             28.816
 Vibrational            103.624             25.952             20.196
 Vibration     1          0.597              1.972              4.332
 Vibration     2          0.609              1.931              3.075
 Vibration     3          0.626              1.877              2.418
 Vibration     4          0.679              1.714              1.546
 Vibration     5          0.696              1.665              1.391
 Vibration     6          0.698              1.659              1.374
 Vibration     7          0.740              1.540              1.092
 Vibration     8          0.772              1.454              0.935
 Vibration     9          0.810              1.357              0.790
 Vibration    10          0.831              1.306              0.725

 Normal termination of Gaussian 09 at Tue Jan 28 01:44:17 2020.
