 Gaussian 09, Revision D.01,
 Gaussian 09:  ES64L-G09RevD.01 24-Apr-2013

 -----------------------------
 # b3lyp 6-31G(2df,p) opt Freq
 -----------------------------

 -----
 titel
 -----
 Symbolic Z-matrix:
 Charge =  0 Multiplicity = 1

 SCF Done:  E(RB3LYP) =  -423.198038569     A.U. after   14 cycles
 Optimization completed.
    -- Stationary point found.
 Normal termination of Gaussian 09 at Tue Jan 28 03:13:54 2020.

 ----------------------------------------------------------------------
 #N Geom=AllCheck Guess=TCheck SCRF=Check GenChk RB3LYP/6-31G(2df,p) Fr
 eq
 ----------------------------------------------------------------------

 Structure from the checkpoint file:  "/scratch/puck/g09_53dbee81-f7d2-45e3-8168-572e0dd55a59/Gau-45100.chk"
 -----
 titel
 -----
 Charge =  0 Multiplicity = 1

                         Standard orientation:
 ---------------------------------------------------------------------
 Center     Atomic      Atomic             Coordinates (Angstroms)
 Number     Number       Type             X           Y           Z
 ---------------------------------------------------------------------
      1          8           0       -2.598803   -0.098183   -0.649161
      2          6           0       -1.473900   -0.004932    0.213395
      3          6           0       -0.643534   -1.289718    0.016789
      4          6           0        0.833199   -1.072183    0.422139
      5          6           0        0.951324    0.031331    1.526834
      6          6           0        0.830879    1.094123    0.383334
      7          6           0       -0.646750    1.282416   -0.035897
      8          6           0        1.411857   -0.005463   -0.519321
      9          8           0        2.113047   -0.020933   -1.488977
     10          1           0       -3.179869    0.647165   -0.466141
     11          1           0       -1.818248    0.015096    1.257709
     12          1           0       -1.086731   -2.102115    0.601145
     13          1           0       -0.701618   -1.585933   -1.036174
     14          1           0        1.376986   -2.011298    0.536113
     15          1           0        0.194126    0.043596    2.312261
     16          1           0        1.944428    0.041404    1.980532
     17          1           0        1.370123    2.039503    0.463012
     18          1           0       -1.092627    2.119583    0.514603
     19          1           0       -0.698974    1.532493   -1.101597
 ---------------------------------------------------------------------

 SCF Done:  E(RB3LYP) =  -423.198038569     A.U. after    1 cycles

 The electronic state is 1-A.
 Alpha  occ. eigenvalues --  -19.14132 -19.13324 -10.26214 -10.24107 -10.19995
 Alpha  occ. eigenvalues --  -10.19873 -10.19813 -10.19443 -10.19174  -1.04242
 Alpha  occ. eigenvalues --   -1.02399  -0.87643  -0.75453  -0.74619  -0.64140
 Alpha  occ. eigenvalues --   -0.61573  -0.59176  -0.52459  -0.51316  -0.47849
 Alpha  occ. eigenvalues --   -0.45399  -0.44704  -0.43760  -0.40840  -0.40470
 Alpha  occ. eigenvalues --   -0.38978  -0.38010  -0.36771  -0.34416  -0.33353
 Alpha  occ. eigenvalues --   -0.32765  -0.30923  -0.27009  -0.23286
 Alpha virt. eigenvalues --   -0.01215   0.07049   0.07968   0.11215   0.12596
 Alpha virt. eigenvalues --    0.12742   0.13728   0.15871   0.16099   0.16691
 Alpha virt. eigenvalues --    0.17888   0.18456   0.20501   0.20890   0.23244

 Mulliken charges:
               1
     1  O   -0.438918
     2  C    0.134115
     3  C   -0.219703
     4  C   -0.145363
     5  C   -0.254791
     6  C   -0.138682
     7  C   -0.256532
     8  C    0.438575
     9  O   -0.324484
    10  H    0.281579
    11  H    0.073459
    12  H    0.108151
    13  H    0.129875
    14  H    0.087626
    15  H    0.105737
    16  H    0.113164
    17  H    0.086423
    18  H    0.095373
    19  H    0.124397
 Sum of Mulliken charges =   0.00000

 Dipole moment (field-independent basis, Debye):
    X=             -1.7631    Y=              1.0538    Z=              3.0227  Tot=              3.6546
 Quadrupole moment (field-independent basis, Debye-Ang):
   XX=            -55.9043   YY=            -50.4253   ZZ=            -56.7415
   XY=             -3.8743   XZ=              3.2575   YZ=             -0.6671

  Exact polarizability:  79.819  -1.506  73.399  -1.383  -0.010  70.443
 Approx polarizability: 111.251  -1.735 106.188  -7.651   0.935 113.438

                      1                      2                      3
                      A                      A                      A
 Frequencies --     91.4345               172.9184               220.9782
 Red. masses --      6.4732                 3.4000                 2.2853
 Frc consts  --      0.0319                 0.0599                 0.0657
 IR Inten    --      0.8871                 3.6442                 2.7903

                      4                      5                      6
                      A                      A                      A
 Frequencies --    288.0321               347.9953               380.8033
 Red. masses --      1.1094                 3.8087                 2.2000
 Frc consts  --      0.0542                 0.2717                 0.1880
 IR Inten    --     91.6921                16.1029                 0.9469

                      7                      8                      9
                      A                      A                      A
 Frequencies --    446.3058               463.7458               468.6576
 Red. masses --      5.0851                 3.4708                 2.3704
 Frc consts  --      0.5968                 0.4398                 0.3068
 IR Inten    --      3.7020                 0.2882                 7.8887

                     10                     11                     12
                      A                      A                      A
 Frequencies --    470.8693               677.0457               779.3453
 Red. masses --      5.5041                 2.6251                 3.3065
 Frc consts  --      0.7190                 0.7090                 1.1832
 IR Inten    --      2.2394                 0.4959                 0.6754

                     13                     14                     15
                      A                      A                      A
 Frequencies --    789.2990               818.6880               848.3840
 Red. masses --      3.8695                 3.0816                 3.0211
 Frc consts  --      1.4203                 1.2169                 1.2811
 IR Inten    --      0.8986                 2.4825                 7.0398

                     16                     17                     18
                      A                      A                      A
 Frequencies --    864.7696               916.2329               967.0270
 Red. masses --      1.4568                 2.1798                 2.0999
 Frc consts  --      0.6419                 1.0782                 1.1570
 IR Inten    --      6.5509                 6.5375                11.2816

                     19                     20                     21
                      A                      A                      A
 Frequencies --   1013.2895              1029.9745              1048.9280
 Red. masses --      2.0390                 3.2982                 1.7246
 Frc consts  --      1.2335                 2.0615                 1.1180
 IR Inten    --     22.2088                51.9517                 4.6634

                     22                     23                     24
                      A                      A                      A
 Frequencies --   1053.5647              1084.1641              1095.2924
 Red. masses --      1.5918                 1.8811                 1.6599
 Frc consts  --      1.0410                 1.3027                 1.1733
 IR Inten    --      7.3928                 9.3739                 5.4123

                     25                     26                     27
                      A                      A                      A
 Frequencies --   1117.1186              1145.7239              1177.3182
 Red. masses --      2.9236                 1.3397                 1.3836
 Frc consts  --      2.1496                 1.0361                 1.1299
 IR Inten    --     43.2848                 6.1468                 1.6247

                     28                     29                     30
                      A                      A                      A
 Frequencies --   1205.6922              1247.2627              1261.0885
 Red. masses --      1.4358                 1.5387                 1.5145
 Frc consts  --      1.2298                 1.4103                 1.4191
 IR Inten    --      0.9029                13.7245                 7.2195

                     31                     32                     33
                      A                      A                      A
 Frequencies --   1267.2205              1279.2362              1304.6009
 Red. masses --      1.4666                 1.5575                 1.2576
 Frc consts  --      1.3876                 1.5017                 1.2611
 IR Inten    --      1.3291                 9.2393                24.7583

                     34                     35                     36
                      A                      A                      A
 Frequencies --   1337.7152              1353.7755              1389.7978
 Red. masses --      1.4940                 1.3249                 1.3309
 Frc consts  --      1.5751                 1.4306                 1.5146
 IR Inten    --      0.4395                 1.3998                16.8915

                     37                     38                     39
                      A                      A                      A
 Frequencies --   1438.1217              1493.2733              1500.0783
 Red. masses --      1.4695                 1.0807                 1.0942
 Frc consts  --      1.7906                 1.4198                 1.4507
 IR Inten    --      4.4126                 1.5783                 2.9823

                     40                     41                     42
                      A                      A                      A
 Frequencies --   1507.0157              1892.8240              2976.6663
 Red. masses --      1.0932                11.9990                 1.0841
 Frc consts  --      1.4627                25.3289                 5.6593
 IR Inten    --      1.0447               275.2059                33.2858

                     43                     44                     45
                      A                      A                      A
 Frequencies --   3026.5831              3045.7705              3073.5999
 Red. masses --      1.0607                 1.0593                 1.1025
 Frc consts  --      5.7246                 5.7900                 6.1365
 IR Inten    --     35.9438                22.6124                13.2248

                     46                     47                     48
                      A                      A                      A
 Frequencies --   3075.9185              3088.0744              3099.9834
 Red. masses --      1.0591                 1.1044                 1.0875
 Frc consts  --      5.9038                 6.2051                 6.1573
 IR Inten    --     27.8593                19.4665                39.5010

                     49                     50                     51
                      A                      A                      A
 Frequencies --   3103.6273              3132.9310              3814.8548
 Red. masses --      1.0889                 1.1088                 1.0662
 Frc consts  --      6.1797                 6.4124                 9.1420
 IR Inten    --     17.9385                21.9189                18.5807

 - Thermochemistry -
 -------------------
 Temperature   298.150 Kelvin.  Pressure   1.00000 Atm.
 Atom     1 has atomic number  8 and mass  15.99491

 Molecular mass:   126.06808 amu.
 Principal axes and moments of inertia in atomic units:
                           1         2         3
     Eigenvalues --   652.570601363.942651370.46740
           X            0.99964   0.02138  -0.01597
           Y            0.00973   0.26523   0.96414
           Z           -0.02485   0.96395  -0.26492
 This molecule is an asymmetric top.
 Rotational symmetry number  1.
 Warning -- assumption of classical behavior for rotation
           may cause significant error
 Rotational temperatures (Kelvin)      0.13273     0.06350     0.06320
 Rotational constants (GHZ):           2.76559     1.32318     1.31688
 Zero-point vibrational energy     422841.7 (Joules/Mol)
                                  101.06160 (Kcal/Mol)
 Warning -- explicit consideration of  10 degrees of freedom as
           vibrations may cause significant error
 Vibrational temperatures:    131.55   248.79   317.94   414.41   500.69
          (Kelvin)            547.89   642.13   667.23   674.29   677.48
                              974.12  1121.30  1135.62  1177.91  1220.63
                             1244.21  1318.25  1391.33  1457.90  1481.90
                             1509.17  1515.84  1559.87  1575.88  1607.28
                             1648.44  1693.90  1734.72  1794.53  1814.42
                             1823.25  1840.53  1877.03  1924.67  1947.78
                             1999.61  2069.13  2148.48  2158.28  2168.26
                             2723.35  4282.75  4354.57  4382.18  4422.22
                             4425.56  4443.04  4460.18  4465.42  4507.58
                             5488.72

 Zero-point correction=                           0.161052 (Hartree/Particle)
 Thermal correction to Energy=                    0.168862
 Thermal correction to Enthalpy=                  0.169806
 Thermal correction to Gibbs Free Energy=         0.128861
 Sum of electronic and zero-point Energies=           -423.036987
 Sum of electronic and thermal Energies=              -423.029177
 Sum of electronic and thermal Enthalpies=            -423.028233
 Sum of electronic and thermal Free Energies=         -423.069178

                     E (Thermal)             CV                S
                      KCal/Mol        Cal/Mol-Kelvin    Cal/Mol-Kelvin
 Total                  105.962             30.967             86.177
 Electronic               0.000              0.000              0.000
 Translational            0.889              2.981             40.409
 Rotational               0.889              2.981             28.591
 Vibrational            104.185             25.005             17.177
 Vibration     1          0.602              1.955              3.629
 Vibration     2          0.626              1.876              2.404
 Vibration     3          0.648              1.809              1.951
 Vibration     4          0.685              1.696              1.486
 Vibration     5          0.726              1.579              1.175
 Vibration     6          0.751              1.511              1.036
 Vibration     7          0.806              1.369              0.807
 Vibration     8          0.821              1.330              0.755
 Vibration     9          0.826              1.320              0.741
 Vibration    10          0.828              1.315              0.735

 Normal termination of Gaussian 09 at Tue Jan 28 05:16:09 2020.
