 Gaussian 09, Revision D.01,
 Gaussian 09:  ES64L-G09RevD.01 24-Apr-2013

 -----------------------------
 # b3lyp 6-31G(2df,p) opt Freq
 -----------------------------

 -----
 titel
 -----
 Symbolic Z-matrix:
 Charge =  0 Multiplicity = 1

 SCF Done:  E(RB3LYP) =  -423.146934388     A.U. after   13 cycles
 Optimization completed.
    -- Stationary point found.
 Normal termination of Gaussian 09 at Tue Jan 28 09:37:20 2020.

 ----------------------------------------------------------------------
 #N Geom=AllCheck Guess=TCheck SCRF=Check GenChk RB3LYP/6-31G(2df,p) Fr
 eq
 ----------------------------------------------------------------------

 Structure from the checkpoint file:  "/scratch/puck/g09_a499271c-9272-4668-86fb-3a1de5fefceb/Gau-132155.chk"
 -----
 titel
 -----
 Charge =  0 Multiplicity = 1

                         Standard orientation:
 ---------------------------------------------------------------------
 Center     Atomic      Atomic             Coordinates (Angstroms)
 Number     Number       Type             X           Y           Z
 ---------------------------------------------------------------------
      1          8           0       -2.464615   -0.938835    0.475294
      2          6           0       -2.074924    0.240435   -0.202144
      3          6           0       -0.579076    0.391849   -0.256117
      4          6           0        0.105294    1.722860   -0.411029
      5          6           0        0.325506    0.890736    0.843089
      6          6           0        1.478135   -0.086953    0.913253
      7          6           0        2.416579   -0.241713   -0.269714
      8          6           0        1.194281   -1.111880   -0.155689
      9          8           0        0.027446   -0.744075   -0.857264
     10          1           0       -1.954262   -1.650119    0.070689
     11          1           0       -2.478384    0.263107   -1.227963
     12          1           0       -2.509667    1.085849    0.340483
     13          1           0        0.899481    1.826533   -1.139636
     14          1           0       -0.514654    2.607775   -0.303658
     15          1           0       -0.077884    1.250203    1.782031
     16          1           0        1.827241   -0.369786    1.898573
     17          1           0        2.454016    0.521723   -1.036849
     18          1           0        3.370882   -0.719053   -0.071476
     19          1           0        1.285811   -2.184956   -0.026317
 ---------------------------------------------------------------------

 SCF Done:  E(RB3LYP) =  -423.146934388     A.U. after    1 cycles

 The electronic state is 1-A.
 Alpha  occ. eigenvalues --  -19.15455 -19.12658 -10.23758 -10.23747 -10.22629
 Alpha  occ. eigenvalues --  -10.19915 -10.19780 -10.18936 -10.18913  -1.05704
 Alpha  occ. eigenvalues --   -1.00806  -0.86100  -0.84225  -0.69875  -0.65122
 Alpha  occ. eigenvalues --   -0.62111  -0.56403  -0.56193  -0.53578  -0.48646
 Alpha  occ. eigenvalues --   -0.46520  -0.46182  -0.45260  -0.41626  -0.41266
 Alpha  occ. eigenvalues --   -0.38924  -0.38039  -0.35677  -0.33634  -0.31532
 Alpha  occ. eigenvalues --   -0.29368  -0.27105  -0.25283  -0.23999
 Alpha virt. eigenvalues --    0.07172   0.09127   0.09883   0.11249   0.12309
 Alpha virt. eigenvalues --    0.13499   0.15167   0.15575   0.16026   0.17098
 Alpha virt. eigenvalues --    0.18108   0.19428   0.19888   0.21579   0.22623

 Mulliken charges:
               1
     1  O   -0.420272
     2  C   -0.136032
     3  C    0.404971
     4  C   -0.366858
     5  C   -0.115687
     6  C   -0.068672
     7  C   -0.328327
     8  C    0.090111
     9  O   -0.309772
    10  H    0.286701
    11  H    0.094475
    12  H    0.106903
    13  H    0.119659
    14  H    0.113742
    15  H    0.098464
    16  H    0.095782
    17  H    0.121769
    18  H    0.114676
    19  H    0.098367
 Sum of Mulliken charges =   0.00000

 Dipole moment (field-independent basis, Debye):
    X=              1.6514    Y=              0.5797    Z=              0.1866  Tot=              1.7601
 Quadrupole moment (field-independent basis, Debye-Ang):
   XX=            -55.7119   YY=            -49.7724   ZZ=            -54.1617
   XY=             -3.9512   XZ=              2.5329   YZ=             -0.3806

  Exact polarizability:  83.352  -4.910  74.351   0.445  -1.655  63.800
 Approx polarizability: 109.762  -3.230 110.663   0.303   0.060 102.561

                      1                      2                      3
                      A                      A                      A
 Frequencies --     98.6153               128.7562               235.1741
 Red. masses --      3.7193                 4.6654                 2.4539
 Frc consts  --      0.0213                 0.0456                 0.0800
 IR Inten    --      4.6683                 1.0583                 1.8921

                      4                      5                      6
                      A                      A                      A
 Frequencies --    274.7162               315.2452               410.1098
 Red. masses --      3.7174                 2.1147                 1.2677
 Frc consts  --      0.1653                 0.1238                 0.1256
 IR Inten    --      8.8511                 6.3322               100.5159

                      7                      8                      9
                      A                      A                      A
 Frequencies --    460.2870               493.7690               537.0172
 Red. masses --      2.2421                 2.2668                 3.9534
 Frc consts  --      0.2799                 0.3256                 0.6717
 IR Inten    --     23.1888                 2.0175                11.5961

                     10                     11                     12
                      A                      A                      A
 Frequencies --    620.0328               700.9710               726.1473
 Red. masses --      3.1933                 3.8070                 3.0310
 Frc consts  --      0.7233                 1.1021                 0.9417
 IR Inten    --      7.0330                 0.9318                20.9468

                     13                     14                     15
                      A                      A                      A
 Frequencies --    778.0634               794.3876               831.7772
 Red. masses --      2.0906                 1.7939                 2.4046
 Frc consts  --      0.7457                 0.6670                 0.9802
 IR Inten    --      9.4158                10.9270                 3.6909

                     16                     17                     18
                      A                      A                      A
 Frequencies --    865.9375               928.7575               952.5672
 Red. masses --      2.1321                 1.6162                 1.9023
 Frc consts  --      0.9419                 0.8214                 1.0170
 IR Inten    --      2.7447                 2.0013                22.9027

                     19                     20                     21
                      A                      A                      A
 Frequencies --    962.7953               985.3510              1002.9252
 Red. masses --      2.4396                 1.8631                 1.9304
 Frc consts  --      1.3324                 1.0658                 1.1440
 IR Inten    --     12.8739                 4.2273                14.7679

                     22                     23                     24
                      A                      A                      A
 Frequencies --   1036.2733              1050.8978              1058.8018
 Red. masses --      1.4996                 1.4422                 1.5899
 Frc consts  --      0.9488                 0.9384                 1.0502
 IR Inten    --     18.9865                 3.4054                14.8520

                     25                     26                     27
                      A                      A                      A
 Frequencies --   1075.5410              1093.3933              1094.8392
 Red. masses --      3.3302                 1.8286                 1.3964
 Frc consts  --      2.2697                 1.2880                 0.9862
 IR Inten    --     83.1367                18.6816                 2.1185

                     28                     29                     30
                      A                      A                      A
 Frequencies --   1109.5584              1149.4101              1181.9129
 Red. masses --      1.7204                 2.4977                 1.5946
 Frc consts  --      1.2479                 1.9442                 1.3124
 IR Inten    --      6.5873                67.7776                27.3902

                     31                     32                     33
                      A                      A                      A
 Frequencies --   1199.7868              1255.2755              1288.3932
 Red. masses --      1.7005                 1.9011                 1.5882
 Frc consts  --      1.4422                 1.7649                 1.5533
 IR Inten    --      3.4769                24.5976                 5.4546

                     34                     35                     36
                      A                      A                      A
 Frequencies --   1341.1241              1369.6621              1370.3636
 Red. masses --      1.7572                 1.6660                 1.4010
 Frc consts  --      1.8621                 1.8414                 1.5500
 IR Inten    --      4.1129                29.2101                18.0089

                     37                     38                     39
                      A                      A                      A
 Frequencies --   1386.7653              1441.0328              1472.2848
 Red. masses --      1.5308                 1.3712                 1.5545
 Frc consts  --      1.7345                 1.6777                 1.9853
 IR Inten    --      4.6968                46.9867                 7.0218

                     40                     41                     42
                      A                      A                      A
 Frequencies --   1493.3794              1497.0016              2970.4818
 Red. masses --      1.1548                 1.1790                 1.0709
 Frc consts  --      1.5174                 1.5567                 5.5676
 IR Inten    --      4.7553                 5.8907                64.3490

                     43                     44                     45
                      A                      A                      A
 Frequencies --   3079.2704              3133.8298              3139.1247
 Red. masses --      1.0911                 1.0556                 1.0562
 Frc consts  --      6.0958                 6.1082                 6.1323
 IR Inten    --     20.5626                 9.4051                13.1855

                     46                     47                     48
                      A                      A                      A
 Frequencies --   3164.7206              3178.9576              3191.7269
 Red. masses --      1.0908                 1.0904                 1.0938
 Frc consts  --      6.4366                 6.4921                 6.5651
 IR Inten    --     21.4906                 4.5991                12.9179

                     49                     50                     51
                      A                      A                      A
 Frequencies --   3222.7946              3229.6363              3796.1046
 Red. masses --      1.1151                 1.1119                 1.0652
 Frc consts  --      6.8240                 6.8334                 9.0442
 IR Inten    --     11.1822                 6.5824                23.3688

 - Thermochemistry -
 -------------------
 Temperature   298.150 Kelvin.  Pressure   1.00000 Atm.
 Atom     1 has atomic number  8 and mass  15.99491

 Molecular mass:   126.06808 amu.
 Principal axes and moments of inertia in atomic units:
                           1         2         3
     Eigenvalues --   560.551871275.023581483.68269
           X            0.99973  -0.02214   0.00705
           Y            0.02235   0.99924  -0.03179
           Z           -0.00634   0.03194   0.99947
 This molecule is an asymmetric top.
 Rotational symmetry number  1.
 Warning -- assumption of classical behavior for rotation
           may cause significant error
 Rotational temperatures (Kelvin)      0.15452     0.06793     0.05838
 Rotational constants (GHZ):           3.21958     1.41546     1.21639
 Zero-point vibrational energy     419744.2 (Joules/Mol)
                                  100.32127 (Kcal/Mol)
 Warning -- explicit consideration of  10 degrees of freedom as
           vibrations may cause significant error
 Vibrational temperatures:    141.89   185.25   338.36   395.25   453.57
          (Kelvin)            590.06   662.25   710.42   772.65   892.09
                             1008.54  1044.76  1119.46  1142.95  1196.74
                             1245.89  1336.27  1370.53  1385.25  1417.70
                             1442.98  1490.96  1512.01  1523.38  1547.46
                             1573.15  1575.23  1596.41  1653.74  1700.51
                             1726.22  1806.06  1853.71  1929.58  1970.64
                             1971.65  1995.24  2073.32  2118.29  2148.64
                             2153.85  4273.86  4430.38  4508.88  4516.49
                             4553.32  4573.81  4592.18  4636.88  4646.72
                             5461.74

 Zero-point correction=                           0.159872 (Hartree/Particle)
 Thermal correction to Energy=                    0.167668
 Thermal correction to Enthalpy=                  0.168612
 Thermal correction to Gibbs Free Energy=         0.127693
 Sum of electronic and zero-point Energies=           -422.987062
 Sum of electronic and thermal Energies=              -422.979267
 Sum of electronic and thermal Enthalpies=            -422.978322
 Sum of electronic and thermal Free Energies=         -423.019241

                     E (Thermal)             CV                S
                      KCal/Mol        Cal/Mol-Kelvin    Cal/Mol-Kelvin
 Total                  105.213             31.294             86.121
 Electronic               0.000              0.000              0.000
 Translational            0.889              2.981             40.409
 Rotational               0.889              2.981             28.452
 Vibrational            103.436             25.333             17.261
 Vibration     1          0.604              1.950              3.482
 Vibration     2          0.611              1.924              2.965
 Vibration     3          0.655              1.787              1.839
 Vibration     4          0.677              1.720              1.566
 Vibration     5          0.703              1.645              1.335
 Vibration     6          0.774              1.448              0.926
 Vibration     7          0.818              1.338              0.765
 Vibration     8          0.849              1.264              0.674
 Vibration     9          0.892              1.168              0.572
 Vibration    10          0.980              0.990              0.416

 Optimization completed.
    -- Stationary point found.
 Normal termination of Gaussian 09 at Tue Jan 28 10:22:06 2020.
