 Gaussian 09, Revision D.01,
 Gaussian 09:  ES64L-G09RevD.01 24-Apr-2013

 -----------------------------
 # b3lyp 6-31G(2df,p) opt Freq
 -----------------------------

 -----
 titel
 -----
 Symbolic Z-matrix:
 Charge =  0 Multiplicity = 1

 SCF Done:  E(RB3LYP) =  -423.167722792     A.U. after   14 cycles
 Optimization completed.
    -- Stationary point found.
 Normal termination of Gaussian 09 at Mon Jan 27 16:47:56 2020.

 ----------------------------------------------------------------------
 #N Geom=AllCheck Guess=TCheck SCRF=Check GenChk RB3LYP/6-31G(2df,p) Fr
 eq
 ----------------------------------------------------------------------

 Structure from the checkpoint file:  "/scratch/puck/g09_e2839f04-8e35-41a2-85ac-ed1d6038b3a5/Gau-37820.chk"
 -----
 titel
 -----
 Charge =  0 Multiplicity = 1

                         Standard orientation:
 ---------------------------------------------------------------------
 Center     Atomic      Atomic             Coordinates (Angstroms)
 Number     Number       Type             X           Y           Z
 ---------------------------------------------------------------------
      1          8           0        0.234550   -0.300455    1.468747
      2          6           0       -0.051837   -0.084017    0.091764
      3          6           0       -0.870344    1.230222   -0.081210
      4          6           0       -2.300594    0.745929   -0.065023
      5          6           0       -2.378078   -0.571817   -0.256571
      6          6           0       -1.012202   -1.193490   -0.431711
      7          6           0        1.267858   -0.051856   -0.648876
      8          6           0        2.526001   -0.535515   -0.070828
      9          8           0        2.254317    0.865602   -0.184080
     10          1           0       -0.599172   -0.236104    1.947067
     11          1           0       -0.616084    1.936297    0.715367
     12          1           0       -0.637138    1.730819   -1.030917
     13          1           0       -3.146849    1.413345    0.054116
     14          1           0       -3.296234   -1.145511   -0.316166
     15          1           0       -0.861554   -2.117318    0.136167
     16          1           0       -0.826050   -1.433109   -1.488339
     17          1           0        1.156491   -0.069980   -1.734741
     18          1           0        2.523155   -0.922935    0.943679
     19          1           0        3.307673   -0.913413   -0.728830
 ---------------------------------------------------------------------

 SCF Done:  E(RB3LYP) =  -423.167722792     A.U. after    1 cycles

 The electronic state is 1-A.
 Alpha  occ. eigenvalues --  -19.14200 -19.13641 -10.24207 -10.23129 -10.22367
 Alpha  occ. eigenvalues --  -10.18737 -10.18716 -10.18633 -10.18467  -1.06486
 Alpha  occ. eigenvalues --   -1.02039  -0.83938  -0.72970  -0.71333  -0.65891
 Alpha  occ. eigenvalues --   -0.62309  -0.57253  -0.54023  -0.52123  -0.48742
 Alpha  occ. eigenvalues --   -0.47899  -0.44436  -0.42315  -0.42159  -0.39259
 Alpha  occ. eigenvalues --   -0.38464  -0.36217  -0.36160  -0.35345  -0.33488
 Alpha  occ. eigenvalues --   -0.29711  -0.26516  -0.25817  -0.25079
 Alpha virt. eigenvalues --    0.01532   0.07722   0.10409   0.11617   0.12183
 Alpha virt. eigenvalues --    0.12578   0.14189   0.15008   0.15480   0.16561
 Alpha virt. eigenvalues --    0.17236   0.17560   0.18470   0.20283   0.22924

 Mulliken charges:
               1
     1  O   -0.478244
     2  C    0.361257
     3  C   -0.299739
     4  C   -0.081829
     5  C   -0.076703
     6  C   -0.306873
     7  C    0.051756
     8  C   -0.177819
     9  O   -0.246315
    10  H    0.281761
    11  H    0.120980
    12  H    0.113084
    13  H    0.096033
    14  H    0.096105
    15  H    0.113483
    16  H    0.106476
    17  H    0.087257
    18  H    0.132996
    19  H    0.106333
 Sum of Mulliken charges =   0.00000

 Dipole moment (field-independent basis, Debye):
    X=             -2.0583    Y=             -1.2563    Z=             -0.6077  Tot=              2.4868
 Quadrupole moment (field-independent basis, Debye-Ang):
   XX=            -52.8264   YY=            -53.0725   ZZ=            -51.7948
   XY=             -4.1054   XZ=             -2.6481   YZ=              0.6326

  Exact polarizability:  89.705  -3.235  76.318   0.335   1.850  61.980
 Approx polarizability: 114.218  -1.224 126.762   2.644   3.960  96.637

                      1                      2                      3
                      A                      A                      A
 Frequencies --     68.1259               102.2425               194.9424
 Red. masses --      4.1154                 2.7478                 3.6270
 Frc consts  --      0.0113                 0.0169                 0.0812
 IR Inten    --      2.9682                 0.7757                 2.5775

                      4                      5                      6
                      A                      A                      A
 Frequencies --    265.9111               315.7478               360.3342
 Red. masses --      3.4450                 1.1113                 5.0768
 Frc consts  --      0.1435                 0.0653                 0.3884
 IR Inten    --      5.6775                60.1145                 8.3315

                      7                      8                      9
                      A                      A                      A
 Frequencies --    373.9185               395.7161               421.1813
 Red. masses --      3.6302                 2.0898                 2.1529
 Frc consts  --      0.2990                 0.1928                 0.2250
 IR Inten    --      5.9021                 1.1725                 3.1548

                     10                     11                     12
                      A                      A                      A
 Frequencies --    510.4002               661.5386               708.3086
 Red. masses --      3.4422                 2.2175                 1.4023
 Frc consts  --      0.5283                 0.5718                 0.4145
 IR Inten    --      6.8653                32.7866                 8.3488

                     13                     14                     15
                      A                      A                      A
 Frequencies --    784.3833               789.6178               859.8889
 Red. masses --      3.3126                 5.3021                 7.0345
 Frc consts  --      1.2008                 1.9477                 3.0646
 IR Inten    --      2.9893                 2.4142                13.1381

                     16                     17                     18
                      A                      A                      A
 Frequencies --    893.6221               921.1406               937.8297
 Red. masses --      2.6256                 1.9937                 2.1189
 Frc consts  --      1.2354                 0.9967                 1.0980
 IR Inten    --     51.0213                15.2600                22.4000

                     19                     20                     21
                      A                      A                      A
 Frequencies --    954.4678               975.3309               976.8092
 Red. masses --      1.8110                 1.2619                 2.7360
 Frc consts  --      0.9721                 0.7073                 1.5381
 IR Inten    --      5.8582                 0.0747                 0.3298

                     22                     23                     24
                      A                      A                      A
 Frequencies --    999.6938              1041.5296              1083.7938
 Red. masses --      1.7422                 2.2661                 1.7822
 Frc consts  --      1.0259                 1.4483                 1.2334
 IR Inten    --     17.1179                 2.6578                 1.5203

                     25                     26                     27
                      A                      A                      A
 Frequencies --   1114.9689              1120.1018              1131.3670
 Red. masses --      1.7025                 1.3874                 1.1225
 Frc consts  --      1.2470                 1.0256                 0.8465
 IR Inten    --      1.7615                 4.5260                 0.5138

                     28                     29                     30
                      A                      A                      A
 Frequencies --   1161.3279              1178.0494              1180.1134
 Red. masses --      1.3795                 1.3575                 1.3981
 Frc consts  --      1.0961                 1.1100                 1.1472
 IR Inten    --      0.0744                 1.2281                 5.8487

                     31                     32                     33
                      A                      A                      A
 Frequencies --   1232.2676              1280.6584              1293.9885
 Red. masses --      1.5487                 1.5398                 1.6286
 Frc consts  --      1.3855                 1.4879                 1.6067
 IR Inten    --     90.4346                11.3261                 7.9244

                     34                     35                     36
                      A                      A                      A
 Frequencies --   1315.6067              1361.9361              1370.6337
 Red. masses --      1.7753                 1.6684                 1.5557
 Frc consts  --      1.8104                 1.8233                 1.7220
 IR Inten    --      7.5891                 2.5693                30.0336

                     37                     38                     39
                      A                      A                      A
 Frequencies --   1460.9497              1469.0656              1476.7641
 Red. masses --      1.7290                 1.0860                 1.1156
 Frc consts  --      2.1743                 1.3809                 1.4335
 IR Inten    --      9.6157                 3.5109                 2.6766

                     40                     41                     42
                      A                      A                      A
 Frequencies --   1520.8044              1676.9289              3009.4431
 Red. masses --      1.5114                 5.9712                 1.0681
 Frc consts  --      2.0596                 9.8933                 5.6993
 IR Inten    --      3.7063                 3.8892                26.1701

                     43                     44                     45
                      A                      A                      A
 Frequencies --   3018.2270              3073.5656              3080.0360
 Red. masses --      1.0685                 1.0930                 1.0931
 Frc consts  --      5.7347                 6.0834                 6.1099
 IR Inten    --     21.9316                13.1212                 8.7347

                     46                     47                     48
                      A                      A                      A
 Frequencies --   3088.3655              3096.7333              3183.6572
 Red. masses --      1.0690                 1.0722                 1.0846
 Frc consts  --      6.0072                 6.0581                 6.4767
 IR Inten    --     33.0490                33.8639                 5.0744

                     49                     50                     51
                      A                      A                      A
 Frequencies --   3197.2313              3208.5119              3808.2581
 Red. masses --      1.1158                 1.1040                 1.0660
 Frc consts  --      6.7203                 6.6964                 9.1089
 IR Inten    --     13.1778                25.2044                17.0117

 - Thermochemistry -
 -------------------
 Temperature   298.150 Kelvin.  Pressure   1.00000 Atm.
 Atom     1 has atomic number  8 and mass  15.99491

 Molecular mass:   126.06808 amu.
 Principal axes and moments of inertia in atomic units:
                           1         2         3
     Eigenvalues --   488.638911530.922731622.80221
           X            0.99984  -0.01747  -0.00388
           Y            0.01765   0.99844   0.05304
           Z            0.00295  -0.05310   0.99858
 This molecule is an asymmetric top.
 Rotational symmetry number  1.
 Warning -- assumption of classical behavior for rotation
           may cause significant error
 Rotational temperatures (Kelvin)      0.17726     0.05658     0.05337
 Rotational constants (GHZ):           3.69340     1.17886     1.11211
 Zero-point vibrational energy     416934.7 (Joules/Mol)
                                   99.64978 (Kcal/Mol)
 Warning -- explicit consideration of  10 degrees of freedom as
           vibrations may cause significant error
 Vibrational temperatures:     98.02   147.10   280.48   382.59   454.29
          (Kelvin)            518.44   537.98   569.35   605.99   734.35
                              951.81  1019.10  1128.55  1136.08  1237.19
                             1285.72  1325.31  1349.33  1373.26  1403.28
                             1405.41  1438.33  1498.53  1559.34  1604.19
                             1611.57  1627.78  1670.89  1694.95  1697.92
                             1772.96  1842.58  1861.76  1892.86  1959.52
                             1972.03  2101.98  2113.66  2124.73  2188.10
                             2412.72  4329.91  4342.55  4422.17  4431.48
                             4443.46  4455.50  4580.57  4600.10  4616.33
                             5479.23

 Zero-point correction=                           0.158802 (Hartree/Particle)
 Thermal correction to Energy=                    0.167153
 Thermal correction to Enthalpy=                  0.168097
 Thermal correction to Gibbs Free Energy=         0.125735
 Sum of electronic and zero-point Energies=           -423.008921
 Sum of electronic and thermal Energies=              -423.000570
 Sum of electronic and thermal Enthalpies=            -422.999626
 Sum of electronic and thermal Free Energies=         -423.041988

                     E (Thermal)             CV                S
                      KCal/Mol        Cal/Mol-Kelvin    Cal/Mol-Kelvin
 Total                  104.890             32.296             89.159
 Electronic               0.000              0.000              0.000
 Translational            0.889              2.981             40.409
 Rotational               0.889              2.981             28.586
 Vibrational            103.112             26.335             20.164
 Vibration     1          0.598              1.969              4.207
 Vibration     2          0.604              1.947              3.411
 Vibration     3          0.636              1.847              2.180
 Vibration     4          0.672              1.736              1.623
 Vibration     5          0.703              1.644              1.332
 Vibration     6          0.735              1.554              1.121
 Vibration     7          0.745              1.526              1.064
 Vibration     8          0.762              1.479              0.979
 Vibration     9          0.784              1.424              0.888
 Vibration    10          0.866              1.227              0.633

 Normal termination of Gaussian 09 at Mon Jan 27 17:50:12 2020.
