 Gaussian 09, Revision D.01,
 Gaussian 09:  ES64L-G09RevD.01 24-Apr-2013

 -----------------------------
 # b3lyp 6-31G(2df,p) opt Freq
 -----------------------------

 -----
 titel
 -----
 Symbolic Z-matrix:
 Charge =  0 Multiplicity = 1

 SCF Done:  E(RB3LYP) =  -423.159623652     A.U. after   13 cycles
 Optimization completed.
    -- Stationary point found.
 Normal termination of Gaussian 09 at Mon Jan 27 18:09:17 2020.

 ----------------------------------------------------------------------
 #N Geom=AllCheck Guess=TCheck SCRF=Check GenChk RB3LYP/6-31G(2df,p) Fr
 eq
 ----------------------------------------------------------------------

 Structure from the checkpoint file:  "/scratch/puck/g09_06602fd6-bfbd-4f17-8b94-db18013b1ff8/Gau-181743.chk"
 -----
 titel
 -----
 Charge =  0 Multiplicity = 1

                         Standard orientation:
 ---------------------------------------------------------------------
 Center     Atomic      Atomic             Coordinates (Angstroms)
 Number     Number       Type             X           Y           Z
 ---------------------------------------------------------------------
      1          6           0       -2.322668   -0.424726   -0.335770
      2          6           0       -0.869232   -0.164534    0.001235
      3          6           0       -0.617510    0.913466    1.117745
      4          6           0        0.250396    1.700969    0.139154
      5          6           0        1.306016    0.797578   -0.428600
      6          8           0        1.790340   -0.297851    0.310529
      7          6           0        1.103689   -1.476145   -0.047284
      8          8           0       -0.262498   -1.429608    0.282526
      9          6           0       -0.077519    0.711850   -0.994949
     10          1           0       -2.813316   -0.941551    0.494761
     11          1           0       -2.851471    0.513735   -0.525933
     12          1           0       -2.401262   -1.056803   -1.225822
     13          1           0       -1.538389    1.436423    1.385813
     14          1           0       -0.123948    0.545232    2.019709
     15          1           0        0.344572    2.778384    0.085808
     16          1           0        2.068984    1.269757   -1.041861
     17          1           0        1.225986   -1.653669   -1.128722
     18          1           0        1.545492   -2.297425    0.521283
     19          1           0       -0.318412    0.874831   -2.038673
 ---------------------------------------------------------------------

 SCF Done:  E(RB3LYP) =  -423.159623652     A.U. after    1 cycles

 The electronic state is 1-A.
 Alpha  occ. eigenvalues --  -19.14695 -19.13648 -10.26943 -10.24427 -10.23901
 Alpha  occ. eigenvalues --  -10.19630 -10.19365 -10.17994 -10.17643  -1.07387
 Alpha  occ. eigenvalues --   -1.00225  -0.89346  -0.75577  -0.70242  -0.67598
 Alpha  occ. eigenvalues --   -0.63077  -0.56218  -0.52922  -0.52261  -0.50615
 Alpha  occ. eigenvalues --   -0.48802  -0.44872  -0.43133  -0.41083  -0.40375
 Alpha  occ. eigenvalues --   -0.38877  -0.37294  -0.36267  -0.34588  -0.33440
 Alpha  occ. eigenvalues --   -0.28556  -0.27232  -0.26013  -0.24622
 Alpha virt. eigenvalues --    0.09014   0.09725   0.10968   0.12603   0.12710
 Alpha virt. eigenvalues --    0.14491   0.15056   0.15771   0.16418   0.17203
 Alpha virt. eigenvalues --    0.17593   0.18151   0.18954   0.20465   0.22014

 Mulliken charges:
               1
     1  C   -0.453317
     2  C    0.418978
     3  C   -0.273038
     4  C   -0.096017
     5  C    0.097826
     6  O   -0.251509
     7  C    0.013370
     8  O   -0.305264
     9  C   -0.193014
    10  H    0.127828
    11  H    0.115919
    12  H    0.120108
    13  H    0.099805
    14  H    0.109375
    15  H    0.088367
    16  H    0.097111
    17  H    0.081738
    18  H    0.116191
    19  H    0.085542
 Sum of Mulliken charges =   0.00000

 Dipole moment (field-independent basis, Debye):
    X=             -0.6104    Y=              1.0676    Z=             -1.2900  Tot=              1.7822
 Quadrupole moment (field-independent basis, Debye-Ang):
   XX=            -53.8037   YY=            -51.8132   ZZ=            -52.3499
   XY=             -1.3149   XZ=             -1.6814   YZ=              0.0301

  Exact polarizability:  77.234  -1.118  76.373  -1.963   0.771  67.165
 Approx polarizability: 107.411  -1.135 110.514  -0.553   1.145 103.553

                      1                      2                      3
                      A                      A                      A
 Frequencies --    169.0039               239.0125               259.5705
 Red. masses --      3.9768                 1.0555                 2.5244
 Frc consts  --      0.0669                 0.0355                 0.1002
 IR Inten    --      3.2702                 0.0864                 0.0879

                      4                      5                      6
                      A                      A                      A
 Frequencies --    307.4653               343.6086               413.4630
 Red. masses --      2.2947                 2.5927                 2.7544
 Frc consts  --      0.1278                 0.1804                 0.2774
 IR Inten    --      4.0412                 1.7850                 0.7266

                      7                      8                      9
                      A                      A                      A
 Frequencies --    464.9176               511.1698               580.9871
 Red. masses --      3.8358                 3.2825                 5.8622
 Frc consts  --      0.4885                 0.5053                 1.1658
 IR Inten    --      2.2876                 4.5226                 2.4875

                     10                     11                     12
                      A                      A                      A
 Frequencies --    634.6665               739.0486               759.2996
 Red. masses --      4.4014                 3.3080                 2.4813
 Frc consts  --      1.0446                 1.0646                 0.8429
 IR Inten    --      2.1165                 7.7830                 0.8809

                     13                     14                     15
                      A                      A                      A
 Frequencies --    796.8760               847.6300               901.5235
 Red. masses --      2.1039                 2.7596                 2.1863
 Frc consts  --      0.7871                 1.1682                 1.0469
 IR Inten    --     10.9807                 4.1274                 3.4740

                     16                     17                     18
                      A                      A                      A
 Frequencies --    911.4515               927.6447               963.2765
 Red. masses --      2.0297                 2.1184                 1.5859
 Frc consts  --      0.9935                 1.0741                 0.8670
 IR Inten    --     17.6461                11.0523                 0.9386

                     19                     20                     21
                      A                      A                      A
 Frequencies --    983.6267              1007.9491              1013.6819
 Red. masses --      1.5693                 1.8729                 2.6602
 Frc consts  --      0.8946                 1.1211                 1.6105
 IR Inten    --     11.7805                 4.8901                43.5006

                     22                     23                     24
                      A                      A                      A
 Frequencies --   1039.0030              1077.8672              1096.0853
 Red. masses --      2.5561                 1.8124                 2.4712
 Frc consts  --      1.6258                 1.2406                 1.7492
 IR Inten    --     43.6153                20.3835                81.4871

                     25                     26                     27
                      A                      A                      A
 Frequencies --   1129.4404              1161.1845              1170.5902
 Red. masses --      1.7967                 1.9310                 2.0210
 Frc consts  --      1.3504                 1.5340                 1.6317
 IR Inten    --      2.0101                21.4478                23.9610

                     28                     29                     30
                      A                      A                      A
 Frequencies --   1183.5128              1226.4722              1231.5013
 Red. masses --      2.2239                 1.9140                 2.4262
 Frc consts  --      1.8353                 1.6963                 2.1680
 IR Inten    --     11.0880                 2.1077               113.9134

                     31                     32                     33
                      A                      A                      A
 Frequencies --   1245.4645              1297.0372              1315.9676
 Red. masses --      1.6297                 1.1875                 1.9035
 Frc consts  --      1.4894                 1.1771                 1.9422
 IR Inten    --     26.7351                 2.1538                11.7882

                     34                     35                     36
                      A                      A                      A
 Frequencies --   1341.9204              1401.7490              1410.1811
 Red. masses --      1.7786                 1.8706                 1.3679
 Frc consts  --      1.8871                 2.1655                 1.6027
 IR Inten    --     16.5833                21.2014                12.0359

                     37                     38                     39
                      A                      A                      A
 Frequencies --   1446.6249              1476.8794              1483.1107
 Red. masses --      1.2755                 1.1194                 1.0558
 Frc consts  --      1.5726                 1.4386                 1.3683
 IR Inten    --     12.7888                 6.0317                 1.2870

                     40                     41                     42
                      A                      A                      A
 Frequencies --   1493.5948              1520.2050              2959.4821
 Red. masses --      1.0539                 1.1054                 1.0698
 Frc consts  --      1.3852                 1.5051                 5.5208
 IR Inten    --      1.1351                 0.8626                89.1736

                     43                     44                     45
                      A                      A                      A
 Frequencies --   3037.6722              3066.2776              3106.5643
 Red. masses --      1.0346                 1.0572                 1.0950
 Frc consts  --      5.6248                 5.8564                 6.2260
 IR Inten    --     17.0522                29.4499                41.1253

                     46                     47                     48
                      A                      A                      A
 Frequencies --   3110.7200              3115.9494              3124.6862
 Red. masses --      1.1019                 1.1025                 1.1081
 Frc consts  --      6.2820                 6.3068                 6.3746
 IR Inten    --     19.1068                12.1180                21.6275

                     49                     50                     51
                      A                      A                      A
 Frequencies --   3143.8601              3176.9039              3193.4072
 Red. masses --      1.0885                 1.0904                 1.0964
 Frc consts  --      6.3387                 6.4840                 6.5877
 IR Inten    --     19.1332                15.3486                21.2317

 - Thermochemistry -
 -------------------
 Temperature   298.150 Kelvin.  Pressure   1.00000 Atm.
 Atom     1 has atomic number  6 and mass  12.00000

 Molecular mass:   126.06808 amu.
 Principal axes and moments of inertia in atomic units:
                           1         2         3
     Eigenvalues --   687.40289 884.679101226.45944
           X            0.99984  -0.01553  -0.00882
           Y            0.01566   0.99977   0.01493
           Z            0.00858  -0.01507   0.99985
 This molecule is an asymmetric top.
 Rotational symmetry number  1.
 Warning -- assumption of classical behavior for rotation
           may cause significant error
 Rotational temperatures (Kelvin)      0.12600     0.09790     0.07062
 Rotational constants (GHZ):           2.62545     2.04000     1.47151
 Zero-point vibrational energy     422041.2 (Joules/Mol)
                                  100.87028 (Kcal/Mol)
 Warning -- explicit consideration of   9 degrees of freedom as
           vibrations may cause significant error
 Vibrational temperatures:    243.16   343.89   373.46   442.37   494.38
          (Kelvin)            594.88   668.91   735.46   835.91   913.14
                             1063.32  1092.46  1146.53  1219.55  1297.09
                             1311.37  1334.67  1385.94  1415.22  1450.21
                             1458.46  1494.89  1550.81  1577.02  1625.01
                             1670.68  1684.22  1702.81  1764.62  1771.85
                             1791.94  1866.14  1893.38  1930.72  2016.80
                             2028.93  2081.37  2124.90  2133.86  2148.95
                             2187.23  4258.03  4370.53  4411.68  4469.65
                             4475.63  4483.15  4495.72  4523.31  4570.85
                             4594.59

 Zero-point correction=                           0.160747 (Hartree/Particle)
 Thermal correction to Energy=                    0.167941
 Thermal correction to Enthalpy=                  0.168885
 Thermal correction to Gibbs Free Energy=         0.129668
 Sum of electronic and zero-point Energies=           -422.998877
 Sum of electronic and thermal Energies=              -422.991683
 Sum of electronic and thermal Enthalpies=            -422.990739
 Sum of electronic and thermal Free Energies=         -423.029956

                     E (Thermal)             CV                S
                      KCal/Mol        Cal/Mol-Kelvin    Cal/Mol-Kelvin
 Total                  105.384             29.765             82.539
 Electronic               0.000              0.000              0.000
 Translational            0.889              2.981             40.409
 Rotational               0.889              2.981             28.102
 Vibrational            103.607             23.804             14.028
 Vibration     1          0.625              1.881              2.447
 Vibration     2          0.657              1.781              1.810
 Vibration     3          0.668              1.747              1.665
 Vibration     4          0.697              1.660              1.376
 Vibration     5          0.722              1.588              1.195
 Vibration     6          0.777              1.441              0.914
 Vibration     7          0.822              1.328              0.752
 Vibration     8          0.866              1.225              0.631
 Vibration     9          0.938              1.072              0.484

 Normal termination of Gaussian 09 at Mon Jan 27 18:56:17 2020.
