 Gaussian 09, Revision D.01,
 Gaussian 09:  ES64L-G09RevD.01 24-Apr-2013

 -----------------------------
 # b3lyp 6-31G(2df,p) opt Freq
 -----------------------------

 -----
 titel
 -----
 Symbolic Z-matrix:
 Charge =  0 Multiplicity = 1

 SCF Done:  E(RB3LYP) =  -423.162654450     A.U. after   14 cycles
 Optimization completed.
    -- Stationary point found.
 Normal termination of Gaussian 09 at Mon Jan 27 17:09:44 2020.

 ----------------------------------------------------------------------
 #N Geom=AllCheck Guess=TCheck SCRF=Check GenChk RB3LYP/6-31G(2df,p) Fr
 eq
 ----------------------------------------------------------------------

 Structure from the checkpoint file:  "/scratch/puck/g09_0bdbabe0-d8f0-4976-a198-6e9b8fdb8686/Gau-179177.chk"
 -----
 titel
 -----
 Charge =  0 Multiplicity = 1

                         Standard orientation:
 ---------------------------------------------------------------------
 Center     Atomic      Atomic             Coordinates (Angstroms)
 Number     Number       Type             X           Y           Z
 ---------------------------------------------------------------------
      1          6           0       -2.480119   -0.500197   -0.233049
      2          6           0       -1.037124   -0.141228    0.033538
      3          6           0       -0.705004    1.043051    0.984415
      4          6           0        0.356414    1.333594   -0.097526
      5          8           0       -0.434489    0.615592   -1.067462
      6          6           0        1.605947    0.516072    0.232947
      7          8           0        1.997470   -0.453992   -0.729223
      8          6           0        1.325931   -0.910406    0.452902
      9          6           0       -0.126984   -1.353428    0.308322
     10          1           0       -2.553603   -1.195094   -1.076173
     11          1           0       -2.926785   -0.979876    0.644500
     12          1           0       -3.058691    0.395366   -0.474897
     13          1           0       -1.506332    1.783827    0.995537
     14          1           0       -0.366999    0.825577    2.000755
     15          1           0        0.565588    2.360776   -0.405955
     16          1           0        2.414071    1.021913    0.760589
     17          1           0        1.957920   -1.496985    1.117834
     18          1           0       -0.220722   -2.077594   -0.509120
     19          1           0       -0.442665   -1.855459    1.231115
 ---------------------------------------------------------------------

 SCF Done:  E(RB3LYP) =  -423.162654450     A.U. after    1 cycles

 The electronic state is 1-A.
 Alpha  occ. eigenvalues --  -19.14584 -19.12934 -10.24427 -10.23760 -10.23478
 Alpha  occ. eigenvalues --  -10.23277 -10.18994 -10.18861 -10.17944  -1.07489
 Alpha  occ. eigenvalues --   -1.03439  -0.79084  -0.75253  -0.72433  -0.67177
 Alpha  occ. eigenvalues --   -0.61190  -0.59650  -0.53251  -0.50813  -0.47562
 Alpha  occ. eigenvalues --   -0.46838  -0.45699  -0.44094  -0.41103  -0.39538
 Alpha  occ. eigenvalues --   -0.39337  -0.38065  -0.36875  -0.35396  -0.33260
 Alpha  occ. eigenvalues --   -0.30704  -0.28091  -0.26245  -0.24372
 Alpha virt. eigenvalues --    0.07657   0.08983   0.10094   0.11204   0.11879
 Alpha virt. eigenvalues --    0.13232   0.14742   0.15122   0.15573   0.16753
 Alpha virt. eigenvalues --    0.17552   0.18258   0.18655   0.19362   0.21795

 Mulliken charges:
               1
     1  C   -0.469741
     2  C    0.402223
     3  C   -0.294440
     4  C    0.041798
     5  O   -0.305682
     6  C    0.043733
     7  O   -0.238545
     8  C    0.035876
     9  C   -0.271277
    10  H    0.129014
    11  H    0.117985
    12  H    0.123534
    13  H    0.107864
    14  H    0.097243
    15  H    0.078815
    16  H    0.089805
    17  H    0.092892
    18  H    0.119160
    19  H    0.099742
 Sum of Mulliken charges =   0.00000

 Dipole moment (field-independent basis, Debye):
    X=             -1.0891    Y=              0.1353    Z=              2.9290  Tot=              3.1278
 Quadrupole moment (field-independent basis, Debye-Ang):
   XX=            -53.6001   YY=            -49.5710   ZZ=            -55.7620
   XY=              2.2285   XZ=              2.6093   YZ=             -0.0250

  Exact polarizability:  80.619   3.050  76.966   1.334  -0.483  62.993
 Approx polarizability: 106.016   4.546 113.307  -1.953  -1.304 104.943

                      1                      2                      3
                      A                      A                      A
 Frequencies --    176.2547               203.9670               279.6888
 Red. masses --      1.5897                 1.5105                 3.1260
 Frc consts  --      0.0291                 0.0370                 0.1441
 IR Inten    --      0.8924                 0.6681                 0.4175

                      4                      5                      6
                      A                      A                      A
 Frequencies --    298.0438               374.5555               396.3030
 Red. masses --      2.7914                 2.9753                 2.3501
 Frc consts  --      0.1461                 0.2459                 0.2175
 IR Inten    --      1.3576                 1.1530                 3.4357

                      7                      8                      9
                      A                      A                      A
 Frequencies --    434.2381               472.4116               583.4749
 Red. masses --      2.6129                 4.3279                 4.3480
 Frc consts  --      0.2903                 0.5691                 0.8721
 IR Inten    --      0.0177                 4.0372                13.3705

                     10                     11                     12
                      A                      A                      A
 Frequencies --    654.1732               705.1780               791.6536
 Red. masses --      3.7189                 3.7476                 3.4336
 Frc consts  --      0.9377                 1.0980                 1.2679
 IR Inten    --      2.5085                 6.0363                12.6480

                     13                     14                     15
                      A                      A                      A
 Frequencies --    817.6093               835.4930               883.7817
 Red. masses --      2.6202                 2.6437                 2.0564
 Frc consts  --      1.0320                 1.0873                 0.9463
 IR Inten    --      6.2069                19.8823                 2.6275

                     16                     17                     18
                      A                      A                      A
 Frequencies --    908.6774               923.1755               946.0498
 Red. masses --      2.2607                 3.7927                 3.0798
 Frc consts  --      1.0998                 1.9045                 1.6241
 IR Inten    --     11.8745                19.7480                14.8116

                     19                     20                     21
                      A                      A                      A
 Frequencies --    966.1630               995.0299              1008.6605
 Red. masses --      2.2983                 2.1425                 1.5805
 Frc consts  --      1.2640                 1.2498                 0.9474
 IR Inten    --      8.1750                 6.9565                 8.6637

                     22                     23                     24
                      A                      A                      A
 Frequencies --   1018.7173              1060.7586              1087.6189
 Red. masses --      2.4374                 1.5424                 1.2363
 Frc consts  --      1.4904                 1.0226                 0.8616
 IR Inten    --     21.4244                 4.5952                 5.1755

                     25                     26                     27
                      A                      A                      A
 Frequencies --   1128.7469              1150.0962              1210.8582
 Red. masses --      1.8900                 1.6125                 2.1349
 Frc consts  --      1.4188                 1.2567                 1.8442
 IR Inten    --     14.2443                 4.1929                 4.1191

                     28                     29                     30
                      A                      A                      A
 Frequencies --   1234.5348              1239.2143              1249.8687
 Red. masses --      1.8617                 1.3161                 1.7949
 Frc consts  --      1.6717                 1.1908                 1.6520
 IR Inten    --     12.3826                 2.9469                 6.2412

                     31                     32                     33
                      A                      A                      A
 Frequencies --   1269.5514              1302.1664              1340.3877
 Red. masses --      1.4129                 1.7576                 1.4823
 Frc consts  --      1.3417                 1.7559                 1.5691
 IR Inten    --      4.2148                 5.2282                 5.5417

                     34                     35                     36
                      A                      A                      A
 Frequencies --   1356.8479              1363.4807              1409.1581
 Red. masses --      1.3802                 1.9630                 1.3853
 Frc consts  --      1.4971                 2.1502                 1.6208
 IR Inten    --      1.2688                16.7874                12.5596

                     37                     38                     39
                      A                      A                      A
 Frequencies --   1450.7702              1462.4081              1480.0305
 Red. masses --      2.0726                 1.2572                 1.0727
 Frc consts  --      2.5701                 1.5841                 1.3844
 IR Inten    --     13.6069                 2.4547                 4.0115

                     40                     41                     42
                      A                      A                      A
 Frequencies --   1488.0236              1495.2498              3030.0220
 Red. masses --      1.1378                 1.0830                 1.0551
 Frc consts  --      1.4843                 1.4266                 5.7076
 IR Inten    --      7.9886                 1.3588                12.5007

                     43                     44                     45
                      A                      A                      A
 Frequencies --   3036.4591              3064.3778              3075.4577
 Red. masses --      1.0395                 1.0591                 1.1025
 Frc consts  --      5.6468                 5.8597                 6.1437
 IR Inten    --     28.0961                26.4655                12.0398

                     46                     47                     48
                      A                      A                      A
 Frequencies --   3080.8450              3105.0400              3112.0149
 Red. masses --      1.0880                 1.1007                 1.0861
 Frc consts  --      6.0842                 6.2525                 6.1975
 IR Inten    --     36.4964                18.3964                31.8232

                     49                     50                     51
                      A                      A                      A
 Frequencies --   3118.0591              3124.4787              3130.8587
 Red. masses --      1.1019                 1.0932                 1.1080
 Frc consts  --      6.3117                 6.2881                 6.3991
 IR Inten    --     11.1271                50.1316                27.5584

 - Thermochemistry -
 -------------------
 Temperature   298.150 Kelvin.  Pressure   1.00000 Atm.
 Atom     1 has atomic number  6 and mass  12.00000

 Molecular mass:   126.06808 amu.
 Principal axes and moments of inertia in atomic units:
                           1         2         3
     Eigenvalues --   567.986851086.810071270.34930
           X            0.99951   0.02645   0.01663
           Y           -0.02672   0.99951   0.01611
           Z           -0.01620  -0.01654   0.99973
 This molecule is an asymmetric top.
 Rotational symmetry number  1.
 Warning -- assumption of classical behavior for rotation
           may cause significant error
 Rotational temperatures (Kelvin)      0.15249     0.07970     0.06818
 Rotational constants (GHZ):           3.17743     1.66059     1.42067
 Zero-point vibrational energy     420670.9 (Joules/Mol)
                                  100.54276 (Kcal/Mol)
 Warning -- explicit consideration of   9 degrees of freedom as
           vibrations may cause significant error
 Vibrational temperatures:    253.59   293.46   402.41   428.82   538.90
          (Kelvin)            570.19   624.77   679.69   839.49   941.21
                             1014.59  1139.01  1176.36  1202.09  1271.56
                             1307.38  1328.24  1361.15  1390.09  1431.62
                             1451.24  1465.71  1526.19  1564.84  1624.01
                             1654.73  1742.15  1776.22  1782.95  1798.28
                             1826.60  1873.52  1928.52  1952.20  1961.74
                             2027.46  2087.33  2104.08  2129.43  2140.93
                             2151.33  4359.52  4368.78  4408.95  4424.89
                             4432.64  4467.45  4477.49  4486.19  4495.42
                             4504.60

 Zero-point correction=                           0.160225 (Hartree/Particle)
 Thermal correction to Energy=                    0.167482
 Thermal correction to Enthalpy=                  0.168426
 Thermal correction to Gibbs Free Energy=         0.129068
 Sum of electronic and zero-point Energies=           -423.002429
 Sum of electronic and thermal Energies=              -422.995173
 Sum of electronic and thermal Enthalpies=            -422.994228
 Sum of electronic and thermal Free Energies=         -423.033587

                     E (Thermal)             CV                S
                      KCal/Mol        Cal/Mol-Kelvin    Cal/Mol-Kelvin
 Total                  105.096             29.929             82.837
 Electronic               0.000              0.000              0.000
 Translational            0.889              2.981             40.409
 Rotational               0.889              2.981             28.152
 Vibrational            103.319             23.968             14.276
 Vibration     1          0.628              1.872              2.368
 Vibration     2          0.640              1.834              2.097
 Vibration     3          0.680              1.711              1.536
 Vibration     4          0.691              1.677              1.428
 Vibration     5          0.746              1.524              1.061
 Vibration     6          0.763              1.478              0.976
 Vibration     7          0.795              1.396              0.845
 Vibration     8          0.829              1.311              0.731
 Vibration     9          0.940              1.067              0.479

 Optimization completed.
    -- Stationary point found.
 Normal termination of Gaussian 09 at Mon Jan 27 17:59:09 2020.
