 Gaussian 09, Revision D.01,
 Gaussian 09:  ES64L-G09RevD.01 24-Apr-2013

 -----------------------------
 # b3lyp 6-31G(2df,p) opt Freq
 -----------------------------

 -----
 titel
 -----
 Symbolic Z-matrix:
 Charge =  0 Multiplicity = 1

 SCF Done:  E(RB3LYP) =  -423.178040704     A.U. after   14 cycles
 SCF Done:  E(RB3LYP) =  -423.178040791     A.U. after    6 cycles
 Optimization completed.
    -- Stationary point found.
 Normal termination of Gaussian 09 at Tue Jan 28 00:57:03 2020.

 ----------------------------------------------------------------------
 #N Geom=AllCheck Guess=TCheck SCRF=Check GenChk RB3LYP/6-31G(2df,p) Fr
 eq
 ----------------------------------------------------------------------

 Structure from the checkpoint file:  "/scratch/puck/g09_4527a102-e94b-4770-9eca-8547c522932d/Gau-37524.chk"
 -----
 titel
 -----
 Charge =  0 Multiplicity = 1

                         Standard orientation:
 ---------------------------------------------------------------------
 Center     Atomic      Atomic             Coordinates (Angstroms)
 Number     Number       Type             X           Y           Z
 ---------------------------------------------------------------------
      1          8           0       -1.618763   -1.734051   -0.169941
      2          6           0       -1.255890   -0.540823    0.481810
      3          6           0       -1.782802    0.807710   -0.107907
      4          6           0       -0.325201    1.296579   -0.084759
      5          8           0        0.196474    2.374049   -0.154418
      6          6           0        0.202845   -0.112191    0.179845
      7          6           0        1.446460   -0.320145    1.076434
      8          6           0        2.300583   -0.519690   -0.203964
      9          6           0        0.993279   -0.761380   -1.002216
     10          1           0       -2.538396   -1.927803    0.036495
     11          1           0       -1.435376   -0.602528    1.564670
     12          1           0       -2.141091    0.675223   -1.134707
     13          1           0       -2.511930    1.389883    0.460526
     14          1           0        1.709984    0.510298    1.735775
     15          1           0        1.358382   -1.236561    1.667726
     16          1           0        2.791044    0.408950   -0.504400
     17          1           0        3.038547   -1.324547   -0.198125
     18          1           0        0.898369   -0.294349   -1.985136
     19          1           0        0.733149   -1.818903   -1.083411
 ---------------------------------------------------------------------

 SCF Done:  E(RB3LYP) =  -423.178040791     A.U. after    1 cycles

 The electronic state is 1-A.
 Alpha  occ. eigenvalues --  -19.14910 -19.13290 -10.26375 -10.24231 -10.19360
 Alpha  occ. eigenvalues --  -10.18878 -10.18697 -10.18531 -10.18192  -1.04155
 Alpha  occ. eigenvalues --   -1.03143  -0.86270  -0.80217  -0.66419  -0.66056
 Alpha  occ. eigenvalues --   -0.62013  -0.57857  -0.52370  -0.50235  -0.47933
 Alpha  occ. eigenvalues --   -0.47255  -0.44137  -0.42328  -0.41569  -0.38971
 Alpha  occ. eigenvalues --   -0.38240  -0.37343  -0.36078  -0.34049  -0.33389
 Alpha  occ. eigenvalues --   -0.30974  -0.29570  -0.27252  -0.23350
 Alpha virt. eigenvalues --   -0.01990   0.06819   0.09564   0.10167   0.11185
 Alpha virt. eigenvalues --    0.12895   0.14124   0.16110   0.16397   0.17906
 Alpha virt. eigenvalues --    0.18367   0.19332   0.20288   0.21292   0.22619

 Mulliken charges:
               1
     1  O   -0.430460
     2  C    0.018946
     3  C   -0.396237
     4  C    0.356258
     5  O   -0.308218
     6  C    0.232750
     7  C   -0.294499
     8  C   -0.207105
     9  C   -0.264894
    10  H    0.288998
    11  H    0.075882
    12  H    0.135232
    13  H    0.122820
    14  H    0.111173
    15  H    0.107384
    16  H    0.120568
    17  H    0.098769
    18  H    0.105839
    19  H    0.126797
 Sum of Mulliken charges =   0.00000

 Dipole moment (field-independent basis, Debye):
    X=             -1.8086    Y=             -2.1122    Z=              0.8028  Tot=              2.8943
 Quadrupole moment (field-independent basis, Debye-Ang):
   XX=            -45.9186   YY=            -61.4367   ZZ=            -51.6933
   XY=             -0.2384   XZ=             -1.1953   YZ=             -0.5156

  Exact polarizability:  86.064  -1.225  76.833  -0.156   0.190  65.403
 Approx polarizability: 113.199   3.891 118.654  -0.464   0.624  98.312

                      1                      2                      3
                      A                      A                      A
 Frequencies --     67.1537                96.8118               155.3752
 Red. masses --      3.6614                 2.4717                 2.7801
 Frc consts  --      0.0097                 0.0136                 0.0395
 IR Inten    --      3.9459                 1.1258                 1.1725

                      4                      5                      6
                      A                      A                      A
 Frequencies --    206.0710               250.3499               264.3814
 Red. masses --      3.5211                 2.1530                 1.3249
 Frc consts  --      0.0881                 0.0795                 0.0546
 IR Inten    --      2.9396                13.5900                64.3753

                      7                      8                      9
                      A                      A                      A
 Frequencies --    312.5981               460.7059               483.7466
 Red. masses --      3.4689                 3.2496                 2.3458
 Frc consts  --      0.1997                 0.4064                 0.3234
 IR Inten    --     35.5554                 3.4133                 1.4836

                     10                     11                     12
                      A                      A                      A
 Frequencies --    532.7103               571.3582               677.3371
 Red. masses --      3.3468                 2.8569                 2.4410
 Frc consts  --      0.5596                 0.5495                 0.6598
 IR Inten    --      1.9527                 2.8614                 6.2285

                     13                     14                     15
                      A                      A                      A
 Frequencies --    698.9861               775.9056               795.8690
 Red. masses --      1.9873                 1.8173                 1.4043
 Frc consts  --      0.5721                 0.6446                 0.5241
 IR Inten    --      1.8361                 0.5788                 0.4906

                     16                     17                     18
                      A                      A                      A
 Frequencies --    840.9399               884.1109               918.2920
 Red. masses --      2.2811                 2.3485                 3.7126
 Frc consts  --      0.9505                 1.0816                 1.8445
 IR Inten    --      8.0126                 1.8126                 5.0613

                     19                     20                     21
                      A                      A                      A
 Frequencies --    943.4676               963.8952              1023.0140
 Red. masses --      2.4314                 2.8567                 1.7328
 Frc consts  --      1.2751                 1.5637                 1.0685
 IR Inten    --      1.2414                 0.5614                29.0217

                     22                     23                     24
                      A                      A                      A
 Frequencies --   1050.1902              1069.5337              1115.5057
 Red. masses --      2.4693                 2.1426                 1.7917
 Frc consts  --      1.6046                 1.4441                 1.3136
 IR Inten    --     60.2848                16.3738                14.3048

                     25                     26                     27
                      A                      A                      A
 Frequencies --   1148.0691              1165.3957              1195.8626
 Red. masses --      2.5285                 1.9259                 1.9810
 Frc consts  --      1.9636                 1.5411                 1.6692
 IR Inten    --     27.2774                 4.1835                13.2638

                     28                     29                     30
                      A                      A                      A
 Frequencies --   1202.7961              1210.9059              1231.5624
 Red. masses --      1.2780                 2.0060                 1.3602
 Frc consts  --      1.0893                 1.7330                 1.2156
 IR Inten    --      5.8309                47.4400                25.4499

                     31                     32                     33
                      A                      A                      A
 Frequencies --   1252.1440              1267.4338              1279.8798
 Red. masses --      1.2452                 1.4697                 1.3801
 Frc consts  --      1.1502                 1.3910                 1.3320
 IR Inten    --      0.3284                 6.0420                 4.0009

                     34                     35                     36
                      A                      A                      A
 Frequencies --   1285.9324              1324.5017              1413.8277
 Red. masses --      1.6016                 1.6563                 1.2787
 Frc consts  --      1.5604                 1.7120                 1.5059
 IR Inten    --      0.8152                68.9150                15.2456

                     37                     38                     39
                      A                      A                      A
 Frequencies --   1436.3565              1468.3489              1481.3441
 Red. masses --      1.2488                 1.0872                 1.0840
 Frc consts  --      1.5180                 1.3810                 1.4015
 IR Inten    --      6.6948                 1.3258                 1.5658

                     40                     41                     42
                      A                      A                      A
 Frequencies --   1500.3199              1878.8548              2998.7525
 Red. masses --      1.1291                12.4752                 1.0846
 Frc consts  --      1.4974                25.9469                 5.7467
 IR Inten    --      0.5599               213.9997                42.6131

                     43                     44                     45
                      A                      A                      A
 Frequencies --   3052.9332              3053.8515              3066.2398
 Red. masses --      1.0592                 1.0579                 1.0570
 Frc consts  --      5.8167                 5.8127                 5.8549
 IR Inten    --      7.9743                31.9559                27.6055

                     46                     47                     48
                      A                      A                      A
 Frequencies --   3071.3595              3105.7208              3118.5615
 Red. masses --      1.0601                 1.1081                 1.1073
 Frc consts  --      5.8921                 6.2973                 6.3446
 IR Inten    --     35.2083                 9.0414                 1.7762

                     49                     50                     51
                      A                      A                      A
 Frequencies --   3119.0265              3133.5173              3821.7996
 Red. masses --      1.1063                 1.1075                 1.0662
 Frc consts  --      6.3410                 6.4073                 9.1757
 IR Inten    --     20.5203                32.4845                28.9042

 - Thermochemistry -
 -------------------
 Temperature   298.150 Kelvin.  Pressure   1.00000 Atm.
 Atom     1 has atomic number  8 and mass  15.99491

 Molecular mass:   126.06808 amu.
 Principal axes and moments of inertia in atomic units:
                           1         2         3
     Eigenvalues --   858.638331039.269751569.60984
           X            0.99604  -0.08886  -0.00209
           Y            0.08887   0.99604   0.00191
           Z            0.00191  -0.00208   1.00000
 This molecule is an asymmetric top.
 Rotational symmetry number  1.
 Warning -- assumption of classical behavior for rotation
           may cause significant error
 Rotational temperatures (Kelvin)      0.10087     0.08334     0.05518
 Rotational constants (GHZ):           2.10186     1.73655     1.14980
 Zero-point vibrational energy     415365.0 (Joules/Mol)
                                   99.27462 (Kcal/Mol)
 Warning -- explicit consideration of  11 degrees of freedom as
           vibrations may cause significant error
 Vibrational temperatures:     96.62   139.29   223.55   296.49   360.20
          (Kelvin)            380.39   449.76   662.85   696.00   766.45
                              822.06   974.54  1005.68  1116.35  1145.08
                             1209.92  1272.04  1321.22  1357.44  1386.83
                             1471.89  1510.99  1538.82  1604.96  1651.81
                             1676.74  1720.58  1730.55  1742.22  1771.94
                             1801.55  1823.55  1841.46  1850.17  1905.66
                             2034.18  2066.59  2112.62  2131.32  2158.62
                             2703.25  4314.53  4392.48  4393.81  4411.63
                             4419.00  4468.43  4486.91  4487.58  4508.43
                             5498.71

 Zero-point correction=                           0.158204 (Hartree/Particle)
 Thermal correction to Energy=                    0.166962
 Thermal correction to Enthalpy=                  0.167907
 Thermal correction to Gibbs Free Energy=         0.124499
 Sum of electronic and zero-point Energies=           -423.019837
 Sum of electronic and thermal Energies=              -423.011078
 Sum of electronic and thermal Enthalpies=            -423.010134
 Sum of electronic and thermal Free Energies=         -423.053542

                     E (Thermal)             CV                S
                      KCal/Mol        Cal/Mol-Kelvin    Cal/Mol-Kelvin
 Total                  104.770             32.910             91.359
 Electronic               0.000              0.000              0.000
 Translational            0.889              2.981             40.409
 Rotational               0.889              2.981             28.728
 Vibrational            102.993             26.948             22.222
 Vibration     1          0.598              1.970              4.235
 Vibration     2          0.603              1.951              3.518
 Vibration     3          0.620              1.897              2.605
 Vibration     4          0.641              1.831              2.078
 Vibration     5          0.663              1.762              1.728
 Vibration     6          0.671              1.738              1.633
 Vibration     7          0.701              1.650              1.349
 Vibration     8          0.819              1.337              0.764
 Vibration     9          0.840              1.286              0.700
 Vibration    10          0.888              1.178              0.581
 Vibration    11          0.928              1.093              0.502

 Optimization completed.
    -- Stationary point found.
 Normal termination of Gaussian 09 at Tue Jan 28 02:58:53 2020.
