 Gaussian 09, Revision D.01,
 Gaussian 09:  ES64L-G09RevD.01 24-Apr-2013

 -----------------------------
 # b3lyp 6-31G(2df,p) opt Freq
 -----------------------------

 -----
 titel
 -----
 Symbolic Z-matrix:
 Charge =  0 Multiplicity = 1

 SCF Done:  E(RB3LYP) =  -423.140566979     A.U. after   14 cycles
 Optimization completed.
    -- Stationary point found.
 Normal termination of Gaussian 09 at Mon Jan 27 14:06:52 2020.

 ----------------------------------------------------------------------
 #N Geom=AllCheck Guess=TCheck SCRF=Check GenChk RB3LYP/6-31G(2df,p) Fr
 eq
 ----------------------------------------------------------------------

 Structure from the checkpoint file:  "/scratch/puck/g09_63da2c85-92fa-4f4c-97ad-a5ad2c04c2c3/Gau-41058.chk"
 -----
 titel
 -----
 Charge =  0 Multiplicity = 1

                         Standard orientation:
 ---------------------------------------------------------------------
 Center     Atomic      Atomic             Coordinates (Angstroms)
 Number     Number       Type             X           Y           Z
 ---------------------------------------------------------------------
      1          6           0       -2.307302   -0.832262    0.488171
      2          6           0       -1.505129    0.207508   -0.260257
      3          8           0       -1.915624    1.329528   -0.461642
      4          6           0       -0.126865   -0.171169   -0.782307
      5          6           0        0.662177   -1.369240   -0.201713
      6          6           0        1.986824   -0.700563   -0.626422
      7          6           0        1.084823    0.363996    0.051572
      8          6           0        1.377646    1.763534    0.483547
      9          8           0        0.751921   -0.657482    1.095829
     10          1           0       -2.432422   -1.733168   -0.124186
     11          1           0       -1.752270   -1.124956    1.384870
     12          1           0       -3.283939   -0.428205    0.757664
     13          1           0       -0.068817   -0.000555   -1.861895
     14          1           0        0.400318   -2.426645   -0.172898
     15          1           0        2.857335   -1.001079   -0.041837
     16          1           0        2.199283   -0.592132   -1.692966
     17          1           0        1.669818    2.366954   -0.381199
     18          1           0        0.491500    2.218711    0.933548
     19          1           0        2.195769    1.773883    1.209855
 ---------------------------------------------------------------------

 SCF Done:  E(RB3LYP) =  -423.140566979     A.U. after    1 cycles

 The electronic state is 1-A.
 Alpha  occ. eigenvalues --  -19.13739 -19.12609 -10.26889 -10.26253 -10.25552
 Alpha  occ. eigenvalues --  -10.20322 -10.19840 -10.18612 -10.18228  -1.06127
 Alpha  occ. eigenvalues --   -1.03527  -0.80442  -0.75302  -0.74330  -0.69196
 Alpha  occ. eigenvalues --   -0.62023  -0.57659  -0.51306  -0.48678  -0.47364
 Alpha  occ. eigenvalues --   -0.46201  -0.44314  -0.43479  -0.42301  -0.41290
 Alpha  occ. eigenvalues --   -0.40163  -0.37441  -0.37046  -0.35493  -0.32943
 Alpha  occ. eigenvalues --   -0.32685  -0.31732  -0.25170  -0.23682
 Alpha virt. eigenvalues --   -0.01385   0.08684   0.09896   0.10804   0.12359
 Alpha virt. eigenvalues --    0.12833   0.13477   0.14186   0.15389   0.15607
 Alpha virt. eigenvalues --    0.16381   0.17323   0.17604   0.18336   0.19817

 Mulliken charges:
               1
     1  C   -0.486291
     2  C    0.367890
     3  O   -0.313200
     4  C   -0.122017
     5  C    0.019019
     6  C   -0.266143
     7  C    0.413100
     8  C   -0.509810
     9  O   -0.352445
    10  H    0.130259
    11  H    0.164135
    12  H    0.135433
    13  H    0.096462
    14  H    0.097671
    15  H    0.110236
    16  H    0.098284
    17  H    0.133223
    18  H    0.150536
    19  H    0.133656
 Sum of Mulliken charges =   0.00000

 Dipole moment (field-independent basis, Debye):
    X=              1.4629    Y=             -1.6982    Z=             -1.1167  Tot=              2.5042
 Quadrupole moment (field-independent basis, Debye-Ang):
   XX=            -53.4550   YY=            -53.3028   ZZ=            -54.0464
   XY=              6.0459   XZ=             -2.6472   YZ=              2.7621

  Exact polarizability:  84.547   0.205  78.934  -2.408  -0.303  64.470
 Approx polarizability: 110.831  -4.196 121.517  -0.650  -4.057 105.180

                      1                      2                      3
                      A                      A                      A
 Frequencies --     34.5633               131.7375               160.0271
 Red. masses --      4.2583                 3.6985                 1.2246
 Frc consts  --      0.0030                 0.0378                 0.0185
 IR Inten    --      6.2997                 2.5218                 1.0990

                      4                      5                      6
                      A                      A                      A
 Frequencies --    175.9307               200.5914               292.9148
 Red. masses --      1.0739                 2.3150                 3.0922
 Frc consts  --      0.0196                 0.0549                 0.1563
 IR Inten    --      0.0648                 4.5846                 0.1873

                      7                      8                      9
                      A                      A                      A
 Frequencies --    307.3300               380.9115               448.0850
 Red. masses --      2.6356                 3.0224                 3.9530
 Frc consts  --      0.1467                 0.2584                 0.4676
 IR Inten    --      4.3537                 0.4122                 1.5414

                     10                     11                     12
                      A                      A                      A
 Frequencies --    521.5534               561.8986               645.4277
 Red. masses --      2.6639                 2.7457                 4.1436
 Frc consts  --      0.4269                 0.5108                 1.0170
 IR Inten    --      4.7879                17.6831                 8.8531

                     13                     14                     15
                      A                      A                      A
 Frequencies --    651.2783               736.3518               771.3044
 Red. masses --      3.0745                 4.2372                 2.5343
 Frc consts  --      0.7684                 1.3536                 0.8883
 IR Inten    --      2.9169                15.5210                 0.4396

                     16                     17                     18
                      A                      A                      A
 Frequencies --    825.1148               881.7653               913.5837
 Red. masses --      2.9345                 2.7087                 3.0479
 Frc consts  --      1.1771                 1.2408                 1.4988
 IR Inten    --      3.5572                21.8241                 5.1182

                     19                     20                     21
                      A                      A                      A
 Frequencies --    927.6199               983.1902              1008.8531
 Red. masses --      2.2122                 1.7202                 1.9141
 Frc consts  --      1.1215                 0.9797                 1.1478
 IR Inten    --      1.5302                 7.0839                 2.6984

                     22                     23                     24
                      A                      A                      A
 Frequencies --   1018.2582              1027.8773              1066.5952
 Red. masses --      1.3732                 1.4016                 1.8676
 Frc consts  --      0.8389                 0.8725                 1.2518
 IR Inten    --      5.0120                 4.0042                 6.7489

                     25                     26                     27
                      A                      A                      A
 Frequencies --   1104.6625              1125.7054              1157.2518
 Red. masses --      1.9142                 1.6578                 1.5384
 Frc consts  --      1.3762                 1.2378                 1.2139
 IR Inten    --     12.3087                 9.4060                 3.0942

                     28                     29                     30
                      A                      A                      A
 Frequencies --   1199.2690              1222.6731              1236.8345
 Red. masses --      1.5963                 1.6240                 2.1773
 Frc consts  --      1.3527                 1.4304                 1.9624
 IR Inten    --     18.5238                23.8089                64.0021

                     31                     32                     33
                      A                      A                      A
 Frequencies --   1248.2302              1326.2560              1360.3696
 Red. masses --      1.9074                 2.4121                 1.8655
 Frc consts  --      1.7510                 2.4998                 2.0340
 IR Inten    --     15.3976                11.4927                12.4228

                     34                     35                     36
                      A                      A                      A
 Frequencies --   1374.5102              1415.0972              1467.1878
 Red. masses --      1.3884                 1.5485                 1.0580
 Frc consts  --      1.5455                 1.8270                 1.3419
 IR Inten    --     55.2874                21.9212                 8.6998

                     37                     38                     39
                      A                      A                      A
 Frequencies --   1474.7258              1476.1565              1481.8918
 Red. masses --      1.0503                 1.0486                 1.0470
 Frc consts  --      1.3458                 1.3463                 1.3547
 IR Inten    --     10.0695                 1.4220                 4.8258

                     40                     41                     42
                      A                      A                      A
 Frequencies --   1491.9159              1797.7283              3036.3180
 Red. masses --      1.2532                10.9611                 1.0375
 Frc consts  --      1.6435                20.8714                 5.6356
 IR Inten    --      2.3335               148.7966                 3.2553

                     43                     44                     45
                      A                      A                      A
 Frequencies --   3044.6073              3059.9368              3070.4975
 Red. masses --      1.0348                 1.0655                 1.0742
 Frc consts  --      5.6516                 5.8779                 5.9668
 IR Inten    --     11.1092                19.6575                33.1952

                     46                     47                     48
                      A                      A                      A
 Frequencies --   3105.4258              3118.2143              3123.1157
 Red. masses --      1.0952                 1.1011                 1.0935
 Frc consts  --      6.2228                 6.3078                 6.2842
 IR Inten    --      4.0468                 8.6456                43.5213

                     49                     50                     51
                      A                      A                      A
 Frequencies --   3127.2215              3146.5354              3153.4264
 Red. masses --      1.1018                 1.1103                 1.1035
 Frc consts  --      6.3484                 6.4768                 6.4655
 IR Inten    --      6.7461                22.5807                10.7848

 - Thermochemistry -
 -------------------
 Temperature   298.150 Kelvin.  Pressure   1.00000 Atm.
 Atom     1 has atomic number  6 and mass  12.00000

 Molecular mass:   126.06808 amu.
 Principal axes and moments of inertia in atomic units:
                           1         2         3
     Eigenvalues --   676.168941226.487281525.05338
           X            0.99694   0.07461  -0.02315
           Y           -0.07381   0.99671   0.03341
           Z            0.02557  -0.03160   0.99917
 This molecule is an asymmetric top.
 Rotational symmetry number  1.
 Warning -- assumption of classical behavior for rotation
           may cause significant error
 Rotational temperatures (Kelvin)      0.12809     0.07062     0.05679
 Rotational constants (GHZ):           2.66907     1.47147     1.18340
 Zero-point vibrational energy     410429.9 (Joules/Mol)
                                   98.09511 (Kcal/Mol)
 Warning -- explicit consideration of  11 degrees of freedom as
           vibrations may cause significant error
 Vibrational temperatures:     49.73   189.54   230.24   253.12   288.61
          (Kelvin)            421.44   442.18   548.05   644.69   750.40
                              808.45   928.63   937.04  1059.44  1109.73
                             1187.15  1268.66  1314.44  1334.64  1414.59
                             1451.51  1465.04  1478.88  1534.59  1589.36
                             1619.64  1665.03  1725.48  1759.15  1779.53
                             1795.92  1908.18  1957.27  1977.61  2036.01
                             2110.95  2121.80  2123.86  2132.11  2146.53
                             2586.53  4368.58  4380.51  4402.56  4417.76
                             4468.01  4486.41  4493.46  4499.37  4527.16
                             4537.07

 Zero-point correction=                           0.156325 (Hartree/Particle)
 Thermal correction to Energy=                    0.165357
 Thermal correction to Enthalpy=                  0.166301
 Thermal correction to Gibbs Free Energy=         0.122071
 Sum of electronic and zero-point Energies=           -422.984242
 Sum of electronic and thermal Energies=              -422.975210
 Sum of electronic and thermal Enthalpies=            -422.974266
 Sum of electronic and thermal Free Energies=         -423.018496

                     E (Thermal)             CV                S
                      KCal/Mol        Cal/Mol-Kelvin    Cal/Mol-Kelvin
 Total                  103.763             33.616             93.088
 Electronic               0.000              0.000              0.000
 Translational            0.889              2.981             40.409
 Rotational               0.889              2.981             28.627
 Vibrational            101.985             27.654             24.053
 Vibration     1          0.594              1.983              5.549
 Vibration     2          0.612              1.922              2.921
 Vibration     3          0.622              1.891              2.549
 Vibration     4          0.628              1.872              2.371
 Vibration     5          0.638              1.839              2.128
 Vibration     6          0.688              1.687              1.457
 Vibration     7          0.697              1.660              1.377
 Vibration     8          0.751              1.511              1.036
 Vibration     9          0.807              1.365              0.802
 Vibration    10          0.877              1.202              0.606
 Vibration    11          0.918              1.114              0.520

 Normal termination of Gaussian 09 at Mon Jan 27 14:49:50 2020.
