 Gaussian 09, Revision D.01,
 Gaussian 09:  ES64L-G09RevD.01 24-Apr-2013

 -----------------------------
 # b3lyp 6-31G(2df,p) opt Freq
 -----------------------------

 -----
 titel
 -----
 Symbolic Z-matrix:
 Charge =  0 Multiplicity = 1

 SCF Done:  E(RB3LYP) =  -423.227284726     A.U. after   14 cycles
 Optimization completed.
    -- Stationary point found.
 Normal termination of Gaussian 09 at Tue Jan 28 03:15:59 2020.

 ----------------------------------------------------------------------
 #N Geom=AllCheck Guess=TCheck SCRF=Check GenChk RB3LYP/6-31G(2df,p) Fr
 eq
 ----------------------------------------------------------------------

 Structure from the checkpoint file:  "/scratch/puck/g09_643a4ebc-df21-4f89-92fd-5eabdfd352a1/Gau-66787.chk"
 -----
 titel
 -----
 Charge =  0 Multiplicity = 1

                         Standard orientation:
 ---------------------------------------------------------------------
 Center     Atomic      Atomic             Coordinates (Angstroms)
 Number     Number       Type             X           Y           Z
 ---------------------------------------------------------------------
      1          8           0       -0.323387    2.084762   -0.413022
      2          6           0       -0.880885    1.020110    0.337781
      3          6           0       -1.582378    0.027226   -0.633819
      4          6           0       -0.809084   -1.292134   -0.419228
      5          6           0       -0.546703   -1.234518    1.107118
      6          6           0        0.177408    0.128755    1.060889
      7          6           0        1.255757   -0.144235    0.011371
      8          8           0        2.369611    0.308132   -0.023416
      9          6           0        0.617828   -1.128307   -0.984701
     10          1           0        0.288016    2.571423    0.150453
     11          1           0       -1.589282    1.406943    1.084226
     12          1           0       -2.638960   -0.091399   -0.379232
     13          1           0       -1.521174    0.403980   -1.657631
     14          1           0       -1.329989   -2.180502   -0.778952
     15          1           0       -1.466510   -1.209681    1.699095
     16          1           0        0.086375   -2.046603    1.477756
     17          1           0        0.567893    0.547081    1.988865
     18          1           0        0.664798   -0.734918   -2.003881
     19          1           0        1.177380   -2.070855   -0.965655
 ---------------------------------------------------------------------

 SCF Done:  E(RB3LYP) =  -423.227284726     A.U. after    1 cycles

 The electronic state is 1-A.
 Alpha  occ. eigenvalues --  -19.14185 -19.12562 -10.26297 -10.24315 -10.19864
 Alpha  occ. eigenvalues --  -10.19526 -10.19272 -10.18750 -10.18529  -1.03808
 Alpha  occ. eigenvalues --   -1.02357  -0.87561  -0.73902  -0.72971  -0.68877
 Alpha  occ. eigenvalues --   -0.59722  -0.56778  -0.53953  -0.51609  -0.49099
 Alpha  occ. eigenvalues --   -0.46868  -0.43324  -0.42162  -0.41170  -0.40275
 Alpha  occ. eigenvalues --   -0.38187  -0.37393  -0.36224  -0.35913  -0.33229
 Alpha  occ. eigenvalues --   -0.32503  -0.31425  -0.27456  -0.23247
 Alpha virt. eigenvalues --   -0.00989   0.07628   0.08262   0.11669   0.13685
 Alpha virt. eigenvalues --    0.14511   0.15084   0.15378   0.16479   0.16549
 Alpha virt. eigenvalues --    0.17355   0.18157   0.20079   0.20422   0.22272

 Mulliken charges:
               1
     1  O   -0.433498
     2  C    0.136894
     3  C   -0.225347
     4  C   -0.022055
     5  C   -0.241045
     6  C   -0.178491
     7  C    0.447249
     8  O   -0.340190
     9  C   -0.328482
    10  H    0.289617
    11  H    0.074280
    12  H    0.099198
    13  H    0.117171
    14  H    0.067848
    15  H    0.103279
    16  H    0.105507
    17  H    0.073296
    18  H    0.130643
    19  H    0.124126
 Sum of Mulliken charges =   0.00000

 Dipole moment (field-independent basis, Debye):
    X=             -2.3623    Y=             -1.2310    Z=              1.2314  Tot=              2.9346
 Quadrupole moment (field-independent basis, Debye-Ang):
   XX=            -60.0528   YY=            -50.7691   ZZ=            -51.6620
   XY=              0.0068   XZ=             -0.2704   YZ=              3.2926

  Exact polarizability:  78.176   2.574  73.710  -0.911   2.265  69.279
 Approx polarizability: 118.494   7.274 106.498  -1.438   1.466 103.949

                      1                      2                      3
                      A                      A                      A
 Frequencies --    101.9407               120.1249               293.4115
 Red. masses --      3.3484                 4.8344                 1.2385
 Frc consts  --      0.0205                 0.0411                 0.0628
 IR Inten    --      3.4105                 8.3978               108.1789

                      4                      5                      6
                      A                      A                      A
 Frequencies --    334.4975               388.6316               424.6058
 Red. masses --      2.6418                 2.0017                 2.9090
 Frc consts  --      0.1742                 0.1781                 0.3090
 IR Inten    --      8.1986                 2.2532                 7.4904

                      7                      8                      9
                      A                      A                      A
 Frequencies --    442.1605               486.1953               517.1231
 Red. masses --      2.6496                 3.5966                 4.2836
 Frc consts  --      0.3052                 0.5009                 0.6749
 IR Inten    --      2.8547                 3.9347                 4.5364

                     10                     11                     12
                      A                      A                      A
 Frequencies --    608.5058               671.3505               763.4640
 Red. masses --      2.8476                 4.2425                 4.4830
 Frc consts  --      0.6212                 1.1266                 1.5395
 IR Inten    --      0.9756                 0.7811                 4.4570

                     13                     14                     15
                      A                      A                      A
 Frequencies --    804.6701               825.3077               875.0818
 Red. masses --      2.7914                 2.5484                 2.7203
 Frc consts  --      1.0649                 1.0227                 1.2273
 IR Inten    --      1.5829                 2.4937                 6.1258

                     16                     17                     18
                      A                      A                      A
 Frequencies --    909.0501               924.6363               942.2103
 Red. masses --      1.7881                 2.4919                 2.2297
 Frc consts  --      0.8706                 1.2552                 1.1662
 IR Inten    --      4.1408                 2.1250                11.8941

                     19                     20                     21
                      A                      A                      A
 Frequencies --    963.0739               968.0220              1018.3035
 Red. masses --      1.8340                 2.0008                 2.6269
 Frc consts  --      1.0022                 1.1046                 1.6049
 IR Inten    --      0.4287                 2.5491                19.7036

                     22                     23                     24
                      A                      A                      A
 Frequencies --   1047.5434              1077.9901              1097.2370
 Red. masses --      1.8121                 1.4669                 1.7879
 Frc consts  --      1.1716                 1.0043                 1.2682
 IR Inten    --     27.9018                16.9280                19.9389

                     25                     26                     27
                      A                      A                      A
 Frequencies --   1133.5417              1151.2522              1176.8785
 Red. masses --      1.0746                 1.8131                 2.1756
 Frc consts  --      0.8135                 1.4158                 1.7754
 IR Inten    --      3.5296                19.9277                33.8964

                     28                     29                     30
                      A                      A                      A
 Frequencies --   1212.8986              1218.1252              1260.5186
 Red. masses --      1.3911                 1.4782                 1.4738
 Frc consts  --      1.2057                 1.2923                 1.3797
 IR Inten    --      8.3525                 3.9506                17.7774

                     31                     32                     33
                      A                      A                      A
 Frequencies --   1273.1504              1284.8526              1300.6314
 Red. masses --      1.3361                 1.5842                 1.5024
 Frc consts  --      1.2760                 1.5408                 1.4974
 IR Inten    --     32.7870                 7.1374                 4.2787

                     34                     35                     36
                      A                      A                      A
 Frequencies --   1326.2666              1345.5690              1364.3499
 Red. masses --      1.5532                 1.4637                 1.4566
 Frc consts  --      1.6097                 1.5614                 1.5975
 IR Inten    --      6.0395                 3.1216                16.0058

                     37                     38                     39
                      A                      A                      A
 Frequencies --   1412.6293              1445.7119              1487.7491
 Red. masses --      1.4776                 1.0910                 1.0908
 Frc consts  --      1.7372                 1.3435                 1.4226
 IR Inten    --      5.4663                 7.3126                 4.6577

                     40                     41                     42
                      A                      A                      A
 Frequencies --   1508.5530              1854.9406              2988.0394
 Red. masses --      1.1018                12.4081                 1.0850
 Frc consts  --      1.4773                25.1545                 5.7074
 IR Inten    --      2.1494               229.4633                48.8929

                     43                     44                     45
                      A                      A                      A
 Frequencies --   3046.0914              3051.1513              3063.8738
 Red. masses --      1.0629                 1.0587                 1.0615
 Frc consts  --      5.8107                 5.8069                 5.8711
 IR Inten    --     14.3735                26.7808                24.2422

                     46                     47                     48
                      A                      A                      A
 Frequencies --   3099.2460              3102.1564              3102.8692
 Red. masses --      1.1067                 1.0993                 1.0889
 Frc consts  --      6.2632                 6.2328                 6.1771
 IR Inten    --     20.6584                11.3864                41.3910

                     49                     50                     51
                      A                      A                      A
 Frequencies --   3114.5309              3117.2045              3809.1838
 Red. masses --      1.1045                 1.0892                 1.0661
 Frc consts  --      6.3128                 6.2357                 9.1142
 IR Inten    --     21.2166                18.2304                24.6783

 - Thermochemistry -
 -------------------
 Temperature   298.150 Kelvin.  Pressure   1.00000 Atm.
 Atom     1 has atomic number  8 and mass  15.99491

 Molecular mass:   126.06808 amu.
 Principal axes and moments of inertia in atomic units:
                           1         2         3
     Eigenvalues --   827.32180 905.814341235.81354
           X            0.99994   0.00851  -0.00736
           Y           -0.00832   0.99962   0.02615
           Z            0.00757  -0.02608   0.99963
 This molecule is an asymmetric top.
 Rotational symmetry number  1.
 Warning -- assumption of classical behavior for rotation
           may cause significant error
 Rotational temperatures (Kelvin)      0.10469     0.09562     0.07009
 Rotational constants (GHZ):           2.18143     1.99240     1.46037
 Zero-point vibrational energy     423819.6 (Joules/Mol)
                                  101.29531 (Kcal/Mol)
 Warning -- explicit consideration of  10 degrees of freedom as
           vibrations may cause significant error
 Vibrational temperatures:    146.67   172.83   422.15   481.27   559.15
          (Kelvin)            610.91   636.17   699.53   744.02   875.50
                              965.92  1098.45  1157.74  1187.43  1259.05
                             1307.92  1330.34  1355.63  1385.65  1392.77
                             1465.11  1507.18  1550.99  1578.68  1630.91
                             1656.39  1693.26  1745.09  1752.61  1813.60
                             1831.78  1848.61  1871.32  1908.20  1935.97
                             1962.99  2032.46  2080.05  2140.54  2170.47
                             2668.84  4299.12  4382.64  4389.92  4408.23
                             4459.12  4463.31  4464.33  4481.11  4484.96
                             5480.56

 Zero-point correction=                           0.161424 (Hartree/Particle)
 Thermal correction to Energy=                    0.168935
 Thermal correction to Enthalpy=                  0.169879
 Thermal correction to Gibbs Free Energy=         0.129554
 Sum of electronic and zero-point Energies=           -423.065860
 Sum of electronic and thermal Energies=              -423.058350
 Sum of electronic and thermal Enthalpies=            -423.057406
 Sum of electronic and thermal Free Energies=         -423.097730

                     E (Thermal)             CV                S
                      KCal/Mol        Cal/Mol-Kelvin    Cal/Mol-Kelvin
 Total                  106.008             30.299             84.870
 Electronic               0.000              0.000              0.000
 Translational            0.889              2.981             40.409
 Rotational               0.889              2.981             28.317
 Vibrational            104.231             24.337             16.144
 Vibration     1          0.604              1.948              3.417
 Vibration     2          0.609              1.932              3.098
 Vibration     3          0.688              1.686              1.454
 Vibration     4          0.716              1.607              1.238
 Vibration     5          0.757              1.494              1.005
 Vibration     6          0.787              1.417              0.876
 Vibration     7          0.802              1.378              0.820
 Vibration     8          0.842              1.281              0.694
 Vibration     9          0.872              1.212              0.617
 Vibration    10          0.967              1.014              0.435

 Normal termination of Gaussian 09 at Tue Jan 28 04:15:28 2020.
