 Gaussian 09, Revision D.01,
 Gaussian 09:  ES64L-G09RevD.01 24-Apr-2013

 -----------------------------
 # b3lyp 6-31G(2df,p) opt Freq
 -----------------------------

 -----
 titel
 -----
 Symbolic Z-matrix:
 Charge =  0 Multiplicity = 1

 SCF Done:  E(RB3LYP) =  -423.157686881     A.U. after   14 cycles
 Optimization completed.
    -- Stationary point found.
 Normal termination of Gaussian 09 at Mon Jan 27 13:14:48 2020.

 ----------------------------------------------------------------------
 #N Geom=AllCheck Guess=TCheck SCRF=Check GenChk RB3LYP/6-31G(2df,p) Fr
 eq
 ----------------------------------------------------------------------

 Structure from the checkpoint file:  "/scratch/puck/g09_2325c79e-99bd-4a39-be46-fcdb225b927b/Gau-169559.chk"
 -----
 titel
 -----
 Charge =  0 Multiplicity = 1

                         Standard orientation:
 ---------------------------------------------------------------------
 Center     Atomic      Atomic             Coordinates (Angstroms)
 Number     Number       Type             X           Y           Z
 ---------------------------------------------------------------------
      1          8           0       -3.072449   -0.868187   -0.744399
      2          6           0       -2.803292    0.170349   -0.193449
      3          6           0       -1.559402    0.413474    0.612872
      4          6           0       -0.431750    1.225581   -0.119188
      5          6           0        0.606312    0.227416    0.473495
      6          6           0       -0.559529   -0.751516    0.793806
      7          6           0        1.707888   -0.258388   -0.421742
      8          6           0        3.006402   -0.705726    0.099150
      9          8           0        2.870374    0.570709   -0.526302
     10          1           0       -3.474467    1.055590   -0.288684
     11          1           0       -1.830596    0.904228    1.553943
     12          1           0       -0.508526    1.130501   -1.206892
     13          1           0       -0.322657    2.280572    0.136052
     14          1           0        1.044536    0.634931    1.389608
     15          1           0       -0.707591   -1.498605    0.008736
     16          1           0       -0.540672   -1.256461    1.761182
     17          1           0        1.377489   -0.674839   -1.376378
     18          1           0        3.190244   -0.682564    1.172896
     19          1           0        3.589062   -1.440672   -0.454520
 ---------------------------------------------------------------------

 SCF Done:  E(RB3LYP) =  -423.157686881     A.U. after    1 cycles

 The electronic state is 1-A.
 Alpha  occ. eigenvalues --  -19.15110 -19.14161 -10.27138 -10.23923 -10.23531
 Alpha  occ. eigenvalues --  -10.20394 -10.20102 -10.20060 -10.19067  -1.07084
 Alpha  occ. eigenvalues --   -1.04753  -0.86177  -0.73039  -0.67531  -0.66802
 Alpha  occ. eigenvalues --   -0.63776  -0.57881  -0.54718  -0.50689  -0.50532
 Alpha  occ. eigenvalues --   -0.48063  -0.46004  -0.43712  -0.40872  -0.40342
 Alpha  occ. eigenvalues --   -0.40039  -0.38019  -0.36314  -0.33990  -0.33454
 Alpha  occ. eigenvalues --   -0.32164  -0.29510  -0.26860  -0.25142
 Alpha virt. eigenvalues --   -0.02415   0.07317   0.09151   0.09962   0.10929
 Alpha virt. eigenvalues --    0.11683   0.12665   0.13681   0.15254   0.16536
 Alpha virt. eigenvalues --    0.16734   0.17943   0.18298   0.19374   0.19498

 Mulliken charges:
               1
     1  O   -0.243731
     2  C    0.138238
     3  C   -0.070980
     4  C   -0.263986
     5  C    0.019876
     6  C   -0.267217
     7  C    0.079074
     8  C   -0.183719
     9  O   -0.239141
    10  H    0.075467
    11  H    0.090747
    12  H    0.116572
    13  H    0.116411
    14  H    0.078358
    15  H    0.126392
    16  H    0.107191
    17  H    0.092156
    18  H    0.111678
    19  H    0.116614
 Sum of Mulliken charges =   0.00000

 Dipole moment (field-independent basis, Debye):
    X=              0.3237    Y=              0.5332    Z=              1.8293  Tot=              1.9327
 Quadrupole moment (field-independent basis, Debye-Ang):
   XX=            -61.2111   YY=            -54.0091   ZZ=            -52.0319
   XY=            -10.6509   XZ=             -1.5005   YZ=             -0.0562

  Exact polarizability:  95.052  -4.916  71.412   4.031   1.456  65.349
 Approx polarizability: 117.220   1.149 114.518   6.856   5.163 101.287

                      1                      2                      3
                      A                      A                      A
 Frequencies --     49.6865                65.4126                91.1243
 Red. masses --      6.1332                 3.9199                 2.7554
 Frc consts  --      0.0089                 0.0099                 0.0135
 IR Inten    --      3.1038                 4.5269                 4.2999

                      4                      5                      6
                      A                      A                      A
 Frequencies --    187.0555               230.4636               265.8563
 Red. masses --      2.8657                 4.4892                 2.5783
 Frc consts  --      0.0591                 0.1405                 0.1074
 IR Inten    --      3.5045                 5.8597                 1.4471

                      7                      8                      9
                      A                      A                      A
 Frequencies --    341.9457               370.9399               476.3713
 Red. masses --      2.1166                 4.0854                 3.3517
 Frc consts  --      0.1458                 0.3312                 0.4481
 IR Inten    --      0.2682                 4.5382                 9.2010

                     10                     11                     12
                      A                      A                      A
 Frequencies --    589.6158               685.0011               773.1631
 Red. masses --      2.2875                 3.3855                 2.2092
 Frc consts  --      0.4685                 0.9359                 0.7781
 IR Inten    --      2.9371                12.1725                 6.7482

                     13                     14                     15
                      A                      A                      A
 Frequencies --    808.6153               857.0705               874.0080
 Red. masses --      1.3116                 6.5122                 2.2196
 Frc consts  --      0.5053                 2.8185                 0.9990
 IR Inten    --      2.5639                19.1801                13.9875

                     16                     17                     18
                      A                      A                      A
 Frequencies --    920.5679               935.1727               958.2367
 Red. masses --      2.5598                 2.8402                 1.7758
 Frc consts  --      1.2781                 1.4635                 0.9607
 IR Inten    --     15.9187                 7.5098                 3.0651

                     19                     20                     21
                      A                      A                      A
 Frequencies --    968.5223              1007.0039              1037.9004
 Red. masses --      1.5452                 1.7004                 1.7026
 Frc consts  --      0.8540                 1.0159                 1.0806
 IR Inten    --      5.9222                10.6384                 0.0432

                     22                     23                     24
                      A                      A                      A
 Frequencies --   1084.0778              1107.5372              1119.8005
 Red. masses --      2.0174                 1.5424                 2.3284
 Frc consts  --      1.3969                 1.1147                 1.7203
 IR Inten    --      3.0211                 2.0052                15.1077

                     25                     26                     27
                      A                      A                      A
 Frequencies --   1151.5961              1160.6187              1173.0028
 Red. masses --      1.6973                 1.4597                 1.3723
 Frc consts  --      1.3262                 1.1585                 1.1125
 IR Inten    --      3.8095                 5.2718                 4.6829

                     28                     29                     30
                      A                      A                      A
 Frequencies --   1220.9106              1234.0974              1242.5392
 Red. masses --      1.7384                 1.3268                 1.1975
 Frc consts  --      1.5268                 1.1906                 1.0893
 IR Inten    --      3.3170                 0.4022                 2.6794

                     31                     32                     33
                      A                      A                      A
 Frequencies --   1263.8145              1273.5343              1293.6203
 Red. masses --      1.3678                 1.3537                 1.6195
 Frc consts  --      1.2871                 1.2936                 1.5967
 IR Inten    --      1.2455                 1.2603                 4.9944

                     34                     35                     36
                      A                      A                      A
 Frequencies --   1329.1451              1359.4177              1422.8497
 Red. masses --      1.3935                 1.7594                 1.2088
 Frc consts  --      1.4505                 1.9157                 1.4418
 IR Inten    --     16.9831                 8.0762                12.7745

                     37                     38                     39
                      A                      A                      A
 Frequencies --   1456.5909              1476.3679              1499.1015
 Red. masses --      1.7179                 1.0864                 1.1308
 Frc consts  --      2.1475                 1.3952                 1.4973
 IR Inten    --      5.8683                 2.2777                 6.5595

                     40                     41                     42
                      A                      A                      A
 Frequencies --   1530.2656              1821.3465              2861.3318
 Red. masses --      1.3728                10.2338                 1.0823
 Frc consts  --      1.8941                20.0020                 5.2207
 IR Inten    --      2.5756               149.8098               144.2406

                     43                     44                     45
                      A                      A                      A
 Frequencies --   3053.3098              3057.1103              3061.4121
 Red. masses --      1.0822                 1.0674                 1.0793
 Frc consts  --      5.9441                 5.8777                 5.9600
 IR Inten    --     14.6152                20.5188                10.0347

                     46                     47                     48
                      A                      A                      A
 Frequencies --   3067.6930              3080.2896              3085.4775
 Red. masses --      1.0594                 1.0531                 1.0846
 Frc consts  --      5.8740                 5.8873                 6.0839
 IR Inten    --      9.8657                35.5566                19.0760

                     49                     50                     51
                      A                      A                      A
 Frequencies --   3123.1373              3127.1096              3167.0703
 Red. masses --      1.1068                 1.1059                 1.1194
 Frc consts  --      6.3608                 6.3716                 6.6153
 IR Inten    --     17.3918                29.6678                28.3548

 - Thermochemistry -
 -------------------
 Temperature   298.150 Kelvin.  Pressure   1.00000 Atm.
 Atom     1 has atomic number  8 and mass  15.99491

 Molecular mass:   126.06808 amu.
 Principal axes and moments of inertia in atomic units:
                           1         2         3
     Eigenvalues --   395.617572309.709402395.08424
           X            0.99973  -0.02312  -0.00047
           Y            0.02311   0.99953  -0.02039
           Z            0.00094   0.02037   0.99979
 This molecule is an asymmetric top.
 Rotational symmetry number  1.
 Rotational temperatures (Kelvin)      0.21893     0.03750     0.03616
 Rotational constants (GHZ):           4.56183     0.78137     0.75352
 Zero-point vibrational energy     415091.7 (Joules/Mol)
                                   99.20929 (Kcal/Mol)
 Warning -- explicit consideration of  10 degrees of freedom as
           vibrations may cause significant error
 Vibrational temperatures:     71.49    94.11   131.11   269.13   331.59
          (Kelvin)            382.51   491.98   533.70   685.39   848.32
                              985.56  1112.41  1163.42  1233.13  1257.50
                             1324.49  1345.50  1378.69  1393.49  1448.85
                             1493.31  1559.74  1593.50  1611.14  1656.89
                             1669.87  1687.69  1756.62  1775.59  1787.73
                             1818.34  1832.33  1861.23  1912.34  1955.90
                             2047.16  2095.71  2124.16  2156.87  2201.71
                             2620.51  4116.81  4393.03  4398.49  4404.68
                             4413.72  4431.84  4439.31  4493.49  4499.21
                             4556.70

 Zero-point correction=                           0.158100 (Hartree/Particle)
 Thermal correction to Energy=                    0.166915
 Thermal correction to Enthalpy=                  0.167859
 Thermal correction to Gibbs Free Energy=         0.123239
 Sum of electronic and zero-point Energies=           -422.999587
 Sum of electronic and thermal Energies=              -422.990772
 Sum of electronic and thermal Enthalpies=            -422.989828
 Sum of electronic and thermal Free Energies=         -423.034448

                     E (Thermal)             CV                S
                      KCal/Mol        Cal/Mol-Kelvin    Cal/Mol-Kelvin
 Total                  104.741             31.741             93.911
 Electronic               0.000              0.000              0.000
 Translational            0.889              2.981             40.409
 Rotational               0.889              2.981             29.172
 Vibrational            102.963             25.780             24.331
 Vibration     1          0.595              1.978              4.830
 Vibration     2          0.597              1.971              4.287
 Vibration     3          0.602              1.955              3.636
 Vibration     4          0.632              1.858              2.257
 Vibration     5          0.652              1.794              1.875
 Vibration     6          0.672              1.736              1.623
 Vibration     7          0.721              1.592              1.203
 Vibration     8          0.743              1.532              1.076
 Vibration     9          0.833              1.302              0.720
 Vibration    10          0.947              1.054              0.468

 Normal termination of Gaussian 09 at Mon Jan 27 13:52:54 2020.
