 Gaussian 09, Revision D.01,
 Gaussian 09:  ES64L-G09RevD.01 24-Apr-2013

 -----------------------------
 # b3lyp 6-31G(2df,p) opt Freq
 -----------------------------

 -----
 titel
 -----
 Symbolic Z-matrix:
 Charge =  0 Multiplicity = 1

 SCF Done:  E(RB3LYP) =  -423.183196821     A.U. after   14 cycles
 Optimization completed.
    -- Stationary point found.
 Normal termination of Gaussian 09 at Tue Jan 28 02:59:13 2020.

 ----------------------------------------------------------------------
 #N Geom=AllCheck Guess=TCheck SCRF=Check GenChk RB3LYP/6-31G(2df,p) Fr
 eq
 ----------------------------------------------------------------------

 Structure from the checkpoint file:  "/scratch/puck/g09_3a5a9407-7816-4f75-9c8f-a59f8a342766/Gau-44415.chk"
 -----
 titel
 -----
 Charge =  0 Multiplicity = 1

                         Standard orientation:
 ---------------------------------------------------------------------
 Center     Atomic      Atomic             Coordinates (Angstroms)
 Number     Number       Type             X           Y           Z
 ---------------------------------------------------------------------
      1          6           0        2.887881   -0.799671   -0.377129
      2          6           0        1.847338   -0.025706    0.420768
      3          6           0        0.518604   -0.818902    0.698580
      4          6           0       -0.234483    0.245072   -0.090196
      5          6           0       -0.043321    1.613680    0.474651
      6          6           0        1.039580    1.003280   -0.393272
      7          8           0       -1.276979   -0.032369   -0.996624
      8          6           0       -2.447464   -0.408290   -0.445770
      9          8           0       -2.670601   -0.535377    0.724452
     10          1           0        3.722293   -0.153323   -0.671026
     11          1           0        3.295209   -1.629480    0.210242
     12          1           0        2.450881   -1.217249   -1.291308
     13          1           0        2.303585    0.399295    1.322260
     14          1           0        0.523088   -1.785832    0.188644
     15          1           0        0.205121   -0.960017    1.735685
     16          1           0       -0.629782    2.385125   -0.013893
     17          1           0        0.107675    1.762414    1.541598
     18          1           0        1.363800    1.473616   -1.314020
     19          1           0       -3.170043   -0.589362   -1.256603
 ---------------------------------------------------------------------

 SCF Done:  E(RB3LYP) =  -423.183196821     A.U. after    1 cycles

 The electronic state is 1-A.
 Alpha  occ. eigenvalues --  -19.19340 -19.13474 -10.30925 -10.25053 -10.19781
 Alpha  occ. eigenvalues --  -10.19613 -10.19222 -10.18706 -10.17925  -1.10899
 Alpha  occ. eigenvalues --   -1.02539  -0.90305  -0.76600  -0.70061  -0.67619
 Alpha  occ. eigenvalues --   -0.61991  -0.57194  -0.53112  -0.52114  -0.48479
 Alpha  occ. eigenvalues --   -0.47858  -0.46008  -0.43875  -0.42353  -0.40176
 Alpha  occ. eigenvalues --   -0.39320  -0.38649  -0.36645  -0.33974  -0.32440
 Alpha  occ. eigenvalues --   -0.31873  -0.28860  -0.27658  -0.25940
 Alpha virt. eigenvalues --    0.00643   0.09591   0.10371   0.11237   0.11596
 Alpha virt. eigenvalues --    0.13273   0.14060   0.15028   0.16034   0.16356
 Alpha virt. eigenvalues --    0.17651   0.17770   0.18423   0.20360   0.21612

 Mulliken charges:
               1
     1  C   -0.409679
     2  C    0.038938
     3  C   -0.314554
     4  C    0.496617
     5  C   -0.335367
     6  C   -0.156159
     7  O   -0.254950
     8  C    0.148896
     9  O   -0.294753
    10  H    0.115949
    11  H    0.117725
    12  H    0.117999
    13  H    0.072416
    14  H    0.108596
    15  H    0.112112
    16  H    0.119265
    17  H    0.113166
    18  H    0.095682
    19  H    0.108101
 Sum of Mulliken charges =   0.00000

 Dipole moment (field-independent basis, Debye):
    X=              1.4886    Y=              0.4084    Z=             -1.1873  Tot=              1.9474
 Quadrupole moment (field-independent basis, Debye-Ang):
   XX=            -54.6559   YY=            -51.7800   ZZ=            -53.9884
   XY=             -1.2381   XZ=              5.1812   YZ=              0.7827

  Exact polarizability:  90.946   0.670  69.725  -0.574  -0.316  68.981
 Approx polarizability: 115.740   4.539 100.857  -4.935  -1.927 113.344

                      1                      2                      3
                      A                      A                      A
 Frequencies --     44.1331               109.5493               160.9562
 Red. masses --      6.5054                 3.1881                 5.0932
 Frc consts  --      0.0075                 0.0225                 0.0777
 IR Inten    --      1.0170                 0.4033                 4.8122

                      4                      5                      6
                      A                      A                      A
 Frequencies --    233.0276               254.6644               295.3428
 Red. masses --      1.8053                 1.2770                 2.3042
 Frc consts  --      0.0578                 0.0488                 0.1184
 IR Inten    --      5.3081                 2.7889                 0.4768

                      7                      8                      9
                      A                      A                      A
 Frequencies --    357.4439               392.7372               441.0907
 Red. masses --      3.0446                 2.0976                 2.8288
 Frc consts  --      0.2292                 0.1906                 0.3243
 IR Inten    --      3.9628                 0.4242                 1.4634

                     10                     11                     12
                      A                      A                      A
 Frequencies --    464.2742               582.5678               717.1916
 Red. masses --      3.2986                 3.7282                 2.5528
 Frc consts  --      0.4189                 0.7455                 0.7736
 IR Inten    --     12.3903                 1.7924                 0.3364

                     13                     14                     15
                      A                      A                      A
 Frequencies --    793.2935               803.6880               849.4451
 Red. masses --      4.8063                 2.2609                 2.2847
 Frc consts  --      1.7821                 0.8604                 0.9713
 IR Inten    --     13.6918                 2.6497                 1.9317

                     16                     17                     18
                      A                      A                      A
 Frequencies --    905.7124               942.3238               960.0608
 Red. masses --      1.5455                 2.0617                 1.3836
 Frc consts  --      0.7470                 1.0787                 0.7514
 IR Inten    --      2.5514                 9.8385                 3.4429

                     19                     20                     21
                      A                      A                      A
 Frequencies --    976.2029               991.9119              1015.0544
 Red. masses --      1.7782                 2.5988                 1.3076
 Frc consts  --      0.9984                 1.5065                 0.7938
 IR Inten    --      3.8164                 5.9479                 3.5443

                     22                     23                     24
                      A                      A                      A
 Frequencies --   1043.4650              1068.5139              1088.3493
 Red. masses --      1.6520                 1.4675                 1.6520
 Frc consts  --      1.0598                 0.9872                 1.1529
 IR Inten    --      0.7977                 4.0864                 0.6258

                     25                     26                     27
                      A                      A                      A
 Frequencies --   1106.4747              1147.4214              1178.7077
 Red. masses --      1.7792                 1.9281                 3.8133
 Frc consts  --      1.2834                 1.4956                 3.1215
 IR Inten    --      2.5491                 8.5760               178.8284

                     28                     29                     30
                      A                      A                      A
 Frequencies --   1195.3329              1224.1821              1244.5842
 Red. masses --      2.0814                 1.5385                 1.6953
 Frc consts  --      1.7522                 1.3584                 1.5472
 IR Inten    --    147.1568                16.0492                12.0252

                     31                     32                     33
                      A                      A                      A
 Frequencies --   1247.8653              1296.8352              1358.2468
 Red. masses --      1.7522                 2.3564                 1.6751
 Frc consts  --      1.6076                 2.3349                 1.8208
 IR Inten    --     53.7539                35.8963                21.4378

                     34                     35                     36
                      A                      A                      A
 Frequencies --   1374.6810              1410.4900              1412.7128
 Red. masses --      2.0306                 1.2470                 1.2290
 Frc consts  --      2.2609                 1.4616                 1.4451
 IR Inten    --     35.1454                 2.7185                 6.2682

                     37                     38                     39
                      A                      A                      A
 Frequencies --   1479.3535              1493.3784              1500.5035
 Red. masses --      1.1696                 1.0507                 1.1770
 Frc consts  --      1.5081                 1.3807                 1.5614
 IR Inten    --      6.3158                 1.8749                10.1377

                     40                     41                     42
                      A                      A                      A
 Frequencies --   1501.0763              1827.9001              3025.5975
 Red. masses --      1.1233                 9.6694                 1.0350
 Frc consts  --      1.4912                19.0351                 5.5825
 IR Inten    --      2.6502               247.5136                27.7360

                     43                     44                     45
                      A                      A                      A
 Frequencies --   3029.7221              3033.8333              3062.2695
 Red. masses --      1.0906                 1.0847                 1.0583
 Frc consts  --      5.8981                 5.8822                 5.8473
 IR Inten    --     81.0616                21.0450                24.0383

                     46                     47                     48
                      A                      A                      A
 Frequencies --   3093.6139              3097.9030              3107.7852
 Red. masses --      1.1013                 1.1015                 1.0573
 Frc consts  --      6.2102                 6.2281                 6.0165
 IR Inten    --     32.4165                26.6849                13.5489

                     49                     50                     51
                      A                      A                      A
 Frequencies --   3117.3550              3185.3303              3205.9632
 Red. masses --      1.1082                 1.0947                 1.1118
 Frc consts  --      6.3449                 6.5440                 6.7330
 IR Inten    --     21.9017                 8.2569                 8.6685

 - Thermochemistry -
 -------------------
 Temperature   298.150 Kelvin.  Pressure   1.00000 Atm.
 Atom     1 has atomic number  6 and mass  12.00000

 Molecular mass:   126.06808 amu.
 Principal axes and moments of inertia in atomic units:
                           1         2         3
     Eigenvalues --   499.570051685.579501801.66396
           X            0.99980  -0.01978   0.00180
           Y            0.01969   0.99899   0.04047
           Z           -0.00260  -0.04043   0.99918
 This molecule is an asymmetric top.
 Rotational symmetry number  1.
 Warning -- assumption of classical behavior for rotation
           may cause significant error
 Rotational temperatures (Kelvin)      0.17338     0.05139     0.04807
 Rotational constants (GHZ):           3.61259     1.07069     1.00171
 Zero-point vibrational energy     415404.0 (Joules/Mol)
                                   99.28393 (Kcal/Mol)
 Warning -- explicit consideration of  11 degrees of freedom as
           vibrations may cause significant error
 Vibrational temperatures:     63.50   157.62   231.58   335.27   366.40
          (Kelvin)            424.93   514.28   565.06   634.63   667.99
                              838.18  1031.88  1141.37  1156.33  1222.16
                             1303.12  1355.79  1381.31  1404.54  1427.14
                             1460.44  1501.31  1537.35  1565.89  1591.97
                             1650.88  1695.90  1719.82  1761.32  1790.68
                             1795.40  1865.85  1954.21  1977.86  2029.38
                             2032.58  2128.46  2148.64  2158.89  2159.71
                             2629.94  4353.15  4359.09  4365.00  4405.92
                             4451.01  4457.19  4471.40  4485.17  4582.97
                             4612.66

 Zero-point correction=                           0.158219 (Hartree/Particle)
 Thermal correction to Energy=                    0.166876
 Thermal correction to Enthalpy=                  0.167820
 Thermal correction to Gibbs Free Energy=         0.124358
 Sum of electronic and zero-point Energies=           -423.024978
 Sum of electronic and thermal Energies=              -423.016321
 Sum of electronic and thermal Enthalpies=            -423.015377
 Sum of electronic and thermal Free Energies=         -423.058839

                     E (Thermal)             CV                S
                      KCal/Mol        Cal/Mol-Kelvin    Cal/Mol-Kelvin
 Total                  104.716             32.350             91.474
 Electronic               0.000              0.000              0.000
 Translational            0.889              2.981             40.409
 Rotational               0.889              2.981             28.808
 Vibrational            102.939             26.388             22.258
 Vibration     1          0.595              1.980              5.064
 Vibration     2          0.606              1.942              3.277
 Vibration     3          0.622              1.890              2.539
 Vibration     4          0.654              1.790              1.856
 Vibration     5          0.665              1.755              1.698
 Vibration     6          0.690              1.682              1.443
 Vibration     7          0.733              1.560              1.133
 Vibration     8          0.760              1.486              0.990
 Vibration     9          0.801              1.381              0.823
 Vibration    10          0.822              1.329              0.754
 Vibration    11          0.939              1.069              0.481

 Optimization completed.
    -- Stationary point found.
 Normal termination of Gaussian 09 at Tue Jan 28 04:44:31 2020.
