 Gaussian 09, Revision D.01,
 Gaussian 09:  ES64L-G09RevD.01 24-Apr-2013

 -----------------------------
 # b3lyp 6-31G(2df,p) opt Freq
 -----------------------------

 -----
 titel
 -----
 Symbolic Z-matrix:
 Charge =  0 Multiplicity = 1

 SCF Done:  E(RB3LYP) =  -423.173231267     A.U. after   14 cycles
 Optimization completed.
    -- Stationary point found.
 Normal termination of Gaussian 09 at Tue Jan 28 00:03:06 2020.

 ----------------------------------------------------------------------
 #N Geom=AllCheck Guess=TCheck SCRF=Check GenChk RB3LYP/6-31G(2df,p) Fr
 eq
 ----------------------------------------------------------------------

 Structure from the checkpoint file:  "/scratch/puck/g09_af14128e-429b-4a84-9356-598a1db7d36d/Gau-32322.chk"
 -----
 titel
 -----
 Charge =  0 Multiplicity = 1

                         Standard orientation:
 ---------------------------------------------------------------------
 Center     Atomic      Atomic             Coordinates (Angstroms)
 Number     Number       Type             X           Y           Z
 ---------------------------------------------------------------------
      1          6           0       -0.707198   -1.779672   -1.054461
      2          6           0       -0.288152   -0.576056   -0.227431
      3          6           0       -0.961023   -0.470674    1.166143
      4          8           0       -1.704059    0.708066    0.790728
      5          6           0       -1.004288    0.776944   -0.479494
      6          6           0        0.098750    1.800037   -0.494159
      7          6           0        1.299475    1.230279   -0.387597
      8          6           0        1.237910   -0.278193   -0.278819
      9          8           0        1.999696   -0.806812    0.799796
     10          1           0       -0.406090   -1.661830   -2.101613
     11          1           0       -0.234699   -2.691812   -0.672671
     12          1           0       -1.792121   -1.924750   -1.030287
     13          1           0       -1.624975   -1.302501    1.428015
     14          1           0       -0.289585   -0.284101    2.014645
     15          1           0       -1.709731    0.858820   -1.314538
     16          1           0       -0.093764    2.864895   -0.566024
     17          1           0        2.251041    1.752063   -0.365561
     18          1           0        1.676441   -0.756051   -1.164408
     19          1           0        1.805543   -0.280749    1.583149
 ---------------------------------------------------------------------

 SCF Done:  E(RB3LYP) =  -423.173231267     A.U. after    1 cycles

 The electronic state is 1-A.
 Alpha  occ. eigenvalues --  -19.14085 -19.13120 -10.23730 -10.23405 -10.22965
 Alpha  occ. eigenvalues --  -10.19617 -10.19107 -10.19014 -10.18147  -1.03782
 Alpha  occ. eigenvalues --   -1.02071  -0.83257  -0.76618  -0.69577  -0.66735
 Alpha  occ. eigenvalues --   -0.65778  -0.56761  -0.53602  -0.51392  -0.48325
 Alpha  occ. eigenvalues --   -0.47194  -0.44416  -0.43447  -0.42575  -0.40091
 Alpha  occ. eigenvalues --   -0.39514  -0.38791  -0.36053  -0.33734  -0.31165
 Alpha  occ. eigenvalues --   -0.30307  -0.27949  -0.25697  -0.24857
 Alpha virt. eigenvalues --   -0.00388   0.07742   0.09113   0.10281   0.12404
 Alpha virt. eigenvalues --    0.12795   0.14122   0.15330   0.15746   0.16706
 Alpha virt. eigenvalues --    0.16874   0.17526   0.20098   0.21098   0.22497

 Mulliken charges:
               1
     1  C   -0.495291
     2  C    0.263596
     3  C   -0.117760
     4  O   -0.296712
     5  C    0.053502
     6  C   -0.089736
     7  C   -0.126984
     8  C    0.022492
     9  O   -0.430458
    10  H    0.118414
    11  H    0.129374
    12  H    0.121322
    13  H    0.105336
    14  H    0.079926
    15  H    0.077837
    16  H    0.107420
    17  H    0.106500
    18  H    0.091258
    19  H    0.279963
 Sum of Mulliken charges =   0.00000

 Dipole moment (field-independent basis, Debye):
    X=              0.3428    Y=              0.2303    Z=             -0.7305  Tot=              0.8391
 Quadrupole moment (field-independent basis, Debye-Ang):
   XX=            -58.2259   YY=            -52.7083   ZZ=            -50.9870
   XY=              4.9608   XZ=              2.0864   YZ=             -0.7818

  Exact polarizability:  80.428   0.107  78.216   1.077  -2.576  66.758
 Approx polarizability: 126.582 -10.643 111.023   1.669  -4.944 101.236

                      1                      2                      3
                      A                      A                      A
 Frequencies --     61.4680               192.0125               241.1742
 Red. masses --      3.7321                 3.1791                 1.1934
 Frc consts  --      0.0083                 0.0691                 0.0409
 IR Inten    --      2.9292                 3.4358                 0.2258

                      4                      5                      6
                      A                      A                      A
 Frequencies --    260.0069               273.4462               306.9317
 Red. masses --      3.3625                 2.4306                 1.1691
 Frc consts  --      0.1339                 0.1071                 0.0649
 IR Inten    --      3.6153                 6.1355                61.9251

                      7                      8                      9
                      A                      A                      A
 Frequencies --    313.4287               383.5462               501.2264
 Red. masses --      2.3690                 2.6810                 3.0473
 Frc consts  --      0.1371                 0.2324                 0.4511
 IR Inten    --      9.0172                25.9181                 1.6883

                     10                     11                     12
                      A                      A                      A
 Frequencies --    555.5749               594.7595               668.5617
 Red. masses --      4.0869                 3.3510                 5.1861
 Frc consts  --      0.7432                 0.6984                 1.3658
 IR Inten    --      1.6174                 0.5726                 4.5901

                     13                     14                     15
                      A                      A                      A
 Frequencies --    771.5629               800.9646               861.1977
 Red. masses --      2.2577                 2.3882                 2.7557
 Frc consts  --      0.7919                 0.9027                 1.2042
 IR Inten    --      7.9628                13.9780                11.4078

                     16                     17                     18
                      A                      A                      A
 Frequencies --    894.0045               933.5924               954.7614
 Red. masses --      2.1125                 1.9785                 1.7314
 Frc consts  --      0.9948                 1.0160                 0.9299
 IR Inten    --      3.1459                28.6099                 3.2264

                     19                     20                     21
                      A                      A                      A
 Frequencies --    980.0586               988.4306              1009.1630
 Red. masses --      1.9973                 1.5728                 4.5277
 Frc consts  --      1.1303                 0.9054                 2.7167
 IR Inten    --     26.1747                 4.6382                63.1658

                     22                     23                     24
                      A                      A                      A
 Frequencies --   1022.5892              1027.7209              1067.4367
 Red. masses --      3.2530                 2.0721                 1.9027
 Frc consts  --      2.0042                 1.2895                 1.2773
 IR Inten    --     47.4111                 2.6503                34.2568

                     25                     26                     27
                      A                      A                      A
 Frequencies --   1122.3037              1147.9884              1176.2556
 Red. masses --      1.8252                 1.2220                 2.2234
 Frc consts  --      1.3545                 0.9489                 1.8124
 IR Inten    --     58.0191                 0.7781                 2.9919

                     28                     29                     30
                      A                      A                      A
 Frequencies --   1192.5604              1242.8899              1251.6070
 Red. masses --      1.9027                 2.7165                 1.3502
 Frc consts  --      1.5944                 2.4724                 1.2462
 IR Inten    --      2.3197                 0.4523                 3.7095

                     31                     32                     33
                      A                      A                      A
 Frequencies --   1275.3125              1298.5681              1335.5012
 Red. masses --      1.5785                 1.2867                 1.4294
 Frc consts  --      1.5126                 1.2784                 1.5021
 IR Inten    --      7.0382                 7.1907                 3.7557

                     34                     35                     36
                      A                      A                      A
 Frequencies --   1365.5434              1377.7221              1410.0679
 Red. masses --      1.7451                 1.9661                 1.2499
 Frc consts  --      1.9173                 2.1988                 1.4642
 IR Inten    --      9.7587                 7.3223                 6.7202

                     37                     38                     39
                      A                      A                      A
 Frequencies --   1427.6417              1494.8520              1496.2151
 Red. masses --      1.2014                 1.0536                 1.0504
 Frc consts  --      1.4427                 1.3872                 1.3854
 IR Inten    --     55.2584                 5.8404                 6.1356

                     40                     41                     42
                      A                      A                      A
 Frequencies --   1518.4397              1675.0923              3005.6841
 Red. masses --      1.1006                 6.5571                 1.0596
 Frc consts  --      1.4951                10.8402                 5.6398
 IR Inten    --      0.6585                 0.1600                76.3516

                     43                     44                     45
                      A                      A                      A
 Frequencies --   3021.5533              3025.5643              3040.3995
 Red. masses --      1.0672                 1.0516                 1.0855
 Frc consts  --      5.7408                 5.6720                 5.9123
 IR Inten    --     10.5596                35.4196                37.4625

                     46                     47                     48
                      A                      A                      A
 Frequencies --   3055.6849              3091.4458              3099.2387
 Red. masses --      1.1046                 1.1010                 1.1017
 Frc consts  --      6.0766                 6.1993                 6.2347
 IR Inten    --     47.1809                22.1432                22.1968

                     49                     50                     51
                      A                      A                      A
 Frequencies --   3178.9377              3205.0072              3801.8667
 Red. masses --      1.0851                 1.1038                 1.0660
 Frc consts  --      6.4609                 6.6801                 9.0779
 IR Inten    --      6.9094                17.4308                12.0034

 - Thermochemistry -
 -------------------
 Temperature   298.150 Kelvin.  Pressure   1.00000 Atm.
 Atom     1 has atomic number  6 and mass  12.00000

 Molecular mass:   126.06808 amu.
 Principal axes and moments of inertia in atomic units:
                           1         2         3
     Eigenvalues --   830.10828 992.762011272.79967
           X            0.98665   0.16158   0.02053
           Y           -0.16209   0.98643   0.02628
           Z           -0.01600  -0.02926   0.99944
 This molecule is an asymmetric top.
 Rotational symmetry number  1.
 Warning -- assumption of classical behavior for rotation
           may cause significant error
 Rotational temperatures (Kelvin)      0.10434     0.08725     0.06805
 Rotational constants (GHZ):           2.17410     1.81790     1.41793
 Zero-point vibrational energy     418678.4 (Joules/Mol)
                                  100.06654 (Kcal/Mol)
 Warning -- explicit consideration of  11 degrees of freedom as
           vibrations may cause significant error
 Vibrational temperatures:     88.44   276.26   347.00   374.09   393.43
          (Kelvin)            441.61   450.95   551.84   721.15   799.35
                              855.73   961.91  1110.11  1152.41  1239.07
                             1286.27  1343.23  1373.69  1410.08  1422.13
                             1451.96  1471.28  1478.66  1535.80  1614.74
                             1651.70  1692.37  1715.83  1788.24  1800.78
                             1834.89  1868.35  1921.49  1964.71  1982.23
                             2028.77  2054.06  2150.76  2152.72  2184.69
                             2410.08  4324.50  4347.34  4353.11  4374.45
                             4396.44  4447.90  4459.11  4573.78  4611.28
                             5470.03

 Zero-point correction=                           0.159466 (Hartree/Particle)
 Thermal correction to Energy=                    0.167719
 Thermal correction to Enthalpy=                  0.168663
 Thermal correction to Gibbs Free Energy=         0.126754
 Sum of electronic and zero-point Energies=           -423.013765
 Sum of electronic and thermal Energies=              -423.005512
 Sum of electronic and thermal Enthalpies=            -423.004568
 Sum of electronic and thermal Free Energies=         -423.046478

                     E (Thermal)             CV                S
                      KCal/Mol        Cal/Mol-Kelvin    Cal/Mol-Kelvin
 Total                  105.245             32.038             88.206
 Electronic               0.000              0.000              0.000
 Translational            0.889              2.981             40.409
 Rotational               0.889              2.981             28.441
 Vibrational            103.468             26.077             19.357
 Vibration     1          0.597              1.973              4.410
 Vibration     2          0.634              1.851              2.208
 Vibration     3          0.658              1.777              1.794
 Vibration     4          0.668              1.746              1.662
 Vibration     5          0.676              1.722              1.574
 Vibration     6          0.697              1.661              1.379
 Vibration     7          0.701              1.648              1.344
 Vibration     8          0.753              1.505              1.025
 Vibration     9          0.857              1.247              0.655
 Vibration    10          0.911              1.128              0.533
 Vibration    11          0.952              1.043              0.459

 Optimization completed.
    -- Stationary point found.
 Normal termination of Gaussian 09 at Tue Jan 28 00:52:42 2020.
