 Gaussian 09, Revision D.01,
 Gaussian 09:  ES64L-G09RevD.01 24-Apr-2013

 -----------------------------
 # b3lyp 6-31G(2df,p) opt Freq
 -----------------------------

 -----
 titel
 -----
 Symbolic Z-matrix:
 Charge =  0 Multiplicity = 1

 SCF Done:  E(RB3LYP) =  -423.220206677     A.U. after   14 cycles
 Optimization completed.
    -- Stationary point found.
 Normal termination of Gaussian 09 at Tue Jan 28 00:01:10 2020.

 ----------------------------------------------------------------------
 #N Geom=AllCheck Guess=TCheck SCRF=Check GenChk RB3LYP/6-31G(2df,p) Fr
 eq
 ----------------------------------------------------------------------

 Structure from the checkpoint file:  "/scratch/puck/g09_a65c1c8d-77d5-4296-b43d-3028055328e9/Gau-104928.chk"
 -----
 titel
 -----
 Charge =  0 Multiplicity = 1

                         Standard orientation:
 ---------------------------------------------------------------------
 Center     Atomic      Atomic             Coordinates (Angstroms)
 Number     Number       Type             X           Y           Z
 ---------------------------------------------------------------------
      1          6           0       -1.369851    1.836204   -0.400437
      2          6           0       -0.719106    0.733247    0.442184
      3          6           0       -1.074509   -0.705588    0.088875
      4          6           0       -2.494029   -1.132046   -0.112509
      5          6           0        0.009606   -1.487673    0.016153
      6          6           0        1.281338   -0.760439    0.356393
      7          8           0        2.357121   -0.994988   -0.523623
      8          6           0        0.804470    0.698492    0.297225
      9          8           0        1.534317    1.622556    0.039971
     10          1           0       -0.914431    2.800848   -0.163354
     11          1           0       -1.222247    1.649861   -1.468728
     12          1           0       -2.443951    1.902155   -0.207325
     13          1           0       -0.949568    0.924351    1.503273
     14          1           0       -3.094819   -0.947306    0.787477
     15          1           0       -2.968544   -0.569029   -0.924812
     16          1           0       -2.558417   -2.196540   -0.352522
     17          1           0       -0.002845   -2.547885   -0.209951
     18          1           0        1.587446   -0.985961    1.396662
     19          1           0        2.808356   -0.144227   -0.618812
 ---------------------------------------------------------------------

 SCF Done:  E(RB3LYP) =  -423.220206677     A.U. after    1 cycles

 The electronic state is 1-A.
 Alpha  occ. eigenvalues --  -19.14854 -19.13349 -10.27387 -10.23872 -10.20698
 Alpha  occ. eigenvalues --  -10.20324 -10.19245 -10.18569 -10.18553  -1.06091
 Alpha  occ. eigenvalues --   -1.01458  -0.85688  -0.75664  -0.74505  -0.65490
 Alpha  occ. eigenvalues --   -0.64977  -0.55299  -0.53675  -0.50195  -0.48105
 Alpha  occ. eigenvalues --   -0.46382  -0.44858  -0.43280  -0.41953  -0.40279
 Alpha  occ. eigenvalues --   -0.40020  -0.38405  -0.37621  -0.36611  -0.34914
 Alpha  occ. eigenvalues --   -0.34037  -0.27563  -0.25577  -0.24700
 Alpha virt. eigenvalues --   -0.02585   0.00872   0.08663   0.11205   0.12252
 Alpha virt. eigenvalues --    0.13137   0.13655   0.14913   0.15653   0.16356
 Alpha virt. eigenvalues --    0.17127   0.18076   0.19742   0.22041   0.22830

 Mulliken charges:
               1
     1  C   -0.399547
     2  C   -0.202525
     3  C    0.315510
     4  C   -0.492130
     5  C   -0.205235
     6  C    0.020454
     7  O   -0.442175
     8  C    0.355166
     9  O   -0.324741
    10  H    0.140113
    11  H    0.126936
    12  H    0.117973
    13  H    0.109757
    14  H    0.128444
    15  H    0.135510
    16  H    0.129590
    17  H    0.103911
    18  H    0.090869
    19  H    0.292121
 Sum of Mulliken charges =   0.00000

 Dipole moment (field-independent basis, Debye):
    X=             -2.6482    Y=             -0.3464    Z=              1.0316  Tot=              2.8631
 Quadrupole moment (field-independent basis, Debye-Ang):
   XX=            -53.7488   YY=            -56.3489   ZZ=            -52.4151
   XY=              0.2755   XZ=              1.0731   YZ=             -0.6990

  Exact polarizability:  94.392  -2.519  82.224  -0.515   0.168  56.851
 Approx polarizability: 133.860  -5.636 122.355  -4.651   0.925  89.996

                      1                      2                      3
                      A                      A                      A
 Frequencies --     56.6418               143.0870               185.8988
 Red. masses --      5.3091                 2.6357                 1.1401
 Frc consts  --      0.0100                 0.0318                 0.0232
 IR Inten    --      1.0442                 1.7657                 1.8394

                      4                      5                      6
                      A                      A                      A
 Frequencies --    199.5190               210.3864               236.8456
 Red. masses --      1.3759                 2.0168                 2.2884
 Frc consts  --      0.0323                 0.0526                 0.0756
 IR Inten    --      1.4579                 6.6784                 1.0679

                      7                      8                      9
                      A                      A                      A
 Frequencies --    294.5425               313.8223               351.2032
 Red. masses --      4.9046                 2.7501                 1.2139
 Frc consts  --      0.2507                 0.1596                 0.0882
 IR Inten    --     19.4097                 0.7502                79.9994

                     10                     11                     12
                      A                      A                      A
 Frequencies --    420.7141               495.4481               555.8721
 Red. masses --      3.6697                 4.8643                 3.6396
 Frc consts  --      0.3827                 0.7035                 0.6626
 IR Inten    --      0.8319                 2.1383                 8.8984

                     13                     14                     15
                      A                      A                      A
 Frequencies --    579.1067               627.3163               704.0765
 Red. masses --      3.2596                 3.2691                 4.0650
 Frc consts  --      0.6441                 0.7580                 1.1873
 IR Inten    --      1.5813                 2.1693                 3.3208

                     16                     17                     18
                      A                      A                      A
 Frequencies --    787.6888               826.4897               883.0858
 Red. masses --      2.2461                 2.1662                 1.7127
 Frc consts  --      0.8211                 0.8718                 0.7869
 IR Inten    --      2.1091                 2.0917                 7.2465

                     19                     20                     21
                      A                      A                      A
 Frequencies --    988.2714              1002.1760              1027.2076
 Red. masses --      4.3797                 1.5996                 1.5192
 Frc consts  --      2.5203                 0.9466                 0.9444
 IR Inten    --     39.0057                17.1181                 8.5596

                     22                     23                     24
                      A                      A                      A
 Frequencies --   1038.3458              1055.3875              1093.0585
 Red. masses --      1.9671                 1.6365                 1.6724
 Frc consts  --      1.2496                 1.0740                 1.1773
 IR Inten    --      0.4577                 4.2688                17.5338

                     25                     26                     27
                      A                      A                      A
 Frequencies --   1117.3843              1157.7381              1178.7797
 Red. masses --      2.4582                 2.4986                 1.7018
 Frc consts  --      1.8083                 1.9732                 1.3932
 IR Inten    --     40.9795                16.1116                81.8407

                     28                     29                     30
                      A                      A                      A
 Frequencies --   1232.6802              1268.6573              1304.3810
 Red. masses --      1.4505                 1.8556                 1.5445
 Frc consts  --      1.2986                 1.7596                 1.5483
 IR Inten    --     11.4344                12.2698                 4.4427

                     31                     32                     33
                      A                      A                      A
 Frequencies --   1333.6164              1351.1593              1402.5136
 Red. masses --      1.7215                 1.7315                 1.2839
 Frc consts  --      1.8040                 1.8624                 1.4880
 IR Inten    --      9.1018                22.2468                10.1920

                     34                     35                     36
                      A                      A                      A
 Frequencies --   1408.9719              1417.1052              1477.2032
 Red. masses --      1.3662                 1.4066                 1.0453
 Frc consts  --      1.5980                 1.6642                 1.3439
 IR Inten    --     12.5423                10.6602                 8.2103

                     37                     38                     39
                      A                      A                      A
 Frequencies --   1483.7909              1495.7646              1500.1661
 Red. masses --      1.0582                 1.0498                 1.0509
 Frc consts  --      1.3727                 1.3839                 1.3934
 IR Inten    --     10.9585                 1.5922                 3.4277

                     40                     41                     42
                      A                      A                      A
 Frequencies --   1703.9605              1842.1092              2907.6657
 Red. masses --      7.3897                12.7341                 1.0779
 Frc consts  --     12.6414                25.4596                 5.3693
 IR Inten    --     13.9106               168.3746                44.0671

                     43                     44                     45
                      A                      A                      A
 Frequencies --   2973.9947              3020.7374              3044.9415
 Red. masses --      1.0796                 1.0390                 1.0352
 Frc consts  --      5.6262                 5.5857                 5.6548
 IR Inten    --     13.5861                21.4579                18.6269

                     46                     47                     48
                      A                      A                      A
 Frequencies --   3070.8270              3114.4790              3116.0254
 Red. masses --      1.0966                 1.1004                 1.1014
 Frc consts  --      6.0926                 6.2887                 6.3009
 IR Inten    --     16.2318                12.8869                24.7844

                     49                     50                     51
                      A                      A                      A
 Frequencies --   3127.7830              3198.5964              3741.2364
 Red. masses --      1.1017                 1.0939                 1.0654
 Frc consts  --      6.3500                 6.5939                 8.7861
 IR Inten    --     10.4811                 8.3497                34.7977

 - Thermochemistry -
 -------------------
 Temperature   298.150 Kelvin.  Pressure   1.00000 Atm.
 Atom     1 has atomic number  6 and mass  12.00000

 Molecular mass:   126.06808 amu.
 Principal axes and moments of inertia in atomic units:
                           1         2         3
     Eigenvalues --   765.452471197.783271820.42342
           X            0.99985  -0.01463   0.00923
           Y            0.01474   0.99982  -0.01193
           Z           -0.00906   0.01207   0.99989
 This molecule is an asymmetric top.
 Rotational symmetry number  1.
 Warning -- assumption of classical behavior for rotation
           may cause significant error
 Rotational temperatures (Kelvin)      0.11315     0.07231     0.04758
 Rotational constants (GHZ):           2.35774     1.50673     0.99139
 Zero-point vibrational energy     413121.1 (Joules/Mol)
                                   98.73832 (Kcal/Mol)
 Warning -- explicit consideration of  13 degrees of freedom as
           vibrations may cause significant error
 Vibrational temperatures:     81.49   205.87   267.47   287.06   302.70
          (Kelvin)            340.77   423.78   451.52   505.30   605.31
                              712.84   799.77   833.20   902.57  1013.01
                             1133.31  1189.13  1270.56  1421.90  1441.91
                             1477.92  1493.95  1518.47  1572.67  1607.66
                             1665.72  1696.00  1773.55  1825.31  1876.71
                             1918.77  1944.01  2017.90  2027.19  2038.90
                             2125.36  2134.84  2152.07  2158.40  2451.62
                             2650.38  4183.48  4278.91  4346.16  4380.99
                             4418.23  4481.04  4483.26  4500.18  4602.06
                             5382.80

 Zero-point correction=                           0.157350 (Hartree/Particle)
 Thermal correction to Energy=                    0.166745
 Thermal correction to Enthalpy=                  0.167689
 Thermal correction to Gibbs Free Energy=         0.123216
 Sum of electronic and zero-point Energies=           -423.062857
 Sum of electronic and thermal Energies=              -423.053462
 Sum of electronic and thermal Enthalpies=            -423.052518
 Sum of electronic and thermal Free Energies=         -423.096990

                     E (Thermal)             CV                S
                      KCal/Mol        Cal/Mol-Kelvin    Cal/Mol-Kelvin
 Total                  104.634             34.752             93.601
 Electronic               0.000              0.000              0.000
 Translational            0.889              2.981             40.409
 Rotational               0.889              2.981             28.903
 Vibrational            102.856             28.791             24.289
 Vibration     1          0.596              1.975              4.571
 Vibration     2          0.616              1.910              2.762
 Vibration     3          0.632              1.859              2.268
 Vibration     4          0.638              1.841              2.138
 Vibration     5          0.643              1.825              2.040
 Vibration     6          0.656              1.784              1.826
 Vibration     7          0.689              1.684              1.448
 Vibration     8          0.702              1.647              1.342
 Vibration     9          0.728              1.573              1.161
 Vibration    10          0.783              1.425              0.890
 Vibration    11          0.851              1.260              0.670
 Vibration    12          0.911              1.127              0.532
 Vibration    13          0.936              1.076              0.487

 Optimization completed.
    -- Stationary point found.
 Normal termination of Gaussian 09 at Tue Jan 28 00:41:16 2020.
