 Gaussian 09, Revision D.01,
 Gaussian 09:  ES64L-G09RevD.01 24-Apr-2013

 -----------------------------
 # b3lyp 6-31G(2df,p) opt Freq
 -----------------------------

 -----
 titel
 -----
 Symbolic Z-matrix:
 Charge =  0 Multiplicity = 1

 SCF Done:  E(RB3LYP) =  -423.230172718     A.U. after   14 cycles
 Optimization completed.
    -- Stationary point found.
 Normal termination of Gaussian 09 at Mon Jan 27 13:08:25 2020.

 ----------------------------------------------------------------------
 #N Geom=AllCheck Guess=TCheck SCRF=Check GenChk RB3LYP/6-31G(2df,p) Fr
 eq
 ----------------------------------------------------------------------

 Structure from the checkpoint file:  "/scratch/puck/g09_e9967eb7-0c82-4792-93c7-b21ae0b0ff44/Gau-27363.chk"
 -----
 titel
 -----
 Charge =  0 Multiplicity = 1

                         Standard orientation:
 ---------------------------------------------------------------------
 Center     Atomic      Atomic             Coordinates (Angstroms)
 Number     Number       Type             X           Y           Z
 ---------------------------------------------------------------------
      1          8           0       -2.550122   -0.352946    0.107779
      2          6           0       -1.374728   -0.110720   -0.031775
      3          6           0       -0.863989    1.228477   -0.564075
      4          6           0        0.444249    1.712431    0.104537
      5          6           0        1.370249    0.528530    0.417767
      6          6           0        0.659696   -0.465551    1.341437
      7          6           0       -0.281598   -1.121929    0.306183
      8          6           0        0.704599   -1.304410   -0.864269
      9          8           0        1.634070   -0.220041   -0.779010
     10          1           0       -0.667631    1.073104   -1.633299
     11          1           0       -1.668924    1.962707   -0.491345
     12          1           0        0.955789    2.420448   -0.554303
     13          1           0        0.224105    2.243288    1.038771
     14          1           0        2.330811    0.876126    0.808550
     15          1           0        1.356497   -1.202682    1.751655
     16          1           0        0.132859    0.014003    2.170328
     17          1           0       -0.742685   -2.055029    0.631672
     18          1           0        1.239231   -2.258880   -0.764492
     19          1           0        0.217492   -1.290151   -1.846516
 ---------------------------------------------------------------------

 SCF Done:  E(RB3LYP) =  -423.230172718     A.U. after    1 cycles

 The electronic state is 1-A.
 Alpha  occ. eigenvalues --  -19.14148 -19.12745 -10.26654 -10.23973 -10.23760
 Alpha  occ. eigenvalues --  -10.20003 -10.19826 -10.19269 -10.19250  -1.04236
 Alpha  occ. eigenvalues --   -1.03514  -0.82515  -0.78051  -0.74355  -0.65712
 Alpha  occ. eigenvalues --   -0.62514  -0.57552  -0.54309  -0.51377  -0.48481
 Alpha  occ. eigenvalues --   -0.45290  -0.44316  -0.42943  -0.42324  -0.41792
 Alpha  occ. eigenvalues --   -0.40188  -0.39391  -0.36065  -0.34636  -0.34196
 Alpha  occ. eigenvalues --   -0.33915  -0.31621  -0.25589  -0.23820
 Alpha virt. eigenvalues --   -0.01325   0.07555   0.10331   0.10648   0.12704
 Alpha virt. eigenvalues --    0.13687   0.14414   0.15118   0.15905   0.16182
 Alpha virt. eigenvalues --    0.17339   0.18474   0.19715   0.21160   0.22492

 Mulliken charges:
               1
     1  O   -0.325422
     2  C    0.400067
     3  C   -0.302287
     4  C   -0.222423
     5  C    0.112264
     6  C   -0.245872
     7  C   -0.128683
     8  C   -0.096874
     9  O   -0.275909
    10  H    0.138407
    11  H    0.121647
    12  H    0.110645
    13  H    0.103943
    14  H    0.081112
    15  H    0.110987
    16  H    0.113402
    17  H    0.089640
    18  H    0.105448
    19  H    0.109910
 Sum of Mulliken charges =   0.00000

 Dipole moment (field-independent basis, Debye):
    X=              1.8403    Y=              0.3840    Z=              0.7073  Tot=              2.0086
 Quadrupole moment (field-independent basis, Debye-Ang):
   XX=            -64.6428   YY=            -49.3451   ZZ=            -51.4114
   XY=             -1.6034   XZ=              3.3628   YZ=              0.4261

  Exact polarizability:  78.309   0.603  77.015   1.813   0.264  66.435
 Approx polarizability: 120.033   3.923 106.880  -1.407   0.992 101.476

                      1                      2                      3
                      A                      A                      A
 Frequencies --    103.5506               167.3955               238.9596
 Red. masses --      5.0249                 2.7801                 2.2753
 Frc consts  --      0.0317                 0.0459                 0.0765
 IR Inten    --      5.0931                 4.8430                 0.3905

                      4                      5                      6
                      A                      A                      A
 Frequencies --    343.1239               387.7808               417.7175
 Red. masses --      2.8351                 2.0076                 4.5392
 Frc consts  --      0.1967                 0.1779                 0.4666
 IR Inten    --      1.9559                 1.6124                 6.1107

                      7                      8                      9
                      A                      A                      A
 Frequencies --    466.3464               538.7625               630.2658
 Red. masses --      4.1845                 2.7137                 3.3309
 Frc consts  --      0.5362                 0.4641                 0.7796
 IR Inten    --      7.8267                 0.6464                 1.7510

                     10                     11                     12
                      A                      A                      A
 Frequencies --    696.7579               744.5810               802.3700
 Red. masses --      3.4784                 3.5683                 2.7274
 Frc consts  --      0.9949                 1.1656                 1.0345
 IR Inten    --      0.9679                 7.3713                 1.6450

                     13                     14                     15
                      A                      A                      A
 Frequencies --    836.4264               889.3557               889.7335
 Red. masses --      2.3066                 2.8708                 2.7482
 Frc consts  --      0.9508                 1.3378                 1.2818
 IR Inten    --      1.1725                14.1666                 7.6042

                     16                     17                     18
                      A                      A                      A
 Frequencies --    937.0772               942.2092               949.5918
 Red. masses --      1.9862                 2.7524                 1.9188
 Frc consts  --      1.0276                 1.4397                 1.0194
 IR Inten    --     16.3147                 4.3359                 4.5283

                     19                     20                     21
                      A                      A                      A
 Frequencies --   1003.3776              1036.0726              1045.9978
 Red. masses --      2.1319                 1.7276                 2.3763
 Frc consts  --      1.2646                 1.0926                 1.5319
 IR Inten    --      5.3402                21.5665                 4.4835

                     22                     23                     24
                      A                      A                      A
 Frequencies --   1075.6260              1098.1976              1112.9934
 Red. masses --      1.9814                 2.6513                 1.4037
 Frc consts  --      1.3507                 1.8839                 1.0245
 IR Inten    --     13.5310                72.9806                11.0375

                     25                     26                     27
                      A                      A                      A
 Frequencies --   1170.8979              1188.4601              1226.8881
 Red. masses --      1.2793                 1.4511                 1.3082
 Frc consts  --      1.0334                 1.2075                 1.1602
 IR Inten    --      8.3623                11.5368                 0.8729

                     28                     29                     30
                      A                      A                      A
 Frequencies --   1240.7751              1250.8932              1303.5986
 Red. masses --      1.6407                 1.4365                 1.3249
 Frc consts  --      1.4882                 1.3243                 1.3265
 IR Inten    --     32.1068                 4.6796                 1.8052

                     31                     32                     33
                      A                      A                      A
 Frequencies --   1312.7882              1323.2095              1339.1042
 Red. masses --      1.6428                 1.3847                 1.8352
 Frc consts  --      1.6681                 1.4284                 1.9389
 IR Inten    --      1.1113                 6.9025                 1.5916

                     34                     35                     36
                      A                      A                      A
 Frequencies --   1360.7415              1374.7279              1391.6613
 Red. masses --      1.4757                 1.4171                 1.3715
 Frc consts  --      1.6099                 1.5779                 1.5650
 IR Inten    --      4.9803                 4.5570                 5.8469

                     37                     38                     39
                      A                      A                      A
 Frequencies --   1458.6023              1484.7637              1498.9227
 Red. masses --      1.0794                 1.0981                 1.0940
 Frc consts  --      1.3530                 1.4263                 1.4482
 IR Inten    --      7.0321                 7.0335                 4.0571

                     40                     41                     42
                      A                      A                      A
 Frequencies --   1529.2889              1819.4506              3007.4204
 Red. masses --      1.0889                11.5642                 1.0619
 Frc consts  --      1.5005                22.5553                 5.6590
 IR Inten    --      0.1901               202.3140                65.9083

                     43                     44                     45
                      A                      A                      A
 Frequencies --   3030.2741              3036.2667              3051.9326
 Red. masses --      1.0687                 1.0620                 1.1023
 Frc consts  --      5.7818                 5.7685                 6.0490
 IR Inten    --      2.4297                23.3232                30.3002

                     46                     47                     48
                      A                      A                      A
 Frequencies --   3054.6383              3073.7317              3086.2893
 Red. masses --      1.0635                 1.0855                 1.0994
 Frc consts  --      5.8465                 6.0422                 6.1697
 IR Inten    --     15.5518                53.5729                25.1021

                     49                     50                     51
                      A                      A                      A
 Frequencies --   3108.7847              3113.0627              3114.9781
 Red. masses --      1.1049                 1.0953                 1.0885
 Frc consts  --      6.2917                 6.2543                 6.2229
 IR Inten    --     11.1027                23.2901                12.1163

 - Thermochemistry -
 -------------------
 Temperature   298.150 Kelvin.  Pressure   1.00000 Atm.
 Atom     1 has atomic number  8 and mass  15.99491

 Molecular mass:   126.06808 amu.
 Principal axes and moments of inertia in atomic units:
                           1         2         3
     Eigenvalues --   684.581951049.727261271.78904
           X            0.99941  -0.02178   0.02643
           Y            0.02193   0.99975  -0.00524
           Z           -0.02631   0.00582   0.99964
 This molecule is an asymmetric top.
 Rotational symmetry number  1.
 Warning -- assumption of classical behavior for rotation
           may cause significant error
 Rotational temperatures (Kelvin)      0.12652     0.08251     0.06810
 Rotational constants (GHZ):           2.63627     1.71925     1.41906
 Zero-point vibrational energy     426507.1 (Joules/Mol)
                                  101.93765 (Kcal/Mol)
 Warning -- explicit consideration of   8 degrees of freedom as
           vibrations may cause significant error
 Vibrational temperatures:    148.99   240.84   343.81   493.68   557.93
          (Kelvin)            601.00   670.97   775.16   906.81  1002.48
                             1071.28  1154.43  1203.43  1279.58  1280.13
                             1348.24  1355.63  1366.25  1443.63  1490.68
                             1504.96  1547.58  1580.06  1601.35  1684.66
                             1709.93  1765.22  1785.20  1799.75  1875.59
                             1888.81  1903.80  1926.67  1957.80  1977.92
                             2002.29  2098.60  2136.24  2156.61  2200.30
                             2617.78  4327.00  4359.88  4368.51  4391.04
                             4394.94  4422.41  4440.48  4472.84  4479.00
                             4481.75

 Zero-point correction=                           0.162448 (Hartree/Particle)
 Thermal correction to Energy=                    0.169647
 Thermal correction to Enthalpy=                  0.170591
 Thermal correction to Gibbs Free Energy=         0.130850
 Sum of electronic and zero-point Energies=           -423.067725
 Sum of electronic and thermal Energies=              -423.060526
 Sum of electronic and thermal Enthalpies=            -423.059582
 Sum of electronic and thermal Free Energies=         -423.099323

                     E (Thermal)             CV                S
                      KCal/Mol        Cal/Mol-Kelvin    Cal/Mol-Kelvin
 Total                  106.455             28.835             83.642
 Electronic               0.000              0.000              0.000
 Translational            0.889              2.981             40.409
 Rotational               0.889              2.981             28.304
 Vibrational            104.678             22.874             14.930
 Vibration     1          0.605              1.946              3.386
 Vibration     2          0.624              1.883              2.465
 Vibration     3          0.657              1.781              1.811
 Vibration     4          0.722              1.589              1.198
 Vibration     5          0.756              1.496              1.009
 Vibration     6          0.781              1.432              0.900
 Vibration     7          0.824              1.325              0.748
 Vibration     8          0.894              1.164              0.568

 Optimization completed.
    -- Stationary point found.
 Normal termination of Gaussian 09 at Mon Jan 27 14:35:39 2020.
