 Gaussian 09, Revision D.01,
 Gaussian 09:  ES64L-G09RevD.01 24-Apr-2013

 -----------------------------
 # b3lyp 6-31G(2df,p) opt Freq
 -----------------------------

 -----
 titel
 -----
 Symbolic Z-matrix:
 Charge =  0 Multiplicity = 1

 SCF Done:  E(RB3LYP) =  -423.164559252     A.U. after   14 cycles
 Optimization completed.
    -- Stationary point found.
 Normal termination of Gaussian 09 at Mon Jan 27 12:04:08 2020.

 ----------------------------------------------------------------------
 #N Geom=AllCheck Guess=TCheck SCRF=Check GenChk RB3LYP/6-31G(2df,p) Fr
 eq
 ----------------------------------------------------------------------

 Structure from the checkpoint file:  "/scratch/puck/g09_6f51545a-d5a8-43a4-b496-20649b10b573/Gau-18026.chk"
 -----
 titel
 -----
 Charge =  0 Multiplicity = 1

                         Standard orientation:
 ---------------------------------------------------------------------
 Center     Atomic      Atomic             Coordinates (Angstroms)
 Number     Number       Type             X           Y           Z
 ---------------------------------------------------------------------
      1          6           0        2.407758    0.199267   -0.416548
      2          6           0        1.925652   -0.269219    0.933052
      3          6           0        0.929445    0.162418   -0.126913
      4          8           0        0.238603   -0.844378   -0.828047
      5          6           0       -0.730740   -1.549262   -0.093235
      6          8           0       -1.599215   -0.731288    0.632026
      7          6           0       -2.097735    0.393403   -0.084637
      8          6           0       -1.139875    1.559871   -0.042745
      9          6           0        0.186468    1.442556    0.003097
     10          1           0        2.887957    1.168612   -0.494538
     11          1           0        2.773814   -0.551728   -1.106351
     12          1           0        1.984833   -1.331201    1.144050
     13          1           0        2.062656    0.372232    1.796031
     14          1           0       -1.260881   -2.144055   -0.852406
     15          1           0       -0.276543   -2.213257    0.655315
     16          1           0       -2.350811    0.115082   -1.120182
     17          1           0       -3.032865    0.671721    0.412567
     18          1           0       -1.588830    2.548895   -0.002841
     19          1           0        0.799730    2.334816    0.104093
 ---------------------------------------------------------------------

 SCF Done:  E(RB3LYP) =  -423.164559252     A.U. after    1 cycles

 The electronic state is 1-A.
 Alpha  occ. eigenvalues --  -19.14717 -19.14180 -10.27093 -10.24428 -10.23204
 Alpha  occ. eigenvalues --  -10.18930 -10.18739 -10.18383 -10.17992  -1.07155
 Alpha  occ. eigenvalues --   -1.00875  -0.85623  -0.78468  -0.70619  -0.66861
 Alpha  occ. eigenvalues --   -0.60728  -0.57731  -0.55745  -0.50579  -0.49351
 Alpha  occ. eigenvalues --   -0.48493  -0.47385  -0.45543  -0.41556  -0.39829
 Alpha  occ. eigenvalues --   -0.39253  -0.37012  -0.36340  -0.33347  -0.31685
 Alpha  occ. eigenvalues --   -0.29618  -0.28300  -0.25323  -0.23025
 Alpha virt. eigenvalues --    0.01401   0.08968   0.09833   0.11910   0.12465
 Alpha virt. eigenvalues --    0.13633   0.14910   0.15161   0.16562   0.17656
 Alpha virt. eigenvalues --    0.18660   0.18979   0.19692   0.20842   0.23190

 Mulliken charges:
               1
     1  C   -0.316758
     2  C   -0.319369
     3  C    0.402845
     4  O   -0.288750
     5  C   -0.018077
     6  O   -0.231150
     7  C   -0.142080
     8  C   -0.094915
     9  C   -0.072690
    10  H    0.114971
    11  H    0.126405
    12  H    0.122755
    13  H    0.121109
    14  H    0.094881
    15  H    0.096756
    16  H    0.109869
    17  H    0.113966
    18  H    0.091002
    19  H    0.089230
 Sum of Mulliken charges =   0.00000

 Dipole moment (field-independent basis, Debye):
    X=              0.2794    Y=              0.5294    Z=              0.0116  Tot=              0.5987
 Quadrupole moment (field-independent basis, Debye-Ang):
   XX=            -50.2543   YY=            -49.4176   ZZ=            -55.9166
   XY=             -0.6815   XZ=              2.3772   YZ=              0.3977

  Exact polarizability:  98.431  -2.822  78.073   2.499   0.248  58.922
 Approx polarizability: 139.627  -4.819 108.318   2.669  -0.332  93.771

                      1                      2                      3
                      A                      A                      A
 Frequencies --     86.4643               208.3004               238.4138
 Red. masses --      3.1890                 2.7721                 2.5645
 Frc consts  --      0.0140                 0.0709                 0.0859
 IR Inten    --      2.8582                 2.5204                 3.1310

                      4                      5                      6
                      A                      A                      A
 Frequencies --    276.2837               309.9979               366.8427
 Red. masses --      3.4330                 2.3613                 4.1533
 Frc consts  --      0.1544                 0.1337                 0.3293
 IR Inten    --      2.4307                 3.2322                 4.6028

                      7                      8                      9
                      A                      A                      A
 Frequencies --    409.9670               412.6773               541.3919
 Red. masses --      4.0112                 2.3719                 2.5878
 Frc consts  --      0.3972                 0.2380                 0.4469
 IR Inten    --      3.5432                 2.0344                 4.8047

                     10                     11                     12
                      A                      A                      A
 Frequencies --    634.9175               693.1541               727.8178
 Red. masses --      4.6071                 2.7390                 2.0780
 Frc consts  --      1.0942                 0.7753                 0.6485
 IR Inten    --      6.8164                 7.7671                12.0292

                     13                     14                     15
                      A                      A                      A
 Frequencies --    771.9840               798.0798               893.7895
 Red. masses --      1.0480                 4.1067                 2.3674
 Frc consts  --      0.3680                 1.5411                 1.1143
 IR Inten    --      0.0730                 7.2775                11.8162

                     16                     17                     18
                      A                      A                      A
 Frequencies --    902.1856               918.3334               958.9151
 Red. masses --      2.8116                 1.4419                 3.1163
 Frc consts  --      1.3483                 0.7165                 1.6883
 IR Inten    --      0.7846                11.1381                17.1524

                     19                     20                     21
                      A                      A                      A
 Frequencies --    970.7633               983.8596               995.6630
 Red. masses --      2.0951                 1.6140                 2.5521
 Frc consts  --      1.1632                 0.9205                 1.4907
 IR Inten    --      2.5019                 4.1662                14.8021

                     22                     23                     24
                      A                      A                      A
 Frequencies --   1034.3949              1055.0576              1077.3612
 Red. masses --      2.0290                 1.4499                 1.4540
 Frc consts  --      1.2791                 0.9509                 0.9944
 IR Inten    --      6.9020                 6.0371                 7.0905

                     25                     26                     27
                      A                      A                      A
 Frequencies --   1096.7674              1150.2647              1169.7321
 Red. masses --      4.1993                 3.6988                 1.8927
 Frc consts  --      2.9761                 2.8834                 1.5258
 IR Inten    --    132.5460               117.7419                41.4722

                     28                     29                     30
                      A                      A                      A
 Frequencies --   1191.5965              1203.2023              1272.7034
 Red. masses --      1.2855                 1.2862                 1.1708
 Frc consts  --      1.0754                 1.0970                 1.1174
 IR Inten    --      0.5315                22.7580                 8.1075

                     31                     32                     33
                      A                      A                      A
 Frequencies --   1285.8761              1308.0670              1321.7780
 Red. masses --      2.5337                 1.9282                 1.1709
 Frc consts  --      2.4684                 1.9438                 1.2053
 IR Inten    --     12.8354                50.4946                 4.3931

                     34                     35                     36
                      A                      A                      A
 Frequencies --   1394.6083              1424.4030              1447.7222
 Red. masses --      1.3045                 1.7181                 1.2090
 Frc consts  --      1.4949                 2.0538                 1.4929
 IR Inten    --     15.3545                 0.9158                10.2711

                     37                     38                     39
                      A                      A                      A
 Frequencies --   1455.7153              1483.5389              1489.1966
 Red. masses --      1.0955                 1.0912                 1.3513
 Frc consts  --      1.3678                 1.4150                 1.7656
 IR Inten    --      1.0673                 4.5540                 2.6042

                     40                     41                     42
                      A                      A                      A
 Frequencies --   1514.7394              1719.3743              2978.8830
 Red. masses --      1.0981                 7.3372                 1.0686
 Frc consts  --      1.4844                12.7797                 5.5869
 IR Inten    --      0.5595                 3.3263                40.1644

                     43                     44                     45
                      A                      A                      A
 Frequencies --   2988.6875              3034.6332              3067.2704
 Red. masses --      1.0552                 1.1090                 1.0923
 Frc consts  --      5.5532                 6.0173                 6.0549
 IR Inten    --     94.2907                43.6641                30.8280

                     46                     47                     48
                      A                      A                      A
 Frequencies --   3137.0429              3139.7735              3147.3998
 Red. masses --      1.0508                 1.0592                 1.0825
 Frc consts  --      6.0929                 6.1522                 6.3179
 IR Inten    --     14.2801                 3.9740                 5.5924

                     49                     50                     51
                      A                      A                      A
 Frequencies --   3170.8160              3221.3521              3236.0743
 Red. masses --      1.0961                 1.1185                 1.1160
 Frc consts  --      6.4932                 6.8386                 6.8855
 IR Inten    --     23.3012                 0.3735                 9.8519

 - Thermochemistry -
 -------------------
 Temperature   298.150 Kelvin.  Pressure   1.00000 Atm.
 Atom     1 has atomic number  6 and mass  12.00000

 Molecular mass:   126.06808 amu.
 Principal axes and moments of inertia in atomic units:
                           1         2         3
     Eigenvalues --   610.704461158.906581491.83763
           X            0.99985  -0.00764   0.01546
           Y            0.00765   0.99997  -0.00078
           Z           -0.01546   0.00090   0.99988
 This molecule is an asymmetric top.
 Rotational symmetry number  1.
 Warning -- assumption of classical behavior for rotation
           may cause significant error
 Rotational temperatures (Kelvin)      0.14183     0.07474     0.05806
 Rotational constants (GHZ):           2.95518     1.55728     1.20974
 Zero-point vibrational energy     420594.0 (Joules/Mol)
                                  100.52439 (Kcal/Mol)
 Warning -- explicit consideration of   9 degrees of freedom as
           vibrations may cause significant error
 Vibrational temperatures:    124.40   299.70   343.02   397.51   446.02
          (Kelvin)            527.80   589.85   593.75   778.94   913.50
                              997.29  1047.17  1110.71  1148.26  1285.96
                             1298.04  1321.28  1379.66  1396.71  1415.55
                             1432.54  1488.26  1517.99  1550.08  1578.00
                             1654.97  1682.98  1714.44  1731.14  1831.13
                             1850.09  1882.01  1901.74  2006.53  2049.40
                             2082.95  2094.45  2134.48  2142.62  2179.37
                             2473.79  4285.94  4300.05  4366.15  4413.11
                             4513.50  4517.43  4528.40  4562.09  4634.80
                             4655.98

 Zero-point correction=                           0.160196 (Hartree/Particle)
 Thermal correction to Energy=                    0.167956
 Thermal correction to Enthalpy=                  0.168900
 Thermal correction to Gibbs Free Energy=         0.128126
 Sum of electronic and zero-point Energies=           -423.004363
 Sum of electronic and thermal Energies=              -422.996604
 Sum of electronic and thermal Enthalpies=            -422.995660
 Sum of electronic and thermal Free Energies=         -423.036433

                     E (Thermal)             CV                S
                      KCal/Mol        Cal/Mol-Kelvin    Cal/Mol-Kelvin
 Total                  105.394             30.883             85.815
 Electronic               0.000              0.000              0.000
 Translational            0.889              2.981             40.409
 Rotational               0.889              2.981             28.448
 Vibrational            103.616             24.922             16.959
 Vibration     1          0.601              1.959              3.739
 Vibration     2          0.642              1.828              2.059
 Vibration     3          0.656              1.782              1.815
 Vibration     4          0.678              1.717              1.557
 Vibration     5          0.699              1.655              1.362
 Vibration     6          0.740              1.540              1.093
 Vibration     7          0.774              1.449              0.927
 Vibration     8          0.776              1.443              0.917
 Vibration     9          0.896              1.159              0.562

 Normal termination of Gaussian 09 at Mon Jan 27 12:54:02 2020.
