 Gaussian 09, Revision D.01,
 Gaussian 09:  ES64L-G09RevD.01 24-Apr-2013

 -----------------------------
 # b3lyp 6-31G(2df,p) opt Freq
 -----------------------------

 -----
 titel
 -----
 Symbolic Z-matrix:
 Charge =  0 Multiplicity = 1

 SCF Done:  E(RB3LYP) =  -423.134613625     A.U. after   14 cycles
 Optimization completed.
    -- Stationary point found.
 Normal termination of Gaussian 09 at Tue Jan 28 08:12:09 2020.

 ----------------------------------------------------------------------
 #N Geom=AllCheck Guess=TCheck SCRF=Check GenChk RB3LYP/6-31G(2df,p) Fr
 eq
 ----------------------------------------------------------------------

 Structure from the checkpoint file:  "/scratch/puck/g09_f40b7564-3ca1-4e37-a6f7-447d6e55052c/Gau-102036.chk"
 -----
 titel
 -----
 Charge =  0 Multiplicity = 1

                         Standard orientation:
 ---------------------------------------------------------------------
 Center     Atomic      Atomic             Coordinates (Angstroms)
 Number     Number       Type             X           Y           Z
 ---------------------------------------------------------------------
      1          6           0       -3.000044   -0.765987   -0.680713
      2          6           0       -1.845471   -0.197007    0.104418
      3          8           0       -1.306765   -1.146141    0.974990
      4          6           0       -1.845422    1.243899    0.520823
      5          6           0       -0.880608    0.776199   -0.580048
      6          6           0        0.513255    0.649269   -0.287285
      7          6           0        1.680108    0.490252   -0.014453
      8          6           0        3.096060    0.287919    0.290553
      9          8           0        3.694794   -0.775974   -0.436471
     10          1           0       -3.782292   -1.112104    0.002680
     11          1           0       -3.434199   -0.014555   -1.345944
     12          1           0       -2.671629   -1.620059   -1.280694
     13          1           0       -0.351328   -1.004342    1.015097
     14          1           0       -2.662627    1.887928    0.214401
     15          1           0       -1.405075    1.481617    1.482087
     16          1           0       -1.126398    1.070809   -1.596026
     17          1           0        3.666776    1.184971    0.025089
     18          1           0        3.215982    0.149424    1.377250
     19          1           0        3.139299   -1.554035   -0.321863
 ---------------------------------------------------------------------

 SCF Done:  E(RB3LYP) =  -423.134613625     A.U. after    1 cycles

 The electronic state is 1-A.
 Alpha  occ. eigenvalues --  -19.14327 -19.13978 -10.25616 -10.25234 -10.21596
 Alpha  occ. eigenvalues --  -10.19331 -10.19055 -10.18437 -10.18213  -1.03167
 Alpha  occ. eigenvalues --   -1.02518  -0.86153  -0.77411  -0.72868  -0.69797
 Alpha  occ. eigenvalues --   -0.63127  -0.57996  -0.54195  -0.52215  -0.50518
 Alpha  occ. eigenvalues --   -0.47351  -0.44791  -0.43231  -0.42217  -0.40025
 Alpha  occ. eigenvalues --   -0.38696  -0.38366  -0.36087  -0.34735  -0.32486
 Alpha  occ. eigenvalues --   -0.29050  -0.27544  -0.25149  -0.23992
 Alpha virt. eigenvalues --    0.02118   0.03567   0.08363   0.09894   0.11728
 Alpha virt. eigenvalues --    0.12387   0.13525   0.14182   0.15096   0.15684
 Alpha virt. eigenvalues --    0.17054   0.18086   0.19549   0.21062   0.23058

 Mulliken charges:
               1
     1  C   -0.430990
     2  C    0.434142
     3  O   -0.468116
     4  C   -0.335087
     5  C   -0.284435
     6  C    0.008291
     7  C    0.112268
     8  C   -0.194047
     9  O   -0.400030
    10  H    0.131428
    11  H    0.114839
    12  H    0.127044
    13  H    0.278674
    14  H    0.118427
    15  H    0.125191
    16  H    0.113841
    17  H    0.143874
    18  H    0.118560
    19  H    0.286124
 Sum of Mulliken charges =   0.00000

 Dipole moment (field-independent basis, Debye):
    X=             -0.9319    Y=              0.6815    Z=              0.0871  Tot=              1.1578
 Quadrupole moment (field-independent basis, Debye-Ang):
   XX=            -56.3213   YY=            -52.3177   ZZ=            -53.7199
   XY=             -2.2573   XZ=              6.7945   YZ=              0.8554

  Exact polarizability: 119.723  -1.691  68.913   4.714   0.503  62.599
 Approx polarizability: 165.316  -6.002 101.361   6.747  -2.815  94.671

                      1                      2                      3
                      A                      A                      A
 Frequencies --     32.4005                70.3546                92.9419
 Red. masses --      3.3242                 4.0931                 3.3188
 Frc consts  --      0.0021                 0.0119                 0.0169
 IR Inten    --      2.7923                 0.5982                 1.6079

                      4                      5                      6
                      A                      A                      A
 Frequencies --    158.7271               222.5106               227.8455
 Red. masses --      3.1797                 1.0761                 2.0803
 Frc consts  --      0.0472                 0.0314                 0.0636
 IR Inten    --      7.7278                 0.3507                19.9564

                      7                      8                      9
                      A                      A                      A
 Frequencies --    240.1579               282.5690               308.6090
 Red. masses --      1.3738                 2.9859                 1.4630
 Frc consts  --      0.0467                 0.1405                 0.0821
 IR Inten    --     49.4406                 7.7694               105.1610

                     10                     11                     12
                      A                      A                      A
 Frequencies --    357.5568               406.8798               431.2011
 Red. masses --      2.4331                 4.2404                 3.0933
 Frc consts  --      0.1833                 0.4136                 0.3389
 IR Inten    --      0.9880                 4.2156                 5.0966

                     13                     14                     15
                      A                      A                      A
 Frequencies --    512.7573               522.4654               607.4270
 Red. masses --      4.5813                 3.6340                 4.6211
 Frc consts  --      0.7097                 0.5845                 1.0046
 IR Inten    --      4.8907                10.0806                 3.9065

                     16                     17                     18
                      A                      A                      A
 Frequencies --    705.4266               738.1412               823.1542
 Red. masses --      3.2660                 3.1359                 2.5171
 Frc consts  --      0.9576                 1.0067                 1.0049
 IR Inten    --      5.4885                 5.2277                21.6208

                     19                     20                     21
                      A                      A                      A
 Frequencies --    911.3939               926.9590               980.2662
 Red. masses --      1.8903                 1.6796                 2.1523
 Frc consts  --      0.9251                 0.8503                 1.2185
 IR Inten    --     10.5600                 2.7795                15.2209

                     22                     23                     24
                      A                      A                      A
 Frequencies --    984.6092              1017.4960              1048.9625
 Red. masses --      1.6762                 1.8091                 4.1607
 Frc consts  --      0.9574                 1.1035                 2.6974
 IR Inten    --     59.0843                 2.1670                85.1506

                     25                     26                     27
                      A                      A                      A
 Frequencies --   1052.5818              1091.9778              1106.5065
 Red. masses --      1.4063                 1.4915                 1.5772
 Frc consts  --      0.9180                 1.0479                 1.1377
 IR Inten    --     28.4098                 7.1607                14.7432

                     28                     29                     30
                      A                      A                      A
 Frequencies --   1195.0765              1214.1059              1217.7754
 Red. masses --      2.2071                 1.2246                 1.5067
 Frc consts  --      1.8572                 1.0636                 1.3165
 IR Inten    --      1.5557                25.3216                40.3888

                     31                     32                     33
                      A                      A                      A
 Frequencies --   1311.8458              1349.4603              1356.9421
 Red. masses --      2.6722                 1.6886                 1.2199
 Frc consts  --      2.7094                 1.8118                 1.3235
 IR Inten    --     51.8491                20.5154                 3.6595

                     34                     35                     36
                      A                      A                      A
 Frequencies --   1401.6354              1417.9333              1441.6717
 Red. masses --      1.2510                 1.2496                 1.5804
 Frc consts  --      1.4480                 1.4802                 1.9353
 IR Inten    --     28.4507               107.1956                18.2204

                     37                     38                     39
                      A                      A                      A
 Frequencies --   1477.9319              1478.4307              1489.6741
 Red. masses --      1.2425                 1.1515                 1.0788
 Frc consts  --      1.5990                 1.4829                 1.4105
 IR Inten    --     17.4234                13.9737                 1.2453

                     40                     41                     42
                      A                      A                      A
 Frequencies --   1503.1159              2335.6756              2974.1163
 Red. masses --      1.1419                11.8204                 1.0715
 Frc consts  --      1.5201                37.9932                 5.5841
 IR Inten    --      5.5129                36.3339                46.3054

                     43                     44                     45
                      A                      A                      A
 Frequencies --   3038.6410              3061.2798              3107.1619
 Red. masses --      1.0349                 1.0880                 1.1014
 Frc consts  --      5.6298                 6.0074                 6.2648
 IR Inten    --     24.2292                17.2737                17.3343

                     46                     47                     48
                      A                      A                      A
 Frequencies --   3118.8399              3136.4549              3147.8384
 Red. masses --      1.1017                 1.0547                 1.0874
 Frc consts  --      6.3140                 6.1132                 6.3482
 IR Inten    --     16.9827                 9.1092                 9.2327

                     49                     50                     51
                      A                      A                      A
 Frequencies --   3232.4881              3738.5557              3817.2189
 Red. masses --      1.1174                 1.0657                 1.0663
 Frc consts  --      6.8789                 8.7760                 9.1541
 IR Inten    --      5.2389                78.9841                17.8783

 - Thermochemistry -
 -------------------
 Temperature   298.150 Kelvin.  Pressure   1.00000 Atm.
 Atom     1 has atomic number  6 and mass  12.00000

 Molecular mass:   126.06808 amu.
 Principal axes and moments of inertia in atomic units:
                           1         2         3
     Eigenvalues --   475.154502567.338702726.29202
           X            0.99987  -0.00014   0.01629
           Y           -0.00084   0.99818   0.06034
           Z           -0.01627  -0.06035   0.99804
 This molecule is an asymmetric top.
 Rotational symmetry number  1.
 Warning -- assumption of classical behavior for rotation
           may cause significant error
 Rotational temperatures (Kelvin)      0.18229     0.03374     0.03177
 Rotational constants (GHZ):           3.79822     0.70296     0.66198
 Zero-point vibrational energy     409276.9 (Joules/Mol)
                                   97.81952 (Kcal/Mol)
 Warning -- explicit consideration of  15 degrees of freedom as
           vibrations may cause significant error
 Vibrational temperatures:     46.62   101.22   133.72   228.37   320.14
          (Kelvin)            327.82   345.53   406.55   444.02   514.44
                              585.41   620.40   737.74   751.71   873.95
                             1014.95  1062.02  1184.33  1311.29  1333.69
                             1410.38  1416.63  1463.95  1509.22  1514.43
                             1571.11  1592.01  1719.45  1746.83  1752.11
                             1887.45  1941.57  1952.33  2016.64  2040.09
                             2074.24  2126.41  2127.13  2143.31  2162.65
                             3360.51  4279.08  4371.92  4404.49  4470.51
                             4487.31  4512.65  4529.03  4650.82  5378.94
                             5492.12

 Zero-point correction=                           0.155885 (Hartree/Particle)
 Thermal correction to Energy=                    0.166395
 Thermal correction to Enthalpy=                  0.167339
 Thermal correction to Gibbs Free Energy=         0.119369
 Sum of electronic and zero-point Energies=           -422.978728
 Sum of electronic and thermal Energies=              -422.968219
 Sum of electronic and thermal Enthalpies=            -422.967274
 Sum of electronic and thermal Free Energies=         -423.015245

                     E (Thermal)             CV                S
                      KCal/Mol        Cal/Mol-Kelvin    Cal/Mol-Kelvin
 Total                  104.414             37.467            100.962
 Electronic               0.000              0.000              0.000
 Translational            0.889              2.981             40.409
 Rotational               0.889              2.981             29.588
 Vibrational            102.637             31.506             30.966
 Vibration     1          0.594              1.983              5.677
 Vibration     2          0.598              1.968              4.143
 Vibration     3          0.602              1.954              3.597
 Vibration     4          0.621              1.893              2.565
 Vibration     5          0.648              1.807              1.939
 Vibration     6          0.651              1.799              1.896
 Vibration     7          0.657              1.779              1.802
 Vibration     8          0.682              1.706              1.518
 Vibration     9          0.698              1.657              1.370
 Vibration    10          0.733              1.560              1.133
 Vibration    11          0.772              1.455              0.938
 Vibration    12          0.792              1.402              0.855
 Vibration    13          0.868              1.222              0.627
 Vibration    14          0.877              1.200              0.604
 Vibration    15          0.966              1.016              0.437

 Normal termination of Gaussian 09 at Tue Jan 28 08:47:24 2020.
