 Gaussian 09, Revision D.01,
 Gaussian 09:  ES64L-G09RevD.01 24-Apr-2013

 -----------------------------
 # b3lyp 6-31G(2df,p) opt Freq
 -----------------------------

 -----
 titel
 -----
 Symbolic Z-matrix:
 Charge =  0 Multiplicity = 1

 SCF Done:  E(RB3LYP) =  -423.154529744     A.U. after   12 cycles
 Optimization completed.
    -- Stationary point found.
 Normal termination of Gaussian 09 at Mon Jan 27 17:56:48 2020.

 ----------------------------------------------------------------------
 #N Geom=AllCheck Guess=TCheck SCRF=Check GenChk RB3LYP/6-31G(2df,p) Fr
 eq
 ----------------------------------------------------------------------

 Structure from the checkpoint file:  "/scratch/puck/g09_36d57901-888c-44cd-abd6-eea311156959/Gau-180631.chk"
 -----
 titel
 -----
 Charge =  0 Multiplicity = 1

                         Standard orientation:
 ---------------------------------------------------------------------
 Center     Atomic      Atomic             Coordinates (Angstroms)
 Number     Number       Type             X           Y           Z
 ---------------------------------------------------------------------
      1          8           0        2.303174   -0.461277   -0.090503
      2          6           0        0.924712   -0.520190   -0.007057
      3          6           0       -0.000467   -1.766552   -0.015545
      4          6           0       -0.924977   -0.519736   -0.006984
      5          8           0       -2.303414   -0.460063   -0.090279
      6          6           0       -0.000009    0.184948   -1.037195
      7          6           0        0.000383    1.689351   -0.766256
      8          6           0        0.000480    1.683847    0.791407
      9          6           0        0.000116    0.178194    1.049235
     10          1           0        2.675341   -0.890364    0.687334
     11          1           0       -0.000653   -2.373113   -0.925066
     12          1           0       -0.000595   -2.389619    0.885618
     13          1           0       -2.675749   -0.891110    0.686392
     14          1           0       -0.000151   -0.174754   -2.067692
     15          1           0        0.884561    2.178166   -1.184984
     16          1           0       -0.883620    2.178588   -1.184867
     17          1           0        0.884070    2.172940    1.212788
     18          1           0       -0.882786    2.173396    1.212928
     19          1           0        0.000076   -0.192581    2.078174
 ---------------------------------------------------------------------

 SCF Done:  E(RB3LYP) =  -423.154529744     A.U. after    1 cycles

 The electronic state is 1-A.
 Alpha  occ. eigenvalues --  -19.14738 -19.14738 -10.24160 -10.24157 -10.18253
 Alpha  occ. eigenvalues --  -10.18221 -10.17911 -10.17327 -10.17109  -1.03697
 Alpha  occ. eigenvalues --   -1.02948  -0.91138  -0.76648  -0.69155  -0.63963
 Alpha  occ. eigenvalues --   -0.61701  -0.57437  -0.54627  -0.51532  -0.47596
 Alpha  occ. eigenvalues --   -0.46136  -0.44999  -0.42161  -0.39632  -0.39075
 Alpha  occ. eigenvalues --   -0.36101  -0.35539  -0.33899  -0.33324  -0.32913
 Alpha  occ. eigenvalues --   -0.30289  -0.27907  -0.27349  -0.24033
 Alpha virt. eigenvalues --    0.06821   0.08630   0.11859   0.12123   0.13293
 Alpha virt. eigenvalues --    0.15911   0.16095   0.16293   0.16510   0.16862
 Alpha virt. eigenvalues --    0.18635   0.18683   0.21332   0.21628   0.22800

 Mulliken charges:
               1
     1  O   -0.481655
     2  C    0.407063
     3  C   -0.382065
     4  C    0.407063
     5  O   -0.481659
     6  C   -0.081469
     7  C   -0.246864
     8  C   -0.240691
     9  C   -0.156445
    10  H    0.283160
    11  H    0.096182
    12  H    0.076400
    13  H    0.283161
    14  H    0.066207
    15  H    0.104004
    16  H    0.104009
    17  H    0.097772
    18  H    0.097800
    19  H    0.048027
 Sum of Mulliken charges =   0.00000

 Dipole moment (field-independent basis, Debye):
    X=             -0.0003    Y=             -1.0384    Z=              2.1586  Tot=              2.3954
 Quadrupole moment (field-independent basis, Debye-Ang):
   XX=            -53.9230   YY=            -51.7538   ZZ=            -50.7763
   XY=              0.0101   XZ=              0.0048   YZ=             -2.4871

  Exact polarizability:  73.252   0.007  79.551   0.002  -1.247  70.718
 Approx polarizability: 110.944   0.005 108.341   0.003  -2.387 108.601

                      1                      2                      3
                      A                      A                      A
 Frequencies --    179.3620               203.1012               235.0559
 Red. masses --      1.7862                 2.5598                 1.6798
 Frc consts  --      0.0339                 0.0622                 0.0547
 IR Inten    --      0.5087                 1.6904                51.8767

                      4                      5                      6
                      A                      A                      A
 Frequencies --    255.9190               258.4164               313.8843
 Red. masses --      1.2093                 4.4381                 2.1027
 Frc consts  --      0.0467                 0.1746                 0.1221
 IR Inten    --      1.5637                 1.7166               151.8869

                      7                      8                      9
                      A                      A                      A
 Frequencies --    440.3652               459.8009               505.6776
 Red. masses --      2.1667                 2.5540                 2.8727
 Frc consts  --      0.2476                 0.3181                 0.4328
 IR Inten    --      3.4616                11.5291                 0.0962

                     10                     11                     12
                      A                      A                      A
 Frequencies --    612.3075               661.8804               702.5979
 Red. masses --      9.4591                 3.0168                 5.0703
 Frc consts  --      2.0895                 0.7787                 1.4747
 IR Inten    --      0.1505                 4.1138                 0.9280

                     13                     14                     15
                      A                      A                      A
 Frequencies --    714.6095               749.0674               812.0801
 Red. masses --      2.9308                 5.0385                 1.5476
 Frc consts  --      0.8818                 1.6657                 0.6013
 IR Inten    --      1.1379                 3.0407                 0.0001

                     16                     17                     18
                      A                      A                      A
 Frequencies --    887.1946               898.0153               924.7649
 Red. masses --      2.5636                 2.1076                 3.3757
 Frc consts  --      1.1889                 1.0014                 1.7009
 IR Inten    --      9.8713                 1.6820                 0.0392

                     19                     20                     21
                      A                      A                      A
 Frequencies --    981.4960               985.9930              1028.8856
 Red. masses --      1.1331                 3.5593                 1.8254
 Frc consts  --      0.6431                 2.0388                 1.1385
 IR Inten    --      0.0891                 0.1390                 0.3080

                     22                     23                     24
                      A                      A                      A
 Frequencies --   1036.3585              1080.0331              1084.4346
 Red. masses --      1.7164                 1.9769                 1.2113
 Frc consts  --      1.0861                 1.3587                 0.8393
 IR Inten    --      0.5822                 4.2782                24.8655

                     25                     26                     27
                      A                      A                      A
 Frequencies --   1092.5021              1123.0330              1125.3253
 Red. masses --      1.4337                 1.8356                 1.4321
 Frc consts  --      1.0082                 1.3640                 1.0685
 IR Inten    --      1.3363                67.1623                 4.5515

                     28                     29                     30
                      A                      A                      A
 Frequencies --   1133.2037              1172.0597              1248.5586
 Red. masses --      3.3841                 1.5553                 1.8138
 Frc consts  --      2.5604                 1.2588                 1.6659
 IR Inten    --     12.8832                93.0080                 0.5941

                     31                     32                     33
                      A                      A                      A
 Frequencies --   1250.8481              1277.9706              1289.5027
 Red. masses --      1.1229                 1.7970                 1.7086
 Frc consts  --      1.0351                 1.7292                 1.6740
 IR Inten    --      4.5491               335.1041                 0.6464

                     34                     35                     36
                      A                      A                      A
 Frequencies --   1306.4855              1327.2542              1347.4448
 Red. masses --      1.8318                 2.2790                 1.5710
 Frc consts  --      1.8422                 2.3654                 1.6806
 IR Inten    --      2.8200                 0.4436                 2.0358

                     37                     38                     39
                      A                      A                      A
 Frequencies --   1348.1590              1439.0417              1480.4796
 Red. masses --      1.9869                 1.9475                 1.0826
 Frc consts  --      2.1277                 2.3761                 1.3981
 IR Inten    --     21.7381                 0.1198                 0.4937

                     40                     41                     42
                      A                      A                      A
 Frequencies --   1504.0464              1527.8173              3035.5160
 Red. masses --      1.1128                 1.4459                 1.0565
 Frc consts  --      1.4832                 1.9885                 5.7358
 IR Inten    --      1.6484                 0.0091                46.2992

                     43                     44                     45
                      A                      A                      A
 Frequencies --   3046.9761              3058.9695              3078.0867
 Red. masses --      1.0588                 1.0598                 1.0862
 Frc consts  --      5.7916                 5.8429                 6.0636
 IR Inten    --     29.2820                55.0249                56.2818

                     46                     47                     48
                      A                      A                      A
 Frequencies --   3082.5518              3104.2598              3104.7169
 Red. masses --      1.1065                 1.1060                 1.0994
 Frc consts  --      6.1948                 6.2793                 6.2439
 IR Inten    --      3.3115                36.9025                 0.4654

                     49                     50                     51
                      A                      A                      A
 Frequencies --   3108.2542              3808.3711              3809.0053
 Red. masses --      1.0973                 1.0660                 1.0657
 Frc consts  --      6.2459                 9.1089                 9.1098
 IR Inten    --     62.4578                26.9213                27.5456

 - Thermochemistry -
 -------------------
 Temperature   298.150 Kelvin.  Pressure   1.00000 Atm.
 Atom     1 has atomic number  8 and mass  15.99491

 Molecular mass:   126.06808 amu.
 Principal axes and moments of inertia in atomic units:
                           1         2         3
     Eigenvalues --   749.70199 949.180541284.77763
           X            1.00000   0.00017   0.00002
           Y           -0.00017   0.99994  -0.01113
           Z           -0.00002   0.01113   0.99994
 This molecule is an asymmetric top.
 Rotational symmetry number  1.
 Warning -- assumption of classical behavior for rotation
           may cause significant error
 Rotational temperatures (Kelvin)      0.11553     0.09125     0.06742
 Rotational constants (GHZ):           2.40728     1.90137     1.40471
 Zero-point vibrational energy     420138.9 (Joules/Mol)
                                  100.41561 (Kcal/Mol)
 Warning -- explicit consideration of  10 degrees of freedom as
           vibrations may cause significant error
 Vibrational temperatures:    258.06   292.22   338.19   368.21   371.80
          (Kelvin)            451.61   633.59   661.55   727.56   880.97
                              952.30  1010.88  1028.16  1077.74  1168.40
                             1276.47  1292.04  1330.53  1412.15  1418.62
                             1480.33  1491.09  1553.92  1560.26  1571.86
                             1615.79  1619.09  1630.43  1686.33  1796.40
                             1799.69  1838.71  1855.30  1879.74  1909.62
                             1938.67  1939.70  2070.46  2130.08  2163.98
                             2198.19  4367.43  4383.91  4401.17  4428.67
                             4435.10  4466.33  4466.99  4472.08  5479.39
                             5480.30

 Zero-point correction=                           0.160022 (Hartree/Particle)
 Thermal correction to Energy=                    0.167867
 Thermal correction to Enthalpy=                  0.168811
 Thermal correction to Gibbs Free Energy=         0.128320
 Sum of electronic and zero-point Energies=           -422.994507
 Sum of electronic and thermal Energies=              -422.986663
 Sum of electronic and thermal Enthalpies=            -422.985719
 Sum of electronic and thermal Free Energies=         -423.026210

                     E (Thermal)             CV                S
                      KCal/Mol        Cal/Mol-Kelvin    Cal/Mol-Kelvin
 Total                  105.338             31.812             85.221
 Electronic               0.000              0.000              0.000
 Translational            0.889              2.981             40.409
 Rotational               0.889              2.981             28.305
 Vibrational            103.561             25.851             16.508
 Vibration     1          0.629              1.868              2.335
 Vibration     2          0.639              1.835              2.105
 Vibration     3          0.655              1.787              1.840
 Vibration     4          0.666              1.753              1.689
 Vibration     5          0.667              1.749              1.672
 Vibration     6          0.702              1.647              1.342
 Vibration     7          0.800              1.382              0.825
 Vibration     8          0.818              1.339              0.767
 Vibration     9          0.861              1.237              0.644
 Vibration    10          0.972              1.006              0.429

 Normal termination of Gaussian 09 at Mon Jan 27 18:40:51 2020.
