 Gaussian 09, Revision D.01,
 Gaussian 09:  ES64L-G09RevD.01 24-Apr-2013

 -----------------------------
 # b3lyp 6-31G(2df,p) opt Freq
 -----------------------------

 -----
 titel
 -----
 Symbolic Z-matrix:
 Charge =  0 Multiplicity = 1

 SCF Done:  E(RB3LYP) =  -423.158809420     A.U. after   13 cycles
 Optimization completed.
    -- Stationary point found.
 Normal termination of Gaussian 09 at Mon Jan 27 12:18:31 2020.

 ----------------------------------------------------------------------
 #N Geom=AllCheck Guess=TCheck SCRF=Check GenChk RB3LYP/6-31G(2df,p) Fr
 eq
 ----------------------------------------------------------------------

 Structure from the checkpoint file:  "/scratch/puck/g09_3f1a47b0-0247-4fdc-a44f-8469f1627937/Gau-167162.chk"
 -----
 titel
 -----
 Charge =  0 Multiplicity = 1

                         Standard orientation:
 ---------------------------------------------------------------------
 Center     Atomic      Atomic             Coordinates (Angstroms)
 Number     Number       Type             X           Y           Z
 ---------------------------------------------------------------------
      1          6           0        2.257021   -0.270278   -0.042322
      2          8           0        1.272458   -1.119237   -0.693453
      3          6           0        0.195590   -0.483188    0.005683
      4          6           0       -0.980322   -1.330128    0.470958
      5          6           0       -2.230395   -0.555369   -0.023548
      6          6           0       -1.788372    0.925664   -0.100501
      7          6           0       -0.338939    0.838806   -0.596100
      8          8           0        0.629740    1.622768    0.158095
      9          6           0        1.165565    0.443823    0.777311
     10          1           0        2.968707   -0.870905    0.536765
     11          1           0        2.792946    0.376137   -0.745064
     12          1           0       -0.909380   -2.336715    0.050109
     13          1           0       -0.981316   -1.434860    1.561040
     14          1           0       -2.505468   -0.908631   -1.023890
     15          1           0       -3.104191   -0.699285    0.616960
     16          1           0       -2.434760    1.531117   -0.740890
     17          1           0       -1.786493    1.380090    0.896145
     18          1           0       -0.225415    0.980307   -1.675559
     19          1           0        1.286892    0.538516    1.858357
 ---------------------------------------------------------------------

 SCF Done:  E(RB3LYP) =  -423.158809420     A.U. after    1 cycles

 The electronic state is 1-A.
 Alpha  occ. eigenvalues --  -19.13721 -19.13617 -10.23551 -10.23514 -10.22998
 Alpha  occ. eigenvalues --  -10.22697 -10.18879 -10.18661 -10.18359  -1.06561
 Alpha  occ. eigenvalues --   -1.01157  -0.82561  -0.72636  -0.70963  -0.69133
 Alpha  occ. eigenvalues --   -0.62067  -0.58703  -0.51843  -0.50836  -0.49733
 Alpha  occ. eigenvalues --   -0.47997  -0.44524  -0.43322  -0.42124  -0.40197
 Alpha  occ. eigenvalues --   -0.37534  -0.36684  -0.34953  -0.34319  -0.33519
 Alpha  occ. eigenvalues --   -0.32111  -0.28302  -0.25734  -0.23583
 Alpha virt. eigenvalues --    0.05173   0.08176   0.10311   0.11609   0.12083
 Alpha virt. eigenvalues --    0.14283   0.14640   0.14954   0.16538   0.16606
 Alpha virt. eigenvalues --    0.17664   0.18703   0.19060   0.19430   0.21663

 Mulliken charges:
               1
     1  C   -0.108496
     2  O   -0.338407
     3  C    0.429861
     4  C   -0.326524
     5  C   -0.208241
     6  C   -0.243855
     7  C    0.068175
     8  O   -0.312049
     9  C   -0.009162
    10  H    0.105448
    11  H    0.113209
    12  H    0.120644
    13  H    0.108393
    14  H    0.109199
    15  H    0.102845
    16  H    0.104001
    17  H    0.112599
    18  H    0.086431
    19  H    0.085928
 Sum of Mulliken charges =   0.00000

 Dipole moment (field-independent basis, Debye):
    X=             -0.8487    Y=             -0.5234    Z=              0.9366  Tot=              1.3680
 Quadrupole moment (field-independent basis, Debye-Ang):
   XX=            -49.3606   YY=            -58.4445   ZZ=            -51.6043
   XY=              0.2330   XZ=              2.1219   YZ=             -2.2786

  Exact polarizability:  88.058  -0.731  68.468   2.405  -2.054  65.355
 Approx polarizability: 112.332  -0.376 103.302   3.644   0.281 101.432

                      1                      2                      3
                      A                      A                      A
 Frequencies --    102.3857               166.9348               225.9102
 Red. masses --      2.5471                 2.0692                 2.5856
 Frc consts  --      0.0157                 0.0340                 0.0777
 IR Inten    --      1.7294                 0.7602                 3.6407

                      4                      5                      6
                      A                      A                      A
 Frequencies --    335.8383               366.6618               465.4511
 Red. masses --      2.6380                 3.7879                 3.9304
 Frc consts  --      0.1753                 0.3000                 0.5017
 IR Inten    --      2.0841                 3.5672                 0.2111

                      7                      8                      9
                      A                      A                      A
 Frequencies --    480.6789               542.7610               671.8140
 Red. masses --      3.2106                 2.1171                 3.6814
 Frc consts  --      0.4371                 0.3675                 0.9790
 IR Inten    --      5.4547                 0.5828                 3.8989

                     10                     11                     12
                      A                      A                      A
 Frequencies --    741.2237               805.0878               834.8789
 Red. masses --      2.4420                 2.2328                 2.0751
 Frc consts  --      0.7905                 0.8527                 0.8522
 IR Inten    --      4.3250                 5.7108                 8.4485

                     13                     14                     15
                      A                      A                      A
 Frequencies --    846.6201               878.5005               902.1460
 Red. masses --      2.2757                 2.4970                 2.2001
 Frc consts  --      0.9611                 1.1354                 1.0550
 IR Inten    --      7.2753                 1.0776                 7.1098

                     16                     17                     18
                      A                      A                      A
 Frequencies --    925.8776               972.6344               991.6200
 Red. masses --      2.0923                 2.4088                 6.4296
 Frc consts  --      1.0568                 1.3426                 3.7250
 IR Inten    --     12.2033                24.1993                55.1763

                     19                     20                     21
                      A                      A                      A
 Frequencies --   1001.2435              1005.2169              1045.6954
 Red. masses --      2.7446                 1.9760                 2.9265
 Frc consts  --      1.6211                 1.1764                 1.8854
 IR Inten    --      6.2988                12.3291                56.5409

                     22                     23                     24
                      A                      A                      A
 Frequencies --   1082.3382              1101.7245              1110.8133
 Red. masses --      2.2546                 2.5256                 2.4207
 Frc consts  --      1.5561                 1.8062                 1.7598
 IR Inten    --     12.5801                50.3239                 4.2336

                     25                     26                     27
                      A                      A                      A
 Frequencies --   1139.6614              1169.7628              1183.4271
 Red. masses --      1.8007                 1.2516                 1.6368
 Frc consts  --      1.3780                 1.0090                 1.3506
 IR Inten    --      7.3401                 4.4459                 0.5812

                     28                     29                     30
                      A                      A                      A
 Frequencies --   1200.7876              1225.3968              1259.6305
 Red. masses --      1.8204                 1.4679                 1.5162
 Frc consts  --      1.5465                 1.2986                 1.4174
 IR Inten    --     16.8234                 0.0253                18.5085

                     31                     32                     33
                      A                      A                      A
 Frequencies --   1281.5715              1307.6701              1317.1867
 Red. masses --      1.7046                 1.3199                 1.4133
 Frc consts  --      1.6495                 1.3298                 1.4447
 IR Inten    --      5.5840                12.0574                 1.7193

                     34                     35                     36
                      A                      A                      A
 Frequencies --   1333.0954              1340.6141              1352.5755
 Red. masses --      1.5959                 1.4215                 1.5902
 Frc consts  --      1.6711                 1.5052                 1.7140
 IR Inten    --     12.0270                 5.6970                 0.5615

                     37                     38                     39
                      A                      A                      A
 Frequencies --   1369.5486              1477.2126              1488.0077
 Red. masses --      1.6221                 1.0813                 1.0853
 Frc consts  --      1.7926                 1.3903                 1.4158
 IR Inten    --      0.7630                 2.4945                 4.5190

                     40                     41                     42
                      A                      A                      A
 Frequencies --   1502.1647              1503.2316              3023.8438
 Red. masses --      1.1011                 1.1077                 1.0572
 Frc consts  --      1.4639                 1.4747                 5.6955
 IR Inten    --      1.5318                 1.9950                64.9506

                     43                     44                     45
                      A                      A                      A
 Frequencies --   3043.0094              3049.4448              3051.8077
 Red. masses --      1.0676                 1.0637                 1.0614
 Frc consts  --      5.8244                 5.8276                 5.8241
 IR Inten    --     23.1613                24.7587                13.7987

                     46                     47                     48
                      A                      A                      A
 Frequencies --   3061.1560              3082.4959              3091.9881
 Red. masses --      1.0867                 1.1053                 1.0941
 Frc consts  --      6.0000                 6.1879                 6.1630
 IR Inten    --     26.9367                17.4287                52.8745

                     49                     50                     51
                      A                      A                      A
 Frequencies --   3094.0372              3102.2884              3109.4387
 Red. masses --      1.0949                 1.1015                 1.1049
 Frc consts  --      6.1755                 6.2458                 6.2942
 IR Inten    --     15.1155                19.5393                45.2596

 - Thermochemistry -
 -------------------
 Temperature   298.150 Kelvin.  Pressure   1.00000 Atm.
 Atom     1 has atomic number  6 and mass  12.00000

 Molecular mass:   126.06808 amu.
 Principal axes and moments of inertia in atomic units:
                           1         2         3
     Eigenvalues --   578.525911075.434431406.06230
           X            0.99996   0.00590   0.00632
           Y           -0.00569   0.99941  -0.03377
           Z           -0.00651   0.03374   0.99941
 This molecule is an asymmetric top.
 Rotational symmetry number  1.
 Warning -- assumption of classical behavior for rotation
           may cause significant error
 Rotational temperatures (Kelvin)      0.14971     0.08054     0.06160
 Rotational constants (GHZ):           3.11955     1.67815     1.28354
 Zero-point vibrational energy     423269.4 (Joules/Mol)
                                  101.16380 (Kcal/Mol)
 Warning -- explicit consideration of   8 degrees of freedom as
           vibrations may cause significant error
 Vibrational temperatures:    147.31   240.18   325.03   483.20   527.54
          (Kelvin)            669.68   691.59   780.91   966.59  1066.45
                             1158.34  1201.20  1218.10  1263.96  1297.99
                             1332.13  1399.40  1426.72  1440.56  1446.28
                             1504.52  1557.24  1585.13  1598.21  1639.72
                             1683.03  1702.69  1727.66  1763.07  1812.33
                             1843.89  1881.44  1895.14  1918.02  1928.84
                             1946.05  1970.47  2125.38  2140.91  2161.28
                             2162.81  4350.63  4378.21  4387.47  4390.87
                             4404.32  4435.02  4448.68  4451.62  4463.50
                             4473.78

 Zero-point correction=                           0.161215 (Hartree/Particle)
 Thermal correction to Energy=                    0.168364
 Thermal correction to Enthalpy=                  0.169308
 Thermal correction to Gibbs Free Energy=         0.129633
 Sum of electronic and zero-point Energies=           -422.997595
 Sum of electronic and thermal Energies=              -422.990446
 Sum of electronic and thermal Enthalpies=            -422.989502
 Sum of electronic and thermal Free Energies=         -423.029177

                     E (Thermal)             CV                S
                      KCal/Mol        Cal/Mol-Kelvin    Cal/Mol-Kelvin
 Total                  105.650             28.680             83.504
 Electronic               0.000              0.000              0.000
 Translational            0.889              2.981             40.409
 Rotational               0.889              2.981             28.261
 Vibrational            103.872             22.718             14.834
 Vibration     1          0.604              1.947              3.408
 Vibration     2          0.624              1.883              2.470
 Vibration     3          0.650              1.802              1.911
 Vibration     4          0.717              1.604              1.232
 Vibration     5          0.740              1.541              1.094
 Vibration     6          0.823              1.327              0.750
 Vibration     7          0.837              1.293              0.708
 Vibration     8          0.898              1.156              0.559

 Optimization completed.
    -- Stationary point found.
 Normal termination of Gaussian 09 at Mon Jan 27 13:05:38 2020.
