 Gaussian 09, Revision D.01,
 Gaussian 09:  ES64L-G09RevD.01 24-Apr-2013

 -----------------------------
 # b3lyp 6-31G(2df,p) opt Freq
 -----------------------------

 -----
 titel
 -----
 Symbolic Z-matrix:
 Charge =  0 Multiplicity = 1

 SCF Done:  E(RB3LYP) =  -423.112546831     A.U. after   14 cycles
 SCF Done:  E(RB3LYP) =  -423.112546972     A.U. after    6 cycles
 SCF Done:  E(RB3LYP) =  -423.112547026     A.U. after    6 cycles
 Optimization completed.
    -- Stationary point found.
 Normal termination of Gaussian 09 at Tue Jan 28 02:04:51 2020.

 ----------------------------------------------------------------------
 #N Geom=AllCheck Guess=TCheck SCRF=Check GenChk RB3LYP/6-31G(2df,p) Fr
 eq
 ----------------------------------------------------------------------

 Structure from the checkpoint file:  "/scratch/puck/g09_16b4ef96-d6d6-4c20-9f93-fb865d3f0f2e/Gau-26415.chk"
 -----
 titel
 -----
 Charge =  0 Multiplicity = 1

                         Standard orientation:
 ---------------------------------------------------------------------
 Center     Atomic      Atomic             Coordinates (Angstroms)
 Number     Number       Type             X           Y           Z
 ---------------------------------------------------------------------
      1          6           0        1.111188   -1.482012    1.080945
      2          6           0        0.918792   -0.415145    0.027275
      3          6           0        2.094737    0.413214   -0.415667
      4          6           0        1.007366    1.053838    0.411678
      5          8           0        0.225325    2.000090   -0.238848
      6          8           0        0.058582   -0.745985   -1.038799
      7          6           0       -1.254630   -1.150641   -0.693569
      8          6           0       -2.042361   -0.159673    0.049231
      9          6           0       -2.699730    0.637274    0.666924
     10          1           0        0.193701   -1.678621    1.646397
     11          1           0        1.447038   -2.420360    0.625543
     12          1           0        1.872092   -1.165433    1.799134
     13          1           0        3.068146    0.221218    0.021981
     14          1           0        2.095625    0.702299   -1.460182
     15          1           0        1.226254    1.269468    1.459272
     16          1           0       -0.699980    1.778619   -0.073338
     17          1           0       -1.746879   -1.361527   -1.648595
     18          1           0       -1.246388   -2.090182   -0.121741
     19          1           0       -3.293039    1.330548    1.211801
 ---------------------------------------------------------------------

 SCF Done:  E(RB3LYP) =  -423.112547026     A.U. after    1 cycles

 The electronic state is 1-A.
 Alpha  occ. eigenvalues --  -19.15423 -19.12636 -10.26319 -10.23786 -10.22531
 Alpha  occ. eigenvalues --  -10.20277 -10.19611 -10.18362 -10.17542  -1.05004
 Alpha  occ. eigenvalues --   -1.01092  -0.84402  -0.78039  -0.71787  -0.70779
 Alpha  occ. eigenvalues --   -0.59201  -0.58281  -0.54113  -0.52685  -0.49449
 Alpha  occ. eigenvalues --   -0.48573  -0.46490  -0.44371  -0.41798  -0.40480
 Alpha  occ. eigenvalues --   -0.39196  -0.37601  -0.35359  -0.31119  -0.30991
 Alpha  occ. eigenvalues --   -0.29606  -0.28088  -0.25742  -0.23522
 Alpha virt. eigenvalues --    0.01727   0.03849   0.08961   0.10194   0.11259
 Alpha virt. eigenvalues --    0.11980   0.13439   0.14635   0.15204   0.16421
 Alpha virt. eigenvalues --    0.17711   0.18600   0.19493   0.20497   0.22242

 Mulliken charges:
               1
     1  C   -0.470348
     2  C    0.402343
     3  C   -0.361184
     4  C    0.054305
     5  O   -0.425956
     6  O   -0.275383
     7  C   -0.225436
     8  C    0.309122
     9  C   -0.472069
    10  H    0.121734
    11  H    0.124892
    12  H    0.124456
    13  H    0.108291
    14  H    0.133063
    15  H    0.076867
    16  H    0.287065
    17  H    0.146932
    18  H    0.129187
    19  H    0.212120
 Sum of Mulliken charges =   0.00000

 Dipole moment (field-independent basis, Debye):
    X=             -1.2067    Y=             -1.5884    Z=              1.5872  Tot=              2.5492
 Quadrupole moment (field-independent basis, Debye-Ang):
   XX=            -47.7164   YY=            -55.1502   ZZ=            -53.0069
   XY=             -2.5974   XZ=              0.2709   YZ=              2.3076

  Exact polarizability:  88.107  -4.941  76.475  -4.709   4.660  66.219
 Approx polarizability: 119.352 -12.129 116.634 -12.596  13.868 103.735

                      1                      2                      3
                      A                      A                      A
 Frequencies --     61.0487               121.4034               171.5763
 Red. masses --      3.4546                 4.6670                 3.8301
 Frc consts  --      0.0076                 0.0405                 0.0664
 IR Inten    --      0.5378                 0.4677                 3.4505

                      4                      5                      6
                      A                      A                      A
 Frequencies --    206.0734               220.6709               272.2620
 Red. masses --      1.9087                 1.7394                 3.3201
 Frc consts  --      0.0478                 0.0499                 0.1450
 IR Inten    --      1.3124                 0.3729                 9.9852

                      7                      8                      9
                      A                      A                      A
 Frequencies --    287.7127               339.8097               350.9997
 Red. masses --      2.8543                 2.3269                 2.2760
 Frc consts  --      0.1392                 0.1583                 0.1652
 IR Inten    --      0.3518                 3.4448                 8.9478

                     10                     11                     12
                      A                      A                      A
 Frequencies --    389.6336               437.6103               472.6031
 Red. masses --      1.4341                 3.3199                 1.9783
 Frc consts  --      0.1283                 0.3746                 0.2603
 IR Inten    --     51.6574                 9.7558                 3.5924

                     13                     14                     15
                      A                      A                      A
 Frequencies --    544.9536               622.4073               640.9556
 Red. masses --      4.4015                 1.2197                 4.5326
 Frc consts  --      0.7701                 0.2784                 1.0971
 IR Inten    --      2.2340                44.2123                 2.3471

                     16                     17                     18
                      A                      A                      A
 Frequencies --    691.2346               709.1526               812.5699
 Red. masses --      1.2580                 4.0861                 2.3355
 Frc consts  --      0.3541                 1.2107                 0.9086
 IR Inten    --     47.2371                 5.9351                10.2593

                     19                     20                     21
                      A                      A                      A
 Frequencies --    866.1777               912.1371               927.9613
 Red. masses --      1.7874                 2.3250                 2.1995
 Frc consts  --      0.7901                 1.1397                 1.1159
 IR Inten    --     10.8140                 4.2159                 4.4190

                     22                     23                     24
                      A                      A                      A
 Frequencies --    947.6776              1033.1145              1043.4968
 Red. masses --      2.0290                 1.8090                 1.8313
 Frc consts  --      1.0736                 1.1376                 1.1749
 IR Inten    --     13.4335                 1.8643                 7.7002

                     25                     26                     27
                      A                      A                      A
 Frequencies --   1050.0918              1094.9486              1123.4738
 Red. masses --      1.3704                 5.4140                 1.5435
 Frc consts  --      0.8903                 3.8243                 1.1479
 IR Inten    --      8.8013               100.5201                14.0755

                     28                     29                     30
                      A                      A                      A
 Frequencies --   1132.8257              1195.1987              1245.7940
 Red. masses --      1.8428                 3.1365                 2.2350
 Frc consts  --      1.3934                 2.6398                 2.0437
 IR Inten    --      2.6810                54.6032                41.5382

                     31                     32                     33
                      A                      A                      A
 Frequencies --   1293.6636              1312.5549              1345.7251
 Red. masses --      1.2476                 1.6279                 1.2677
 Frc consts  --      1.2302                 1.6524                 1.3526
 IR Inten    --     32.9276                19.4971                55.2388

                     34                     35                     36
                      A                      A                      A
 Frequencies --   1396.8806              1409.0332              1424.0626
 Red. masses --      1.3143                 1.2254                 1.4201
 Frc consts  --      1.5110                 1.4334                 1.6968
 IR Inten    --     14.2527                11.0284                 6.2244

                     37                     38                     39
                      A                      A                      A
 Frequencies --   1475.6096              1477.0537              1492.4452
 Red. masses --      1.1601                 1.3725                 1.0921
 Frc consts  --      1.4883                 1.7642                 1.4332
 IR Inten    --     14.3758                14.4063                 0.2718

                     40                     41                     42
                      A                      A                      A
 Frequencies --   1507.2797              2221.9551              3001.6252
 Red. masses --      1.1204                 5.8986                 1.0677
 Frc consts  --      1.4998                17.1580                 5.6677
 IR Inten    --      4.6346                 1.7024                26.3983

                     43                     44                     45
                      A                      A                      A
 Frequencies --   3030.6678              3074.0437              3076.4817
 Red. masses --      1.0370                 1.0912                 1.0870
 Frc consts  --      5.6119                 6.0756                 6.0619
 IR Inten    --     28.0431                 9.6075                40.1801

                     46                     47                     48
                      A                      A                      A
 Frequencies --   3092.3873              3115.3580              3138.0742
 Red. masses --      1.1014                 1.0986                 1.0553
 Frc consts  --      6.2058                 6.2821                 6.1230
 IR Inten    --     22.5766                17.9120                 9.7119

                     49                     50                     51
                      A                      A                      A
 Frequencies --   3234.9785              3496.8703              3753.8240
 Red. masses --      1.1169                 1.1621                 1.0657
 Frc consts  --      6.8867                 8.3725                 8.8473
 IR Inten    --      4.9356                67.3078               128.1851

 - Thermochemistry -
 -------------------
 Temperature   298.150 Kelvin.  Pressure   1.00000 Atm.
 Atom     1 has atomic number  6 and mass  12.00000

 Molecular mass:   126.06808 amu.
 Principal axes and moments of inertia in atomic units:
                           1         2         3
     Eigenvalues --   797.662041237.310621590.57710
           X            0.99964  -0.02400   0.01167
           Y            0.02420   0.99956  -0.01692
           Z           -0.01126   0.01720   0.99979
 This molecule is an asymmetric top.
 Rotational symmetry number  1.
 Warning -- assumption of classical behavior for rotation
           may cause significant error
 Rotational temperatures (Kelvin)      0.10858     0.07000     0.05445
 Rotational constants (GHZ):           2.26254     1.45860     1.13465
 Zero-point vibrational energy     408501.7 (Joules/Mol)
                                   97.63425 (Kcal/Mol)
 Warning -- explicit consideration of  13 degrees of freedom as
           vibrations may cause significant error
 Vibrational temperatures:     87.84   174.67   246.86   296.49   317.50
          (Kelvin)            391.72   413.95   488.91   505.01   560.60
                              629.62   679.97   784.07   895.50   922.19
                              994.53  1020.31  1169.11  1246.23  1312.36
                             1335.13  1363.50  1486.42  1501.36  1510.85
                             1575.38  1616.43  1629.88  1719.62  1792.42
                             1861.29  1888.47  1936.20  2009.80  2027.28
                             2048.91  2123.07  2125.15  2147.29  2168.64
                             3196.89  4318.66  4360.45  4422.86  4426.37
                             4449.25  4482.30  4514.98  4654.41  5031.21
                             5400.91

 Zero-point correction=                           0.155590 (Hartree/Particle)
 Thermal correction to Energy=                    0.165335
 Thermal correction to Enthalpy=                  0.166279
 Thermal correction to Gibbs Free Energy=         0.121345
 Sum of electronic and zero-point Energies=           -422.956957
 Sum of electronic and thermal Energies=              -422.947212
 Sum of electronic and thermal Enthalpies=            -422.946268
 Sum of electronic and thermal Free Energies=         -422.991202

                     E (Thermal)             CV                S
                      KCal/Mol        Cal/Mol-Kelvin    Cal/Mol-Kelvin
 Total                  103.749             36.697             94.572
 Electronic               0.000              0.000              0.000
 Translational            0.889              2.981             40.409
 Rotational               0.889              2.981             28.842
 Vibrational            101.972             30.735             25.321
 Vibration     1          0.597              1.973              4.423
 Vibration     2          0.609              1.931              3.078
 Vibration     3          0.626              1.877              2.418
 Vibration     4          0.641              1.831              2.078
 Vibration     5          0.647              1.810              1.954
 Vibration     6          0.675              1.724              1.582
 Vibration     7          0.685              1.697              1.487
 Vibration     8          0.720              1.596              1.213
 Vibration     9          0.728              1.573              1.162
 Vibration    10          0.758              1.492              1.002
 Vibration    11          0.798              1.388              0.834
 Vibration    12          0.829              1.311              0.730
 Vibration    13          0.900              1.151              0.555

 Optimization completed.
    -- Stationary point found.
 Normal termination of Gaussian 09 at Tue Jan 28 02:50:32 2020.
