 Gaussian 09, Revision D.01,
 Gaussian 09:  ES64L-G09RevD.01 24-Apr-2013

 -----------------------------
 # b3lyp 6-31G(2df,p) opt Freq
 -----------------------------

 -----
 titel
 -----
 Symbolic Z-matrix:
 Charge =  0 Multiplicity = 1

 SCF Done:  E(RB3LYP) =  -423.181513644     A.U. after   14 cycles
 Optimization completed.
    -- Stationary point found.
 Normal termination of Gaussian 09 at Tue Jan 28 02:51:14 2020.

 ----------------------------------------------------------------------
 #N Geom=AllCheck Guess=TCheck SCRF=Check GenChk RB3LYP/6-31G(2df,p) Fr
 eq
 ----------------------------------------------------------------------

 Structure from the checkpoint file:  "/scratch/puck/g09_408b64a7-2292-4a9b-90f5-c114aab39328/Gau-60106.chk"
 -----
 titel
 -----
 Charge =  0 Multiplicity = 1

                         Standard orientation:
 ---------------------------------------------------------------------
 Center     Atomic      Atomic             Coordinates (Angstroms)
 Number     Number       Type             X           Y           Z
 ---------------------------------------------------------------------
      1          6           0       -2.662520    0.687079   -0.009183
      2          6           0       -1.798786   -0.558433   -0.023274
      3          6           0       -0.730436   -0.679429    1.088038
      4          6           0        0.274399   -0.430346   -0.061948
      5          6           0        1.573329   -1.259697   -0.246307
      6          6           0        2.437983   -0.028240    0.160229
      7          6           0        1.165665    0.833105    0.033699
      8          8           0        0.941890    2.006081   -0.037145
      9          8           0       -0.758855   -0.486303   -1.040798
     10          1           0       -3.393616    0.637136    0.805468
     11          1           0       -2.041174    1.578196    0.122748
     12          1           0       -3.207111    0.783010   -0.953450
     13          1           0       -2.408824   -1.457108   -0.172277
     14          1           0       -0.767917    0.081607    1.869670
     15          1           0       -0.646823   -1.670191    1.538474
     16          1           0        1.662886   -2.153426    0.373620
     17          1           0        1.705538   -1.533921   -1.295527
     18          1           0        2.813758   -0.060079    1.187779
     19          1           0        3.261201    0.252322   -0.500492
 ---------------------------------------------------------------------

 SCF Done:  E(RB3LYP) =  -423.181513644     A.U. after    1 cycles

 The electronic state is 1-A.
 Alpha  occ. eigenvalues --  -19.14205 -19.13998 -10.26622 -10.24395 -10.24094
 Alpha  occ. eigenvalues --  -10.19734 -10.19611 -10.19379 -10.17566  -1.05499
 Alpha  occ. eigenvalues --   -1.04070  -0.84019  -0.76579  -0.72014  -0.65257
 Alpha  occ. eigenvalues --   -0.63278  -0.57280  -0.51007  -0.49564  -0.48851
 Alpha  occ. eigenvalues --   -0.46681  -0.45287  -0.43338  -0.40488  -0.40021
 Alpha  occ. eigenvalues --   -0.39022  -0.38139  -0.36702  -0.36110  -0.35188
 Alpha  occ. eigenvalues --   -0.31541  -0.30935  -0.27673  -0.22766
 Alpha virt. eigenvalues --   -0.03172   0.08931   0.09142   0.11048   0.11462
 Alpha virt. eigenvalues --    0.13317   0.13489   0.15122   0.15530   0.16310
 Alpha virt. eigenvalues --    0.17211   0.17709   0.19404   0.19757   0.20996

 Mulliken charges:
               1
     1  C   -0.399924
     2  C    0.145566
     3  C   -0.366218
     4  C    0.358355
     5  C   -0.320566
     6  C   -0.348568
     7  C    0.345867
     8  O   -0.299252
     9  O   -0.318656
    10  H    0.113328
    11  H    0.143129
    12  H    0.127702
    13  H    0.078993
    14  H    0.120700
    15  H    0.114166
    16  H    0.107319
    17  H    0.128383
    18  H    0.133336
    19  H    0.136340
 Sum of Mulliken charges =   0.00000

 Dipole moment (field-independent basis, Debye):
    X=              0.1071    Y=             -2.4690    Z=              1.6927  Tot=              2.9954
 Quadrupole moment (field-independent basis, Debye-Ang):
   XX=            -47.6909   YY=            -58.2861   ZZ=            -53.2376
   XY=             -1.9565   XZ=             -1.2600   YZ=             -0.7425

  Exact polarizability:  91.814  -2.166  74.490  -0.389  -0.867  62.518
 Approx polarizability: 114.296  -2.164 115.377   0.361  -1.042  97.894

                      1                      2                      3
                      A                      A                      A
 Frequencies --     54.4819                74.6081               164.4627
 Red. masses --      3.6642                 2.7158                 3.1650
 Frc consts  --      0.0064                 0.0089                 0.0504
 IR Inten    --      2.5147                 2.3155                 1.8341

                      4                      5                      6
                      A                      A                      A
 Frequencies --    239.2768               256.5247               272.0313
 Red. masses --      1.6623                 5.8775                 1.3690
 Frc consts  --      0.0561                 0.2279                 0.0597
 IR Inten    --      0.1524                 1.7938                 0.2320

                      7                      8                      9
                      A                      A                      A
 Frequencies --    371.7808               384.8406               493.9011
 Red. masses --      2.0634                 3.4541                 2.3888
 Frc consts  --      0.1680                 0.3014                 0.3433
 IR Inten    --      0.5399                 2.6897                 1.0363

                     10                     11                     12
                      A                      A                      A
 Frequencies --    522.2102               581.9850               698.2825
 Red. masses --      2.3660                 4.2243                 2.9166
 Frc consts  --      0.3802                 0.8430                 0.8379
 IR Inten    --      2.0146                10.1034                 2.0012

                     13                     14                     15
                      A                      A                      A
 Frequencies --    748.2078               795.7296               828.1261
 Red. masses --      1.5071                 2.5613                 2.5245
 Frc consts  --      0.4971                 0.9555                 1.0200
 IR Inten    --      2.9347                 4.0851                 8.1889

                     16                     17                     18
                      A                      A                      A
 Frequencies --    874.6647               909.1055               915.3576
 Red. masses --      2.1752                 3.8020                 2.2392
 Frc consts  --      0.9805                 1.8514                 1.1054
 IR Inten    --      5.7056                22.2971                10.7068

                     19                     20                     21
                      A                      A                      A
 Frequencies --    936.1884               956.8993              1021.0474
 Red. masses --      2.4881                 1.7342                 2.0204
 Frc consts  --      1.2848                 0.9356                 1.2410
 IR Inten    --     13.7297                21.3973                47.1504

                     22                     23                     24
                      A                      A                      A
 Frequencies --   1055.1615              1072.5073              1098.1180
 Red. masses --      2.0368                 2.8162                 1.6057
 Frc consts  --      1.3361                 1.9086                 1.1408
 IR Inten    --     91.4330                43.1108                 5.9312

                     25                     26                     27
                      A                      A                      A
 Frequencies --   1141.0490              1153.5458              1191.9336
 Red. masses --      2.1862                 2.3448                 2.2184
 Frc consts  --      1.6771                 1.8383                 1.8569
 IR Inten    --      7.5591                21.0443                12.6007

                     28                     29                     30
                      A                      A                      A
 Frequencies --   1199.3857              1223.3630              1225.9512
 Red. masses --      1.7481                 1.5708                 1.2375
 Frc consts  --      1.4816                 1.3851                 1.0958
 IR Inten    --      3.8245                 1.6810                 1.7490

                     31                     32                     33
                      A                      A                      A
 Frequencies --   1253.5685              1281.7721              1313.6228
 Red. masses --      1.5230                 2.3358                 1.5095
 Frc consts  --      1.4100                 2.2610                 1.5347
 IR Inten    --      6.6073                 4.1731                 6.9651

                     34                     35                     36
                      A                      A                      A
 Frequencies --   1382.3157              1413.1568              1440.7486
 Red. masses --      1.3336                 1.3438                 1.0913
 Frc consts  --      1.5014                 1.5811                 1.3347
 IR Inten    --      9.7093                18.5077                 8.2289

                     37                     38                     39
                      A                      A                      A
 Frequencies --   1478.6280              1480.1619              1487.8267
 Red. masses --      1.1027                 1.0801                 1.0910
 Frc consts  --      1.4204                 1.3943                 1.4229
 IR Inten    --      5.1254                 3.9015                 2.0663

                     40                     41                     42
                      A                      A                      A
 Frequencies --   1499.9112              1888.0078              3031.2815
 Red. masses --      1.0514                12.8008                 1.0655
 Frc consts  --      1.3936                26.8841                 5.7683
 IR Inten    --      2.3319               199.6847                29.4511

                     43                     44                     45
                      A                      A                      A
 Frequencies --   3034.6888              3062.6599              3073.4035
 Red. masses --      1.0545                 1.0601                 1.0589
 Frc consts  --      5.7216                 5.8587                 5.8929
 IR Inten    --     36.6458                 9.5921                16.6953

                     46                     47                     48
                      A                      A                      A
 Frequencies --   3075.7700              3106.7179              3116.7522
 Red. masses --      1.0592                 1.1005                 1.1044
 Frc consts  --      5.9040                 6.2579                 6.3211
 IR Inten    --     16.4783                19.3577                 2.0287

                     49                     50                     51
                      A                      A                      A
 Frequencies --   3118.8933              3132.2385              3135.1593
 Red. masses --      1.1033                 1.1089                 1.1078
 Frc consts  --      6.3232                 6.4097                 6.4157
 IR Inten    --     17.4006                12.5460                18.8128

 - Thermochemistry -
 -------------------
 Temperature   298.150 Kelvin.  Pressure   1.00000 Atm.
 Atom     1 has atomic number  6 and mass  12.00000

 Molecular mass:   126.06808 amu.
 Principal axes and moments of inertia in atomic units:
                           1         2         3
     Eigenvalues --   612.216051333.076361633.97554
           X            0.99903  -0.04350  -0.00610
           Y            0.04341   0.99895  -0.01462
           Z            0.00673   0.01434   0.99987
 This molecule is an asymmetric top.
 Rotational symmetry number  1.
 Warning -- assumption of classical behavior for rotation
           may cause significant error
 Rotational temperatures (Kelvin)      0.14148     0.06497     0.05301
 Rotational constants (GHZ):           2.94788     1.35382     1.10451
 Zero-point vibrational energy     414314.7 (Joules/Mol)
                                   99.02359 (Kcal/Mol)
 Warning -- explicit consideration of  11 degrees of freedom as
           vibrations may cause significant error
 Vibrational temperatures:     78.39   107.34   236.62   344.27   369.08
          (Kelvin)            391.39   534.91   553.70   710.61   751.34
                              837.35  1004.67  1076.50  1144.88  1191.49
                             1258.45  1308.00  1316.99  1346.96  1376.76
                             1469.06  1518.14  1543.10  1579.94  1641.71
                             1659.69  1714.92  1725.65  1760.14  1763.87
                             1803.60  1844.18  1890.01  1988.84  2033.21
                             2072.91  2127.41  2129.62  2140.65  2158.04
                             2716.42  4361.33  4366.23  4406.48  4421.94
                             4425.34  4469.87  4484.31  4487.39  4506.59
                             4510.79

 Zero-point correction=                           0.157804 (Hartree/Particle)
 Thermal correction to Energy=                    0.166483
 Thermal correction to Enthalpy=                  0.167427
 Thermal correction to Gibbs Free Energy=         0.123929
 Sum of electronic and zero-point Energies=           -423.023710
 Sum of electronic and thermal Energies=              -423.015031
 Sum of electronic and thermal Enthalpies=            -423.014087
 Sum of electronic and thermal Free Energies=         -423.057584

                     E (Thermal)             CV                S
                      KCal/Mol        Cal/Mol-Kelvin    Cal/Mol-Kelvin
 Total                  104.470             32.481             91.549
 Electronic               0.000              0.000              0.000
 Translational            0.889              2.981             40.409
 Rotational               0.889              2.981             28.680
 Vibrational            102.692             26.520             22.461
 Vibration     1          0.596              1.976              4.648
 Vibration     2          0.599              1.966              4.028
 Vibration     3          0.623              1.886              2.498
 Vibration     4          0.657              1.780              1.808
 Vibration     5          0.666              1.752              1.685
 Vibration     6          0.675              1.725              1.583
 Vibration     7          0.743              1.530              1.072
 Vibration     8          0.754              1.503              1.020
 Vibration     9          0.850              1.264              0.674
 Vibration    10          0.877              1.201              0.605
 Vibration    11          0.939              1.070              0.482

 Optimization completed.
    -- Stationary point found.
 Normal termination of Gaussian 09 at Tue Jan 28 03:35:32 2020.
