 Gaussian 09, Revision D.01,
 Gaussian 09:  ES64L-G09RevD.01 24-Apr-2013

 -----------------------------
 # b3lyp 6-31G(2df,p) opt Freq
 -----------------------------

 -----
 titel
 -----
 Symbolic Z-matrix:
 Charge =  0 Multiplicity = 1

 SCF Done:  E(RB3LYP) =  -423.171145172     A.U. after   14 cycles
 Optimization completed.
    -- Stationary point found.
 Normal termination of Gaussian 09 at Tue Jan 28 12:39:43 2020.

 ----------------------------------------------------------------------
 #N Geom=AllCheck Guess=TCheck SCRF=Check GenChk RB3LYP/6-31G(2df,p) Fr
 eq
 ----------------------------------------------------------------------

 Structure from the checkpoint file:  "/scratch/puck/g09_00b03add-3133-4f53-a6cf-2dd70a5011ae/Gau-116067.chk"
 -----
 titel
 -----
 Charge =  0 Multiplicity = 1

                         Standard orientation:
 ---------------------------------------------------------------------
 Center     Atomic      Atomic             Coordinates (Angstroms)
 Number     Number       Type             X           Y           Z
 ---------------------------------------------------------------------
      1          8           0       -3.242403   -0.741539    0.212193
      2          6           0       -2.448010    0.420916    0.365047
      3          6           0       -1.016895    0.242495   -0.044120
      4          6           0       -0.408568   -0.908900   -0.357545
      5          6           0        1.035871   -0.717359   -0.656687
      6          6           0        1.861403   -0.177194    0.504119
      7          8           0        3.252169   -0.284548    0.453853
      8          6           0        1.276151    0.782797   -0.482461
      9          6           0       -0.069867    1.426972   -0.160092
     10          1           0       -3.192122   -0.999666   -0.714358
     11          1           0       -2.878326    1.278827   -0.182655
     12          1           0       -2.510253    0.685335    1.429321
     13          1           0       -0.889173   -1.879884   -0.338073
     14          1           0        1.546308   -1.299940   -1.415869
     15          1           0        1.417050   -0.242097    1.498991
     16          1           0        3.488386   -1.188013    0.689504
     17          1           0        1.987967    1.299462   -1.114569
     18          1           0       -0.035604    2.020495    0.763497
     19          1           0       -0.392870    2.115816   -0.953723
 ---------------------------------------------------------------------

 SCF Done:  E(RB3LYP) =  -423.171145172     A.U. after    1 cycles

 The electronic state is 1-A.
 Alpha  occ. eigenvalues --  -19.14253 -19.13643 -10.23219 -10.23153 -10.18894
 Alpha  occ. eigenvalues --  -10.18648 -10.18612 -10.18316 -10.17693  -1.02776
 Alpha  occ. eigenvalues --   -1.01826  -0.87842  -0.77390  -0.70540  -0.68172
 Alpha  occ. eigenvalues --   -0.59593  -0.56138  -0.53582  -0.53021  -0.49341
 Alpha  occ. eigenvalues --   -0.47371  -0.45042  -0.43782  -0.41440  -0.39556
 Alpha  occ. eigenvalues --   -0.37762  -0.36783  -0.36004  -0.32797  -0.32423
 Alpha  occ. eigenvalues --   -0.28424  -0.27477  -0.26449  -0.21845
 Alpha virt. eigenvalues --    0.01929   0.07797   0.08472   0.10827   0.11615
 Alpha virt. eigenvalues --    0.13847   0.14482   0.15325   0.16625   0.17380
 Alpha virt. eigenvalues --    0.18309   0.19007   0.19506   0.21182   0.23553

 Mulliken charges:
               1
     1  O   -0.407979
     2  C   -0.157402
     3  C    0.255220
     4  C   -0.189937
     5  C   -0.134296
     6  C    0.098378
     7  O   -0.428138
     8  C   -0.065473
     9  C   -0.334578
    10  H    0.282609
    11  H    0.091299
    12  H    0.123089
    13  H    0.096460
    14  H    0.086929
    15  H    0.083571
    16  H    0.286437
    17  H    0.097468
    18  H    0.111025
    19  H    0.105318
 Sum of Mulliken charges =   0.00000

 Dipole moment (field-independent basis, Debye):
    X=              0.1558    Y=             -0.3743    Z=             -0.7871  Tot=              0.8854
 Quadrupole moment (field-independent basis, Debye-Ang):
   XX=            -59.6447   YY=            -49.4956   ZZ=            -51.4221
   XY=             -6.6279   XZ=              4.0692   YZ=              0.7846

  Exact polarizability:  94.538  -6.901  78.547  -1.371   2.655  60.676
 Approx polarizability: 122.895 -12.435 127.803  -2.570   6.710  95.438

                      1                      2                      3
                      A                      A                      A
 Frequencies --     82.9614               136.8949               179.5987
 Red. masses --      4.9701                 2.3970                 4.5749
 Frc consts  --      0.0202                 0.0265                 0.0869
 IR Inten    --      3.5639                 1.7414                 0.6958

                      4                      5                      6
                      A                      A                      A
 Frequencies --    267.4765               306.0410               309.2897
 Red. masses --      1.8839                 2.1391                 1.9887
 Frc consts  --      0.0794                 0.1180                 0.1121
 IR Inten    --     29.6501                21.8564                35.1824

                      7                      8                      9
                      A                      A                      A
 Frequencies --    343.1434               365.6297               394.5384
 Red. masses --      1.3958                 1.9142                 3.0638
 Frc consts  --      0.0968                 0.1508                 0.2810
 IR Inten    --    105.9266                41.3468                18.9723

                     10                     11                     12
                      A                      A                      A
 Frequencies --    460.3696               498.7736               677.7933
 Red. masses --      2.5306                 3.7729                 3.6917
 Frc consts  --      0.3160                 0.5530                 0.9993
 IR Inten    --      3.8859                18.3367                 3.2824

                     13                     14                     15
                      A                      A                      A
 Frequencies --    726.4640               820.7886               853.0331
 Red. masses --      4.3821                 2.5914                 1.8025
 Frc consts  --      1.3626                 1.0286                 0.7728
 IR Inten    --      0.9104                 5.1818                13.1242

                     16                     17                     18
                      A                      A                      A
 Frequencies --    860.6784               883.4411               926.3547
 Red. masses --      2.0058                 2.6290                 2.2179
 Frc consts  --      0.8754                 1.2089                 1.1214
 IR Inten    --      6.7809                 5.1611                 3.7672

                     19                     20                     21
                      A                      A                      A
 Frequencies --    964.8887               992.5027              1015.2086
 Red. masses --      1.6068                 1.5582                 2.0136
 Frc consts  --      0.8814                 0.9044                 1.2228
 IR Inten    --     10.5854                12.8465                 3.5529

                     22                     23                     24
                      A                      A                      A
 Frequencies --   1034.3030              1063.1650              1069.4060
 Red. masses --      1.8800                 1.4229                 3.5676
 Frc consts  --      1.1850                 0.9476                 2.4038
 IR Inten    --     22.7762                 4.6663                53.1851

                     25                     26                     27
                      A                      A                      A
 Frequencies --   1089.3708              1145.7420              1165.7504
 Red. masses --      1.2455                 3.3035                 1.8685
 Frc consts  --      0.8709                 2.5551                 1.4961
 IR Inten    --      5.0623               114.4704                 4.7775

                     28                     29                     30
                      A                      A                      A
 Frequencies --   1177.1468              1194.9892              1218.2910
 Red. masses --      1.3933                 1.8388                 1.1820
 Frc consts  --      1.1375                 1.5471                 1.0336
 IR Inten    --     10.5563                 4.6910                 7.1563

                     31                     32                     33
                      A                      A                      A
 Frequencies --   1256.7516              1279.4987              1303.1209
 Red. masses --      1.3411                 1.3164                 1.7601
 Frc consts  --      1.2480                 1.2697                 1.7610
 IR Inten    --      4.6118                72.7808                 2.5434

                     34                     35                     36
                      A                      A                      A
 Frequencies --   1318.4301              1338.9012              1387.0253
 Red. masses --      1.8345                 1.4803                 1.3319
 Frc consts  --      1.8788                 1.5635                 1.5097
 IR Inten    --     25.7827                11.6417                10.5925

                     37                     38                     39
                      A                      A                      A
 Frequencies --   1420.8580              1451.6350              1481.0475
 Red. masses --      1.4143                 2.2193                 1.1063
 Frc consts  --      1.6822                 2.7554                 1.4297
 IR Inten    --     56.1264                12.8961                 1.2871

                     40                     41                     42
                      A                      A                      A
 Frequencies --   1493.7502              1696.6254              2941.8441
 Red. masses --      1.0859                 7.0299                 1.0730
 Frc consts  --      1.4276                11.9226                 5.4712
 IR Inten    --      1.1864                 2.1638                62.7438

                     43                     44                     45
                      A                      A                      A
 Frequencies --   3004.0283              3029.5191              3033.8233
 Red. masses --      1.0623                 1.0888                 1.0955
 Frc consts  --      5.6484                 5.8878                 5.9410
 IR Inten    --     52.3986                 7.0621                39.0266

                     46                     47                     48
                      A                      A                      A
 Frequencies --   3082.4003              3169.6275              3191.9424
 Red. masses --      1.0878                 1.0892                 1.0907
 Frc consts  --      6.0896                 6.4474                 6.5472
 IR Inten    --     28.5353                17.5737                10.9500

                     49                     50                     51
                      A                      A                      A
 Frequencies --   3203.8204              3802.1659              3808.6069
 Red. masses --      1.0935                 1.0661                 1.0659
 Frc consts  --      6.6128                 9.0806                 9.1095
 IR Inten    --      8.5354                24.9685                14.6840

 - Thermochemistry -
 -------------------
 Temperature   298.150 Kelvin.  Pressure   1.00000 Atm.
 Atom     1 has atomic number  8 and mass  15.99491

 Molecular mass:   126.06808 amu.
 Principal axes and moments of inertia in atomic units:
                           1         2         3
     Eigenvalues --   392.924772046.518742234.28333
           X            0.99993  -0.01150  -0.00016
           Y            0.01150   0.99981   0.01556
           Z           -0.00002  -0.01556   0.99988
 This molecule is an asymmetric top.
 Rotational symmetry number  1.
 Rotational temperatures (Kelvin)      0.22043     0.04232     0.03877
 Rotational constants (GHZ):           4.59310     0.88186     0.80775
 Zero-point vibrational energy     418211.2 (Joules/Mol)
                                   99.95488 (Kcal/Mol)
 Warning -- explicit consideration of  11 degrees of freedom as
           vibrations may cause significant error
 Vibrational temperatures:    119.36   196.96   258.40   384.84   440.32
          (Kelvin)            445.00   493.71   526.06   567.65   662.37
                              717.62   975.19  1045.22  1180.93  1227.32
                             1238.32  1271.07  1332.82  1388.26  1427.99
                             1460.66  1488.13  1529.66  1538.63  1567.36
                             1648.47  1677.25  1693.65  1719.32  1752.85
                             1808.18  1840.91  1874.90  1896.92  1926.38
                             1995.62  2044.30  2088.58  2130.89  2149.17
                             2441.06  4232.65  4322.12  4358.80  4364.99
                             4434.88  4560.38  4592.49  4609.58  5470.46
                             5479.73

 Zero-point correction=                           0.159288 (Hartree/Particle)
 Thermal correction to Energy=                    0.167881
 Thermal correction to Enthalpy=                  0.168826
 Thermal correction to Gibbs Free Energy=         0.126120
 Sum of electronic and zero-point Energies=           -423.011857
 Sum of electronic and thermal Energies=              -423.003264
 Sum of electronic and thermal Enthalpies=            -423.002320
 Sum of electronic and thermal Free Energies=         -423.045026

                     E (Thermal)             CV                S
                      KCal/Mol        Cal/Mol-Kelvin    Cal/Mol-Kelvin
 Total                  105.347             33.087             89.882
 Electronic               0.000              0.000              0.000
 Translational            0.889              2.981             40.409
 Rotational               0.889              2.981             28.976
 Vibrational            103.570             27.126             20.498
 Vibration     1          0.600              1.961              3.820
 Vibration     2          0.614              1.916              2.847
 Vibration     3          0.629              1.867              2.333
 Vibration     4          0.673              1.733              1.612
 Vibration     5          0.696              1.662              1.384
 Vibration     6          0.699              1.656              1.366
 Vibration     7          0.722              1.589              1.197
 Vibration     8          0.739              1.543              1.098
 Vibration     9          0.762              1.482              0.983
 Vibration    10          0.818              1.338              0.765
 Vibration    11          0.854              1.253              0.661

 Optimization completed.
    -- Stationary point found.
 Normal termination of Gaussian 09 at Tue Jan 28 13:19:46 2020.
