 Gaussian 09, Revision D.01,
 Gaussian 09:  ES64L-G09RevD.01 24-Apr-2013

 -----------------------------
 # b3lyp 6-31G(2df,p) opt Freq
 -----------------------------

 -----
 titel
 -----
 Symbolic Z-matrix:
 Charge =  0 Multiplicity = 1

 SCF Done:  E(RB3LYP) =  -423.133394774     A.U. after   14 cycles
 Optimization completed.
    -- Stationary point found.
 Normal termination of Gaussian 09 at Tue Jan 28 08:13:45 2020.

 ----------------------------------------------------------------------
 #N Geom=AllCheck Guess=TCheck SCRF=Check GenChk RB3LYP/6-31G(2df,p) Fr
 eq
 ----------------------------------------------------------------------

 Structure from the checkpoint file:  "/scratch/puck/g09_7eb88da3-e629-4954-b3dd-9133ec5443e9/Gau-91834.chk"
 -----
 titel
 -----
 Charge =  0 Multiplicity = 1

                         Standard orientation:
 ---------------------------------------------------------------------
 Center     Atomic      Atomic             Coordinates (Angstroms)
 Number     Number       Type             X           Y           Z
 ---------------------------------------------------------------------
      1          6           0        2.371314   -1.179023    0.368501
      2          6           0        1.952375   -0.086830   -0.636193
      3          6           0        0.856082    0.792266   -0.070670
      4          8           0        1.032614    1.922485    0.325338
      5          6           0       -0.529598    0.203442   -0.005839
      6          6           0       -1.777958    0.594888   -0.851148
      7          6           0       -2.093623   -0.668097   -0.018179
      8          6           0       -1.456078   -0.005598    1.224069
      9          8           0       -0.763325   -1.214796   -0.386780
     10          1           0        1.527033   -1.830243    0.606446
     11          1           0        3.168851   -1.794260   -0.056846
     12          1           0        2.745057   -0.733355    1.295349
     13          1           0        2.797816    0.560072   -0.884589
     14          1           0        1.584445   -0.565052   -1.550994
     15          1           0       -2.284913    1.527811   -0.598489
     16          1           0       -1.674406    0.432354   -1.924302
     17          1           0       -2.942523   -1.347670   -0.083935
     18          1           0       -1.938066    0.876790    1.648266
     19          1           0       -1.072686   -0.694254    1.977386
 ---------------------------------------------------------------------

 SCF Done:  E(RB3LYP) =  -423.133394774     A.U. after    1 cycles

 The electronic state is 1-A.
 Alpha  occ. eigenvalues --  -19.14148 -19.13346 -10.27167 -10.26017 -10.25944
 Alpha  occ. eigenvalues --  -10.20469 -10.20329 -10.19057 -10.18287  -1.06662
 Alpha  occ. eigenvalues --   -1.04187  -0.80308  -0.78361  -0.69318  -0.68964
 Alpha  occ. eigenvalues --   -0.63825  -0.57298  -0.55041  -0.48821  -0.46294
 Alpha  occ. eigenvalues --   -0.45911  -0.45500  -0.43539  -0.41789  -0.40411
 Alpha  occ. eigenvalues --   -0.37643  -0.36717  -0.36033  -0.35889  -0.33885
 Alpha  occ. eigenvalues --   -0.33600  -0.33143  -0.24927  -0.24440
 Alpha virt. eigenvalues --   -0.02675   0.08562   0.10129   0.10970   0.12408
 Alpha virt. eigenvalues --    0.12852   0.13787   0.14560   0.15113   0.15677
 Alpha virt. eigenvalues --    0.16383   0.17249   0.18126   0.19122   0.20171

 Mulliken charges:
               1
     1  C   -0.394852
     2  C   -0.280929
     3  C    0.238375
     4  O   -0.314109
     5  C    0.347776
     6  C   -0.243559
     7  C    0.038285
     8  C   -0.247057
     9  O   -0.344284
    10  H    0.148986
    11  H    0.123624
    12  H    0.127440
    13  H    0.118911
    14  H    0.124488
    15  H    0.113539
    16  H    0.113386
    17  H    0.103118
    18  H    0.113362
    19  H    0.113499
 Sum of Mulliken charges =   0.00000

 Dipole moment (field-independent basis, Debye):
    X=             -1.3642    Y=             -1.0743    Z=             -0.2047  Tot=              1.7484
 Quadrupole moment (field-independent basis, Debye-Ang):
   XX=            -47.5092   YY=            -60.2780   ZZ=            -51.6769
   XY=             -3.4978   XZ=             -1.4063   YZ=             -2.2515

  Exact polarizability:  86.654  -0.583  74.496  -0.260   0.368  68.134
 Approx polarizability: 113.316   2.228 121.680  -0.152   6.576 102.152

                      1                      2                      3
                      A                      A                      A
 Frequencies --     30.9611                84.0472               157.7755
 Red. masses --      3.9686                 2.5364                 3.4870
 Frc consts  --      0.0022                 0.0106                 0.0511
 IR Inten    --      4.6151                 0.1633                 7.4947

                      4                      5                      6
                      A                      A                      A
 Frequencies --    174.8247               235.1228               247.1538
 Red. masses --      3.1509                 1.2142                 3.2355
 Frc consts  --      0.0567                 0.0395                 0.1164
 IR Inten    --      2.3540                 2.2468                 0.9872

                      7                      8                      9
                      A                      A                      A
 Frequencies --    358.1429               446.1126               535.0965
 Red. masses --      3.3490                 3.7144                 2.0964
 Frc consts  --      0.2531                 0.4355                 0.3537
 IR Inten    --      2.0951                 0.5845                 2.1245

                     10                     11                     12
                      A                      A                      A
 Frequencies --    585.4695               595.6054               698.9163
 Red. masses --      3.2155                 2.8729                 3.8007
 Frc consts  --      0.6494                 0.6005                 1.0939
 IR Inten    --     11.4343                 8.6379                 2.8672

                     13                     14                     15
                      A                      A                      A
 Frequencies --    746.6077               797.1627               821.3303
 Red. masses --      4.7154                 1.8587                 1.6559
 Frc consts  --      1.5486                 0.6959                 0.6581
 IR Inten    --     26.0311                 0.5414                 3.0011

                     16                     17                     18
                      A                      A                      A
 Frequencies --    883.2722               921.4944               930.4199
 Red. masses --      2.7859                 2.9059                 3.1462
 Frc consts  --      1.2806                 1.4538                 1.6047
 IR Inten    --     28.5899                56.1951                 1.8255

                     19                     20                     21
                      A                      A                      A
 Frequencies --    946.4962               981.1509               984.5372
 Red. masses --      1.9875                 2.7498                 1.3691
 Frc consts  --      1.0491                 1.5596                 0.7819
 IR Inten    --      1.6601                 8.9990                 2.1453

                     22                     23                     24
                      A                      A                      A
 Frequencies --   1034.5021              1049.6850              1089.0035
 Red. masses --      2.3247                 1.3470                 1.4405
 Frc consts  --      1.4658                 0.8745                 1.0065
 IR Inten    --     12.5162                 1.4044                 8.8514

                     25                     26                     27
                      A                      A                      A
 Frequencies --   1099.4832              1120.1108              1156.7814
 Red. masses --      1.7799                 1.6103                 2.0838
 Frc consts  --      1.2677                 1.1904                 1.6429
 IR Inten    --      3.4594                 5.0354                 9.0218

                     28                     29                     30
                      A                      A                      A
 Frequencies --   1159.5790              1213.6295              1234.9876
 Red. masses --      1.6307                 1.5379                 1.7410
 Frc consts  --      1.2919                 1.3346                 1.5645
 IR Inten    --      2.5946                24.0711                 1.5119

                     31                     32                     33
                      A                      A                      A
 Frequencies --   1238.1993              1269.8821              1325.4318
 Red. masses --      1.5028                 1.3287                 1.4971
 Frc consts  --      1.3575                 1.2625                 1.5496
 IR Inten    --      4.7451                 1.1264                 2.1540

                     34                     35                     36
                      A                      A                      A
 Frequencies --   1347.1437              1403.6742              1466.1381
 Red. masses --      3.2674                 1.2230                 1.1170
 Frc consts  --      3.4937                 1.4198                 1.4146
 IR Inten    --     48.6035                 5.3388                 0.7065

                     37                     38                     39
                      A                      A                      A
 Frequencies --   1469.0428              1499.3699              1506.7248
 Red. masses --      1.1004                 1.0419                 1.1918
 Frc consts  --      1.3992                 1.3800                 1.5942
 IR Inten    --      8.4595                 4.8577                 2.4637

                     40                     41                     42
                      A                      A                      A
 Frequencies --   1513.6457              1800.5695              3044.2420
 Red. masses --      1.0762                11.8338                 1.0466
 Frc consts  --      1.4527                22.6045                 5.7145
 IR Inten    --      5.8935               145.1233                 8.2083

                     43                     44                     45
                      A                      A                      A
 Frequencies --   3046.9102              3074.1983              3080.3952
 Red. masses --      1.0467                 1.0547                 1.0543
 Frc consts  --      5.7253                 5.8730                 5.8943
 IR Inten    --     23.9629                30.4790                15.8117

                     46                     47                     48
                      A                      A                      A
 Frequencies --   3104.0562              3116.7574              3127.6893
 Red. masses --      1.1020                 1.1031                 1.0941
 Frc consts  --      6.2559                 6.3134                 6.3060
 IR Inten    --      7.7661                19.2966                55.7959

                     49                     50                     51
                      A                      A                      A
 Frequencies --   3135.5410              3156.6493              3162.0848
 Red. masses --      1.1025                 1.1121                 1.1130
 Frc consts  --      6.3866                 6.5288                 6.5567
 IR Inten    --     17.2007                11.4259                25.6180

 - Thermochemistry -
 -------------------
 Temperature   298.150 Kelvin.  Pressure   1.00000 Atm.
 Atom     1 has atomic number  6 and mass  12.00000

 Molecular mass:   126.06808 amu.
 Principal axes and moments of inertia in atomic units:
                           1         2         3
     Eigenvalues --   654.158081334.935191608.86255
           X            0.99832  -0.05787  -0.00244
           Y            0.05772   0.99753  -0.04002
           Z            0.00475   0.03981   0.99920
 This molecule is an asymmetric top.
 Rotational symmetry number  1.
 Warning -- assumption of classical behavior for rotation
           may cause significant error
 Rotational temperatures (Kelvin)      0.13241     0.06488     0.05384
 Rotational constants (GHZ):           2.75888     1.35193     1.12175
 Zero-point vibrational energy     413954.6 (Joules/Mol)
                                   98.93753 (Kcal/Mol)
 Warning -- explicit consideration of  11 degrees of freedom as
           vibrations may cause significant error
 Vibrational temperatures:     44.55   120.92   227.00   251.53   338.29
          (Kelvin)            355.60   515.29   641.86   769.88   842.36
                              856.94  1005.58  1074.20  1146.94  1181.71
                             1270.83  1325.82  1338.66  1361.80  1411.66
                             1416.53  1488.42  1510.26  1566.83  1581.91
                             1611.59  1664.35  1668.37  1746.14  1776.87
                             1781.49  1827.07  1907.00  1938.24  2019.57
                             2109.44  2113.62  2157.26  2167.84  2177.80
                             2590.61  4379.98  4383.82  4423.08  4432.00
                             4466.04  4484.31  4500.04  4511.34  4541.71
                             4549.53

 Zero-point correction=                           0.157667 (Hartree/Particle)
 Thermal correction to Energy=                    0.166446
 Thermal correction to Enthalpy=                  0.167390
 Thermal correction to Gibbs Free Energy=         0.123161
 Sum of electronic and zero-point Energies=           -422.975728
 Sum of electronic and thermal Energies=              -422.966949
 Sum of electronic and thermal Enthalpies=            -422.966004
 Sum of electronic and thermal Free Energies=         -423.010234

                     E (Thermal)             CV                S
                      KCal/Mol        Cal/Mol-Kelvin    Cal/Mol-Kelvin
 Total                  104.447             32.437             93.089
 Electronic               0.000              0.000              0.000
 Translational            0.889              2.981             40.409
 Rotational               0.889              2.981             28.731
 Vibrational            102.669             26.475             23.949
 Vibration     1          0.594              1.984              5.767
 Vibration     2          0.601              1.960              3.794
 Vibration     3          0.621              1.894              2.576
 Vibration     4          0.627              1.873              2.383
 Vibration     5          0.655              1.787              1.839
 Vibration     6          0.661              1.767              1.751
 Vibration     7          0.733              1.559              1.130
 Vibration     8          0.805              1.369              0.808
 Vibration     9          0.890              1.172              0.576
 Vibration    10          0.942              1.063              0.475
 Vibration    11          0.953              1.041              0.457

 Optimization completed.
    -- Stationary point found.
 Normal termination of Gaussian 09 at Tue Jan 28 08:56:26 2020.
