 Gaussian 09, Revision D.01,
 Gaussian 09:  ES64L-G09RevD.01 24-Apr-2013

 -----------------------------
 # b3lyp 6-31G(2df,p) opt Freq
 -----------------------------

 -----
 titel
 -----
 Symbolic Z-matrix:
 Charge =  0 Multiplicity = 1

 SCF Done:  E(RB3LYP) =  -423.148361074     A.U. after   13 cycles
 Optimization completed.
    -- Stationary point found.
 Normal termination of Gaussian 09 at Mon Jan 27 17:08:44 2020.

 ----------------------------------------------------------------------
 #N Geom=AllCheck Guess=TCheck SCRF=Check GenChk RB3LYP/6-31G(2df,p) Fr
 eq
 ----------------------------------------------------------------------

 Structure from the checkpoint file:  "/scratch/puck/g09_72b2dc57-5995-4a8f-a483-4ba2a193d949/Gau-179162.chk"
 -----
 titel
 -----
 Charge =  0 Multiplicity = 1

                         Standard orientation:
 ---------------------------------------------------------------------
 Center     Atomic      Atomic             Coordinates (Angstroms)
 Number     Number       Type             X           Y           Z
 ---------------------------------------------------------------------
      1          6           0       -2.643727   -0.685813    0.006007
      2          6           0       -1.241643   -0.153585    0.077762
      3          6           0       -0.815702    1.079538    0.921893
      4          6           0        0.219871    1.126429   -0.220717
      5          8           0       -0.797963    0.584318   -1.117352
      6          6           0        1.067117   -0.112487    0.052146
      7          6           0        2.422445   -0.128998    0.600394
      8          8           0        2.171648   -0.410037   -0.785142
      9          6           0       -0.057833   -1.138321    0.275186
     10          1           0       -2.912918   -1.179707    0.945373
     11          1           0       -3.356402    0.122275   -0.179829
     12          1           0       -2.733777   -1.418775   -0.802265
     13          1           0       -1.541541    1.890463    0.848160
     14          1           0       -0.474580    0.933905    1.950755
     15          1           0        0.712622    2.029252   -0.578742
     16          1           0        2.946720    0.805920    0.798601
     17          1           0        2.753926   -0.977884    1.197371
     18          1           0       -0.046467   -1.910724   -0.497309
     19          1           0       -0.040228   -1.609552    1.261804
 ---------------------------------------------------------------------

 SCF Done:  E(RB3LYP) =  -423.148361074     A.U. after    1 cycles

 The electronic state is 1-A.
 Alpha  occ. eigenvalues --  -19.14863 -19.13175 -10.24654 -10.24082 -10.23787
 Alpha  occ. eigenvalues --  -10.23322 -10.19118 -10.18632 -10.18321  -1.07385
 Alpha  occ. eigenvalues --   -1.04449  -0.79450  -0.75225  -0.71330  -0.66572
 Alpha  occ. eigenvalues --   -0.64974  -0.56004  -0.54685  -0.50446  -0.48719
 Alpha  occ. eigenvalues --   -0.46251  -0.45368  -0.44003  -0.43149  -0.39471
 Alpha  occ. eigenvalues --   -0.38391  -0.37879  -0.35819  -0.35460  -0.32229
 Alpha  occ. eigenvalues --   -0.31623  -0.29677  -0.27188  -0.24063
 Alpha virt. eigenvalues --    0.08115   0.09017   0.10459   0.11401   0.12306
 Alpha virt. eigenvalues --    0.13278   0.13953   0.14948   0.15541   0.15994
 Alpha virt. eigenvalues --    0.16379   0.17614   0.18541   0.18992   0.21296

 Mulliken charges:
               1
     1  C   -0.493622
     2  C    0.407958
     3  C   -0.278257
     4  C   -0.016533
     5  O   -0.326273
     6  C    0.508512
     7  C   -0.285111
     8  O   -0.284435
     9  C   -0.360394
    10  H    0.122450
    11  H    0.128251
    12  H    0.132833
    13  H    0.110575
    14  H    0.094948
    15  H    0.085961
    16  H    0.112500
    17  H    0.114389
    18  H    0.123815
    19  H    0.102433
 Sum of Mulliken charges =   0.00000

 Dipole moment (field-independent basis, Debye):
    X=             -0.7423    Y=              0.0984    Z=              3.0271  Tot=              3.1183
 Quadrupole moment (field-independent basis, Debye-Ang):
   XX=            -52.6177   YY=            -50.6721   ZZ=            -55.9200
   XY=              2.5142   XZ=              2.4692   YZ=             -0.0046

  Exact polarizability:  89.287   2.208  71.660   3.042  -0.244  64.282
 Approx polarizability: 114.714   1.973 103.895   3.590  -0.852 107.443

                      1                      2                      3
                      A                      A                      A
 Frequencies --    118.8000               192.6048               237.0341
 Red. masses --      3.6069                 1.0526                 2.6065
 Frc consts  --      0.0300                 0.0230                 0.0863
 IR Inten    --      0.4270                 0.2597                 0.2979

                      4                      5                      6
                      A                      A                      A
 Frequencies --    268.0139               335.7704               377.6651
 Red. masses --      3.2479                 2.7105                 2.8044
 Frc consts  --      0.1375                 0.1800                 0.2357
 IR Inten    --      1.6916                 0.5835                 2.0757

                      7                      8                      9
                      A                      A                      A
 Frequencies --    416.2971               452.1424               519.7172
 Red. masses --      1.8304                 4.6792                 2.5311
 Frc consts  --      0.1869                 0.5636                 0.4028
 IR Inten    --      3.2897                 1.5357                 1.3838

                     10                     11                     12
                      A                      A                      A
 Frequencies --    588.8018               652.5419               775.5978
 Red. masses --      4.9442                 3.2704                 3.4639
 Frc consts  --      1.0099                 0.8205                 1.2277
 IR Inten    --     24.6214                 0.7101                15.9135

                     13                     14                     15
                      A                      A                      A
 Frequencies --    801.5569               823.8212               856.0507
 Red. masses --      2.9695                 2.8830                 2.8169
 Frc consts  --      1.1241                 1.1528                 1.2162
 IR Inten    --      5.6724                19.0584                14.4258

                     16                     17                     18
                      A                      A                      A
 Frequencies --    882.1547               894.3704               930.2567
 Red. masses --      2.5470                 1.7305                 2.5846
 Frc consts  --      1.1678                 0.8156                 1.3178
 IR Inten    --     18.0409                 4.3378                 8.9422

                     19                     20                     21
                      A                      A                      A
 Frequencies --    946.9683               979.8077               989.2696
 Red. masses --      3.0596                 2.1491                 1.7273
 Frc consts  --      1.6165                 1.2156                 0.9960
 IR Inten    --     17.3902                18.0360                13.3384

                     22                     23                     24
                      A                      A                      A
 Frequencies --   1031.8660              1066.7309              1113.8760
 Red. masses --      2.0460                 1.2145                 1.8658
 Frc consts  --      1.2835                 0.8143                 1.3639
 IR Inten    --      6.3291                 5.7997                15.4623

                     25                     26                     27
                      A                      A                      A
 Frequencies --   1122.8062              1144.1081              1172.1710
 Red. masses --      1.4041                 1.5664                 1.7463
 Frc consts  --      1.0429                 1.2080                 1.4137
 IR Inten    --      3.5769                 2.2053                 5.9198

                     28                     29                     30
                      A                      A                      A
 Frequencies --   1190.5196              1212.2946              1216.3701
 Red. masses --      1.4581                 1.6957                 1.4559
 Frc consts  --      1.2176                 1.4683                 1.2691
 IR Inten    --      0.7217                 8.8271                 4.0917

                     31                     32                     33
                      A                      A                      A
 Frequencies --   1254.8809              1261.9433              1271.2409
 Red. masses --      2.1389                 1.9665                 1.7349
 Frc consts  --      1.9844                 1.8451                 1.6519
 IR Inten    --      6.3449                16.8332                 3.5834

                     34                     35                     36
                      A                      A                      A
 Frequencies --   1345.5871              1416.0143              1440.1364
 Red. masses --      2.2776                 1.5396                 2.0338
 Frc consts  --      2.4297                 1.8188                 2.4852
 IR Inten    --     20.5960                20.9630                13.1764

                     37                     38                     39
                      A                      A                      A
 Frequencies --   1470.8989              1480.0018              1490.9797
 Red. masses --      1.1290                 1.0512                 1.1019
 Frc consts  --      1.4392                 1.3567                 1.4432
 IR Inten    --      1.3196                 4.0863                 5.2316

                     40                     41                     42
                      A                      A                      A
 Frequencies --   1493.9202              1539.6986              3038.4776
 Red. masses --      1.1168                 1.6637                 1.0354
 Frc consts  --      1.4686                 2.3238                 5.6321
 IR Inten    --      0.8810                 5.9509                15.6073

                     43                     44                     45
                      A                      A                      A
 Frequencies --   3058.8905              3064.0573              3075.6830
 Red. masses --      1.0595                 1.0590                 1.0506
 Frc consts  --      5.8409                 5.8579                 5.8558
 IR Inten    --     22.9417                24.1191                27.3764

                     46                     47                     48
                      A                      A                      A
 Frequencies --   3108.0624              3118.3221              3119.1399
 Red. masses --      1.1008                 1.1020                 1.1056
 Frc consts  --      6.2654                 6.3135                 6.3373
 IR Inten    --     10.0269                13.0890                15.0417

                     49                     50                     51
                      A                      A                      A
 Frequencies --   3135.9165              3140.5544              3160.0852
 Red. masses --      1.1000                 1.0992                 1.1188
 Frc consts  --      6.3733                 6.3879                 6.5829
 IR Inten    --     20.2611                29.0962                24.8577

 - Thermochemistry -
 -------------------
 Temperature   298.150 Kelvin.  Pressure   1.00000 Atm.
 Atom     1 has atomic number  6 and mass  12.00000

 Molecular mass:   126.06808 amu.
 Principal axes and moments of inertia in atomic units:
                           1         2         3
     Eigenvalues --   482.888421370.343421452.29467
           X            0.99976   0.01913   0.01085
           Y           -0.01942   0.99943   0.02774
           Z           -0.01032  -0.02794   0.99956
 This molecule is an asymmetric top.
 Rotational symmetry number  1.
 Warning -- assumption of classical behavior for rotation
           may cause significant error
 Rotational temperatures (Kelvin)      0.17937     0.06321     0.05964
 Rotational constants (GHZ):           3.73739     1.31700     1.24268
 Zero-point vibrational energy     417463.7 (Joules/Mol)
                                   99.77621 (Kcal/Mol)
 Warning -- explicit consideration of  10 degrees of freedom as
           vibrations may cause significant error
 Vibrational temperatures:    170.93   277.12   341.04   385.61   483.10
          (Kelvin)            543.38   598.96   650.53   747.76   847.15
                              938.86  1115.91  1153.26  1185.29  1231.66
                             1269.22  1286.80  1338.43  1362.47  1409.72
                             1423.34  1484.62  1534.79  1602.62  1615.47
                             1646.11  1686.49  1712.89  1744.22  1750.08
                             1805.49  1815.65  1829.03  1936.00  2037.33
                             2072.03  2116.29  2129.39  2145.18  2149.42
                             2215.28  4371.69  4401.06  4408.49  4425.22
                             4471.80  4486.56  4487.74  4511.88  4518.55
                             4546.65

 Zero-point correction=                           0.159004 (Hartree/Particle)
 Thermal correction to Energy=                    0.166715
 Thermal correction to Enthalpy=                  0.167659
 Thermal correction to Gibbs Free Energy=         0.127197
 Sum of electronic and zero-point Energies=           -422.989358
 Sum of electronic and thermal Energies=              -422.981646
 Sum of electronic and thermal Enthalpies=            -422.980702
 Sum of electronic and thermal Free Energies=         -423.021164

                     E (Thermal)             CV                S
                      KCal/Mol        Cal/Mol-Kelvin    Cal/Mol-Kelvin
 Total                  104.615             31.053             85.161
 Electronic               0.000              0.000              0.000
 Translational            0.889              2.981             40.409
 Rotational               0.889              2.981             28.354
 Vibrational            102.838             25.092             16.399
 Vibration     1          0.609              1.934              3.120
 Vibration     2          0.635              1.850              2.203
 Vibration     3          0.656              1.784              1.825
 Vibration     4          0.673              1.732              1.609
 Vibration     5          0.717              1.604              1.232
 Vibration     6          0.748              1.518              1.049
 Vibration     7          0.780              1.435              0.905
 Vibration     8          0.811              1.356              0.789
 Vibration     9          0.875              1.206              0.611
 Vibration    10          0.946              1.056              0.469

 Optimization completed.
    -- Stationary point found.
 Normal termination of Gaussian 09 at Mon Jan 27 17:56:24 2020.
