 Gaussian 09, Revision D.01,
 Gaussian 09:  ES64L-G09RevD.01 24-Apr-2013

 -----------------------------
 # b3lyp 6-31G(2df,p) opt Freq
 -----------------------------

 -----
 titel
 -----
 Symbolic Z-matrix:
 Charge =  0 Multiplicity = 1

 SCF Done:  E(RB3LYP) =  -423.210069283     A.U. after   14 cycles
 Optimization completed.
    -- Stationary point found.
 Normal termination of Gaussian 09 at Mon Jan 27 14:09:44 2020.

 ----------------------------------------------------------------------
 #N Geom=AllCheck Guess=TCheck SCRF=Check GenChk RB3LYP/6-31G(2df,p) Fr
 eq
 ----------------------------------------------------------------------

 Structure from the checkpoint file:  "/scratch/puck/g09_891984f9-fcc1-49dc-8fed-6efe13255e86/Gau-31469.chk"
 -----
 titel
 -----
 Charge =  0 Multiplicity = 1

                         Standard orientation:
 ---------------------------------------------------------------------
 Center     Atomic      Atomic             Coordinates (Angstroms)
 Number     Number       Type             X           Y           Z
 ---------------------------------------------------------------------
      1          6           0       -2.775727   -0.968411   -0.119960
      2          6           0       -1.692094    0.034809    0.230913
      3          8           0       -1.719772    0.709857    1.228855
      4          6           0       -0.518038    0.133605   -0.771702
      5          8           0        0.159584    1.367821   -0.647140
      6          6           0        1.419936    1.165381   -0.017245
      7          6           0        1.626992   -0.329293    0.000714
      8          6           0        2.895121   -0.952931    0.482812
      9          6           0        0.522429   -0.916614   -0.454580
     10          1           0       -3.450096   -1.100730    0.726795
     11          1           0       -3.345772   -0.602184   -0.982274
     12          1           0       -2.345631   -1.932953   -0.411461
     13          1           0       -0.918770    0.043198   -1.793728
     14          1           0        2.196148    1.693226   -0.590852
     15          1           0        1.417318    1.585521    1.000871
     16          1           0        2.854380   -2.043478    0.428222
     17          1           0        3.754258   -0.611587   -0.107830
     18          1           0        3.099101   -0.671124    1.523389
     19          1           0        0.348848   -1.980602   -0.552564
 ---------------------------------------------------------------------

 SCF Done:  E(RB3LYP) =  -423.210069283     A.U. after    1 cycles

 The electronic state is 1-A.
 Alpha  occ. eigenvalues --  -19.13707 -19.12619 -10.26419 -10.23946 -10.22932
 Alpha  occ. eigenvalues --  -10.19929 -10.19397 -10.19033 -10.18835  -1.04915
 Alpha  occ. eigenvalues --   -1.02642  -0.81124  -0.77177  -0.72825  -0.69929
 Alpha  occ. eigenvalues --   -0.62256  -0.55354  -0.52746  -0.49769  -0.48277
 Alpha  occ. eigenvalues --   -0.45131  -0.44305  -0.43596  -0.42486  -0.41248
 Alpha  occ. eigenvalues --   -0.40324  -0.39431  -0.38252  -0.36597  -0.34435
 Alpha  occ. eigenvalues --   -0.31960  -0.26968  -0.26650  -0.22072
 Alpha virt. eigenvalues --   -0.01583   0.02488   0.09005   0.09583   0.11778
 Alpha virt. eigenvalues --    0.12798   0.13645   0.14915   0.16136   0.16763
 Alpha virt. eigenvalues --    0.17002   0.18290   0.19271   0.20418   0.22965

 Mulliken charges:
               1
     1  C   -0.488056
     2  C    0.372744
     3  O   -0.290583
     4  C   -0.023703
     5  O   -0.252918
     6  C   -0.151930
     7  C    0.309520
     8  C   -0.494843
     9  C   -0.219765
    10  H    0.145154
    11  H    0.146210
    12  H    0.134386
    13  H    0.090765
    14  H    0.104006
    15  H    0.116155
    16  H    0.129921
    17  H    0.132666
    18  H    0.137132
    19  H    0.103139
 Sum of Mulliken charges =   0.00000

 Dipole moment (field-independent basis, Debye):
    X=              1.2323    Y=             -2.7158    Z=             -1.3093  Tot=              3.2570
 Quadrupole moment (field-independent basis, Debye-Ang):
   XX=            -46.9599   YY=            -54.1482   ZZ=            -55.6447
   XY=              3.5483   XZ=              4.9708   YZ=             -0.3072

  Exact polarizability: 100.999   7.126  72.362   6.723   4.932  64.556
 Approx polarizability: 131.319  12.717 110.572  11.878  13.762 105.461

                      1                      2                      3
                      A                      A                      A
 Frequencies --     58.3368                81.2494               109.5454
 Red. masses --      3.9147                 3.3780                 1.0823
 Frc consts  --      0.0078                 0.0131                 0.0077
 IR Inten    --      3.5740                 2.9291                 0.0173

                      4                      5                      6
                      A                      A                      A
 Frequencies --    140.7339               172.4701               246.0925
 Red. masses --      2.5976                 1.0755                 3.5505
 Frc consts  --      0.0303                 0.0188                 0.1267
 IR Inten    --      1.0079                 0.0640                 0.2094

                      7                      8                      9
                      A                      A                      A
 Frequencies --    298.3241               319.0690               362.4620
 Red. masses --      3.5005                 3.1272                 3.7229
 Frc consts  --      0.1836                 0.1876                 0.2882
 IR Inten    --      1.0810                 2.1028                 1.0009

                     10                     11                     12
                      A                      A                      A
 Frequencies --    447.4555               558.8255               593.9357
 Red. masses --      2.3237                 2.9008                 4.0484
 Frc consts  --      0.2741                 0.5337                 0.8414
 IR Inten    --      2.7926                 0.2904                25.7508

                     13                     14                     15
                      A                      A                      A
 Frequencies --    618.9481               787.8816               810.3077
 Red. masses --      3.5529                 2.3334                 3.3716
 Frc consts  --      0.8019                 0.8534                 1.3043
 IR Inten    --      2.7027                 4.4893                 3.3016

                     16                     17                     18
                      A                      A                      A
 Frequencies --    847.5769               903.0072               931.2175
 Red. masses --      1.8570                 3.0202                 3.0745
 Frc consts  --      0.7860                 1.4510                 1.5708
 IR Inten    --     16.1190                 6.7020                28.9959

                     19                     20                     21
                      A                      A                      A
 Frequencies --    955.5778               993.0403               999.6341
 Red. masses --      2.0937                 2.3154                 1.3804
 Frc consts  --      1.1264                 1.3453                 0.8127
 IR Inten    --      2.3484                31.3770                 8.6394

                     22                     23                     24
                      A                      A                      A
 Frequencies --   1025.5793              1046.4217              1092.9101
 Red. masses --      1.7952                 1.7685                 1.7525
 Frc consts  --      1.1125                 1.1409                 1.2333
 IR Inten    --      1.7734                 2.4692                 1.1399

                     25                     26                     27
                      A                      A                      A
 Frequencies --   1122.6308              1179.5584              1202.7991
 Red. masses --      5.3535                 2.5505                 1.1181
 Frc consts  --      3.9753                 2.0908                 0.9530
 IR Inten    --    111.1058                61.4961                 1.4904

                     28                     29                     30
                      A                      A                      A
 Frequencies --   1216.9388              1259.6808              1303.8786
 Red. masses --      2.1137                 1.5472                 1.7793
 Frc consts  --      1.8443                 1.4465                 1.7823
 IR Inten    --      2.4057                 3.1696                 3.0503

                     31                     32                     33
                      A                      A                      A
 Frequencies --   1352.0831              1376.4891              1388.1512
 Red. masses --      1.4039                 1.3226                 1.6167
 Frc consts  --      1.5122                 1.4764                 1.8355
 IR Inten    --      6.3096                31.4018                 4.6780

                     34                     35                     36
                      A                      A                      A
 Frequencies --   1415.5806              1461.4988              1474.2216
 Red. masses --      1.2823                 1.0515                 1.0526
 Frc consts  --      1.5139                 1.3233                 1.3478
 IR Inten    --      0.6513                 9.4597                 7.9563

                     37                     38                     39
                      A                      A                      A
 Frequencies --   1479.5556              1488.5047              1513.3522
 Red. masses --      1.0435                 1.0612                 1.0871
 Frc consts  --      1.3459                 1.3853                 1.4669
 IR Inten    --      7.3489                 6.5784                 1.5574

                     40                     41                     42
                      A                      A                      A
 Frequencies --   1723.8698              1830.5808              2977.1197
 Red. masses --      7.2038                11.0063                 1.0745
 Frc consts  --     12.6131                21.7305                 5.6110
 IR Inten    --      8.6195               121.1056                97.5746

                     43                     44                     45
                      A                      A                      A
 Frequencies --   2981.7478              3007.6852              3022.6880
 Red. masses --      1.0670                 1.1022                 1.0384
 Frc consts  --      5.5893                 5.8745                 5.5897
 IR Inten    --     14.8497                43.6261                34.0430

                     46                     47                     48
                      A                      A                      A
 Frequencies --   3034.8038              3069.7272              3094.7116
 Red. masses --      1.0373                 1.0986                 1.0975
 Frc consts  --      5.6288                 6.0993                 6.1930
 IR Inten    --      3.8684                16.2076                 8.9737

                     49                     50                     51
                      A                      A                      A
 Frequencies --   3118.5569              3152.4360              3215.0474
 Red. masses --      1.0992                 1.1017                 1.0951
 Frc consts  --      6.2982                 6.4506                 6.6694
 IR Inten    --     15.6104                 9.6460                 5.8204

 - Thermochemistry -
 -------------------
 Temperature   298.150 Kelvin.  Pressure   1.00000 Atm.
 Atom     1 has atomic number  6 and mass  12.00000

 Molecular mass:   126.06808 amu.
 Principal axes and moments of inertia in atomic units:
                           1         2         3
     Eigenvalues --   573.060301641.026401835.64152
           X            0.99954   0.01700   0.02492
           Y           -0.01724   0.99981   0.00948
           Z           -0.02475  -0.00991   0.99964
 This molecule is an asymmetric top.
 Rotational symmetry number  1.
 Warning -- assumption of classical behavior for rotation
           may cause significant error
 Rotational temperatures (Kelvin)      0.15114     0.05278     0.04718
 Rotational constants (GHZ):           3.14930     1.09976     0.98317
 Zero-point vibrational energy     411901.2 (Joules/Mol)
                                   98.44674 (Kcal/Mol)
 Warning -- explicit consideration of  13 degrees of freedom as
           vibrations may cause significant error
 Vibrational temperatures:     83.93   116.90   157.61   202.48   248.15
          (Kelvin)            354.07   429.22   459.07   521.50   643.79
                              804.02   854.54   890.53  1133.58  1165.85
                             1219.47  1299.22  1339.81  1374.86  1428.76
                             1438.25  1475.58  1505.57  1572.45  1615.21
                             1697.12  1730.56  1750.90  1812.40  1875.99
                             1945.34  1980.46  1997.24  2036.70  2102.77
                             2121.07  2128.75  2141.62  2177.37  2480.26
                             2633.79  4283.41  4290.06  4327.38  4348.97
                             4366.40  4416.65  4452.59  4486.90  4535.65
                             4625.73

 Zero-point correction=                           0.156885 (Hartree/Particle)
 Thermal correction to Energy=                    0.166401
 Thermal correction to Enthalpy=                  0.167345
 Thermal correction to Gibbs Free Energy=         0.121836
 Sum of electronic and zero-point Energies=           -423.053184
 Sum of electronic and thermal Energies=              -423.043668
 Sum of electronic and thermal Enthalpies=            -423.042724
 Sum of electronic and thermal Free Energies=         -423.088233

                     E (Thermal)             CV                S
                      KCal/Mol        Cal/Mol-Kelvin    Cal/Mol-Kelvin
 Total                  104.418             33.873             95.782
 Electronic               0.000              0.000              0.000
 Translational            0.889              2.981             40.409
 Rotational               0.889              2.981             28.936
 Vibrational            102.641             27.911             26.438
 Vibration     1          0.596              1.974              4.513
 Vibration     2          0.600              1.962              3.860
 Vibration     3          0.606              1.942              3.277
 Vibration     4          0.615              1.913              2.794
 Vibration     5          0.626              1.876              2.408
 Vibration     6          0.661              1.769              1.758
 Vibration     7          0.691              1.677              1.426
 Vibration     8          0.705              1.637              1.315
 Vibration     9          0.736              1.550              1.112
 Vibration    10          0.807              1.367              0.804
 Vibration    11          0.914              1.120              0.526
 Vibration    12          0.952              1.045              0.460
 Vibration    13          0.979              0.992              0.418

 Normal termination of Gaussian 09 at Mon Jan 27 14:58:49 2020.
