 Gaussian 09, Revision D.01,
 Gaussian 09:  ES64L-G09RevD.01 24-Apr-2013

 -----------------------------
 # b3lyp 6-31G(2df,p) opt Freq
 -----------------------------

 -----
 titel
 -----
 Symbolic Z-matrix:
 Charge =  0 Multiplicity = 1

 SCF Done:  E(RB3LYP) =  -423.187438682     A.U. after   13 cycles
 Optimization completed.
    -- Stationary point found.
 Normal termination of Gaussian 09 at Mon Jan 27 22:04:58 2020.

 ----------------------------------------------------------------------
 #N Geom=AllCheck Guess=TCheck SCRF=Check GenChk RB3LYP/6-31G(2df,p) Fr
 eq
 ----------------------------------------------------------------------

 Structure from the checkpoint file:  "/scratch/puck/g09_99135536-137e-4ba5-a009-0c789997f8af/Gau-189644.chk"
 -----
 titel
 -----
 Charge =  0 Multiplicity = 1

                         Standard orientation:
 ---------------------------------------------------------------------
 Center     Atomic      Atomic             Coordinates (Angstroms)
 Number     Number       Type             X           Y           Z
 ---------------------------------------------------------------------
      1          8           0        0.165060    2.227307   -0.229304
      2          6           0        0.393337    0.984516    0.402942
      3          6           0       -0.887570    0.287035    0.969545
      4          6           0       -0.375544   -1.164474    1.106460
      5          6           0       -0.015821   -1.284518   -0.397069
      6          6           0       -1.306728   -0.788463   -1.032111
      7          6           0       -1.831319    0.136823   -0.220756
      8          6           0        1.010819   -0.123616   -0.523803
      9          8           0        2.267680   -0.601036   -0.067454
     10          1           0       -0.484096    2.075395   -0.926247
     11          1           0        1.098695    1.192046    1.213407
     12          1           0       -1.298613    0.771361    1.855294
     13          1           0        0.498111   -1.264227    1.756294
     14          1           0       -1.156649   -1.862716    1.416079
     15          1           0        0.371267   -2.238493   -0.754019
     16          1           0       -1.668185   -1.092401   -2.006761
     17          1           0       -2.717480    0.735843   -0.390379
     18          1           0        1.088555    0.250073   -1.553965
     19          1           0        2.883428    0.139143   -0.066886
 ---------------------------------------------------------------------

 SCF Done:  E(RB3LYP) =  -423.187438682     A.U. after    1 cycles

 The electronic state is 1-A.
 Alpha  occ. eigenvalues --  -19.13596 -19.13233 -10.22741 -10.22652 -10.18918
 Alpha  occ. eigenvalues --  -10.18833 -10.18715 -10.18563 -10.17960  -1.02402
 Alpha  occ. eigenvalues --   -1.01066  -0.87438  -0.73394  -0.71531  -0.68442
 Alpha  occ. eigenvalues --   -0.59928  -0.56311  -0.53352  -0.52045  -0.50465
 Alpha  occ. eigenvalues --   -0.48705  -0.44124  -0.42134  -0.40401  -0.37771
 Alpha  occ. eigenvalues --   -0.37487  -0.35913  -0.35135  -0.34161  -0.32280
 Alpha  occ. eigenvalues --   -0.30644  -0.28739  -0.26026  -0.23328
 Alpha virt. eigenvalues --    0.00455   0.08586   0.09871   0.10870   0.12443
 Alpha virt. eigenvalues --    0.13331   0.15954   0.16446   0.16902   0.17097
 Alpha virt. eigenvalues --    0.18471   0.18912   0.19450   0.21607   0.22567

 Mulliken charges:
               1
     1  O   -0.444232
     2  C    0.114115
     3  C   -0.088539
     4  C   -0.221826
     5  C   -0.058125
     6  C   -0.093373
     7  C   -0.107797
     8  C    0.104638
     9  O   -0.448358
    10  H    0.273920
    11  H    0.085380
    12  H    0.063092
    13  H    0.109612
    14  H    0.095994
    15  H    0.070599
    16  H    0.099383
    17  H    0.100694
    18  H    0.060401
    19  H    0.284421
 Sum of Mulliken charges =   0.00000

 Dipole moment (field-independent basis, Debye):
    X=             -0.7747    Y=             -0.0988    Z=             -0.6303  Tot=              1.0036
 Quadrupole moment (field-independent basis, Debye-Ang):
   XX=            -50.6518   YY=            -58.2740   ZZ=            -50.4584
   XY=              1.3441   XZ=              1.2144   YZ=             -0.2725

  Exact polarizability:  77.717  -2.323  73.364   2.101   3.225  70.946
 Approx polarizability: 112.604  -7.058 114.598   1.496   9.507 110.663

                      1                      2                      3
                      A                      A                      A
 Frequencies --    123.1402               252.4697               286.1441
 Red. masses --      4.2842                 3.4920                 2.0977
 Frc consts  --      0.0383                 0.1311                 0.1012
 IR Inten    --      1.8326                 1.7383                24.1781

                      4                      5                      6
                      A                      A                      A
 Frequencies --    312.2400               344.8032               380.1134
 Red. masses --      1.5052                 2.3999                 1.4244
 Frc consts  --      0.0865                 0.1681                 0.1213
 IR Inten    --     63.8261                14.1671                87.6067

                      7                      8                      9
                      A                      A                      A
 Frequencies --    435.7937               466.0670               489.0868
 Red. masses --      2.9950                 2.6693                 2.9841
 Frc consts  --      0.3351                 0.3416                 0.4206
 IR Inten    --      1.0304                 4.6862                 2.0858

                     10                     11                     12
                      A                      A                      A
 Frequencies --    576.3609               680.8395               749.1444
 Red. masses --      3.7868                 3.4869                 1.6656
 Frc consts  --      0.7412                 0.9523                 0.5507
 IR Inten    --      6.7275                 6.6723                34.0291

                     13                     14                     15
                      A                      A                      A
 Frequencies --    768.0869               826.8592               852.1007
 Red. masses --      4.8356                 3.3923                 2.7072
 Frc consts  --      1.6808                 1.3665                 1.1581
 IR Inten    --      6.4818                 7.7540                 6.2401

                     16                     17                     18
                      A                      A                      A
 Frequencies --    912.6472               915.3487               939.8409
 Red. masses --      2.5459                 2.4255                 2.6860
 Frc consts  --      1.2494                 1.1974                 1.3979
 IR Inten    --     16.0086                 6.3370                 4.5777

                     19                     20                     21
                      A                      A                      A
 Frequencies --    945.7266               960.6086               981.8628
 Red. masses --      1.9162                 1.4651                 1.7665
 Frc consts  --      1.0098                 0.7966                 1.0034
 IR Inten    --      3.7344                 0.5667                 1.6221

                     22                     23                     24
                      A                      A                      A
 Frequencies --    994.7338              1066.4747              1073.0594
 Red. masses --      1.9229                 2.2590                 2.0982
 Frc consts  --      1.1211                 1.5138                 1.4234
 IR Inten    --     10.9095                41.1955                12.9703

                     25                     26                     27
                      A                      A                      A
 Frequencies --   1098.3657              1121.9202              1142.0479
 Red. masses --      2.9333                 1.2897                 1.3792
 Frc consts  --      2.0850                 0.9565                 1.0599
 IR Inten    --     64.7062                10.1762                57.3637

                     28                     29                     30
                      A                      A                      A
 Frequencies --   1170.5467              1187.7139              1224.5871
 Red. masses --      1.2680                 1.6290                 1.3544
 Frc consts  --      1.0237                 1.3539                 1.1967
 IR Inten    --     19.2464                 7.7429                10.5061

                     31                     32                     33
                      A                      A                      A
 Frequencies --   1258.6680              1275.6025              1280.6393
 Red. masses --      1.3488                 1.4370                 1.4205
 Frc consts  --      1.2590                 1.3776                 1.3726
 IR Inten    --     10.7712                 2.9172                12.0856

                     34                     35                     36
                      A                      A                      A
 Frequencies --   1294.0963              1311.5649              1340.0733
 Red. masses --      1.3938                 1.5590                 1.5491
 Frc consts  --      1.3753                 1.5801                 1.6391
 IR Inten    --     14.9153                 1.2626                19.4136

                     37                     38                     39
                      A                      A                      A
 Frequencies --   1364.2643              1415.0010              1423.6291
 Red. masses --      1.6604                 1.3431                 1.2562
 Frc consts  --      1.8208                 1.5845                 1.5000
 IR Inten    --      5.6820                13.5191                58.5391

                     40                     41                     42
                      A                      A                      A
 Frequencies --   1496.9145              1639.6161              3004.6809
 Red. masses --      1.1122                 5.7511                 1.0854
 Frc consts  --      1.4683                 9.1093                 5.7732
 IR Inten    --      6.4486                 0.6973                48.8762

                     43                     44                     45
                      A                      A                      A
 Frequencies --   3062.8177              3067.0321              3115.4313
 Red. masses --      1.0710                 1.0724                 1.0880
 Frc consts  --      5.9192                 5.9436                 6.2218
 IR Inten    --     16.5051                37.0699                45.0953

                     46                     47                     48
                      A                      A                      A
 Frequencies --   3120.8097              3122.3744              3195.2715
 Red. masses --      1.0922                 1.1049                 1.0854
 Frc consts  --      6.2675                 6.3469                 6.5289
 IR Inten    --     18.6947                21.5777                 5.6301

                     49                     50                     51
                      A                      A                      A
 Frequencies --   3220.7162              3783.3065              3812.6970
 Red. masses --      1.1064                 1.0652                 1.0662
 Frc consts  --      6.7619                 8.9833                 9.1318
 IR Inten    --     15.2132                16.6022                22.1450

 - Thermochemistry -
 -------------------
 Temperature   298.150 Kelvin.  Pressure   1.00000 Atm.
 Atom     1 has atomic number  8 and mass  15.99491

 Molecular mass:   126.06808 amu.
 Principal axes and moments of inertia in atomic units:
                           1         2         3
     Eigenvalues --   805.54782 924.694911262.12469
           X            0.99986   0.01512   0.00654
           Y           -0.01507   0.99986  -0.00748
           Z           -0.00665   0.00738   0.99995
 This molecule is an asymmetric top.
 Rotational symmetry number  1.
 Warning -- assumption of classical behavior for rotation
           may cause significant error
 Rotational temperatures (Kelvin)      0.10752     0.09367     0.06863
 Rotational constants (GHZ):           2.24039     1.95172     1.42992
 Zero-point vibrational energy     423980.1 (Joules/Mol)
                                  101.33368 (Kcal/Mol)
 Warning -- explicit consideration of  10 degrees of freedom as
           vibrations may cause significant error
 Vibrational temperatures:    177.17   363.25   411.70   449.24   496.09
          (Kelvin)            546.90   627.01   670.57   703.69   829.25
                              979.57  1077.85  1105.10  1189.66  1225.98
                             1313.09  1316.98  1352.22  1360.69  1382.10
                             1412.68  1431.20  1534.42  1543.89  1580.30
                             1614.19  1643.15  1684.15  1708.85  1761.91
                             1810.94  1835.31  1842.55  1861.91  1887.05
                             1928.06  1962.87  2035.87  2048.28  2153.72
                             2359.04  4323.06  4406.71  4412.77  4482.41
                             4490.14  4492.39  4597.28  4633.89  5443.33
                             5485.61

 Zero-point correction=                           0.161485 (Hartree/Particle)
 Thermal correction to Energy=                    0.168993
 Thermal correction to Enthalpy=                  0.169937
 Thermal correction to Gibbs Free Energy=         0.130022
 Sum of electronic and zero-point Energies=           -423.025953
 Sum of electronic and thermal Energies=              -423.018446
 Sum of electronic and thermal Enthalpies=            -423.017501
 Sum of electronic and thermal Free Energies=         -423.057416

                     E (Thermal)             CV                S
                      KCal/Mol        Cal/Mol-Kelvin    Cal/Mol-Kelvin
 Total                  106.045             31.092             84.008
 Electronic               0.000              0.000              0.000
 Translational            0.889              2.981             40.409
 Rotational               0.889              2.981             28.332
 Vibrational            104.267             25.131             15.267
 Vibration     1          0.610              1.930              3.050
 Vibration     2          0.664              1.759              1.713
 Vibration     3          0.684              1.699              1.497
 Vibration     4          0.701              1.650              1.350
 Vibration     5          0.723              1.586              1.190
 Vibration     6          0.750              1.513              1.039
 Vibration     7          0.796              1.392              0.840
 Vibration     8          0.823              1.325              0.749
 Vibration     9          0.845              1.274              0.686
 Vibration    10          0.933              1.082              0.492

 Normal termination of Gaussian 09 at Mon Jan 27 22:52:43 2020.
