 Gaussian 09, Revision D.01,
 Gaussian 09:  ES64L-G09RevD.01 24-Apr-2013

 -----------------------------
 # b3lyp 6-31G(2df,p) opt Freq
 -----------------------------

 -----
 titel
 -----
 Symbolic Z-matrix:
 Charge =  0 Multiplicity = 1

 SCF Done:  E(RB3LYP) =  -423.118316205     A.U. after   13 cycles
 SCF Done:  E(RB3LYP) =  -423.118315567     A.U. after    7 cycles
 SCF Done:  E(RB3LYP) =  -423.118316313     A.U. after    7 cycles
 SCF Done:  E(RB3LYP) =  -423.118316301     A.U. after    7 cycles
 Optimization completed.
    -- Stationary point found.
 Normal termination of Gaussian 09 at Mon Jan 27 15:55:36 2020.

 ----------------------------------------------------------------------
 #N Geom=AllCheck Guess=TCheck SCRF=Check GenChk RB3LYP/6-31G(2df,p) Fr
 eq
 ----------------------------------------------------------------------

 Structure from the checkpoint file:  "/scratch/puck/g09_6b40d2df-2b95-4562-8b5e-8ded5ab1777f/Gau-175131.chk"
 -----
 titel
 -----
 Charge =  0 Multiplicity = 1

                         Standard orientation:
 ---------------------------------------------------------------------
 Center     Atomic      Atomic             Coordinates (Angstroms)
 Number     Number       Type             X           Y           Z
 ---------------------------------------------------------------------
      1          8           0        0.929811    1.475248   -0.203001
      2          6           0        1.329493    0.265538    0.432087
      3          6           0        0.396642   -0.914598    0.071839
      4          6           0       -1.035463   -0.630217    0.464211
      5          6           0       -2.211264   -1.333011   -0.191507
      6          6           0       -1.948792    0.126487   -0.454062
      7          8           0       -2.740656    1.111492    0.147158
      8          6           0        2.708843   -0.022402    0.043331
      9          6           0        3.833865   -0.303906   -0.269275
     10          1           0        0.045281    1.685357    0.118307
     11          1           0        1.306175    0.392767    1.528393
     12          1           0        0.469020   -1.094747   -1.006274
     13          1           0        0.764037   -1.816651    0.575075
     14          1           0       -1.189452   -0.401876    1.516991
     15          1           0       -2.014369   -2.042988   -0.988417
     16          1           0       -3.051471   -1.579727    0.447864
     17          1           0       -1.552844    0.390724   -1.434268
     18          1           0       -3.563113    1.182579   -0.349120
     19          1           0        4.833550   -0.536695   -0.541545
 ---------------------------------------------------------------------

 SCF Done:  E(RB3LYP) =  -423.118316301     A.U. after    1 cycles

 The electronic state is 1-A.
 Alpha  occ. eigenvalues --  -19.15060 -19.13488 -10.25454 -10.23997 -10.19727
 Alpha  occ. eigenvalues --  -10.19030 -10.18982 -10.17776 -10.17254  -1.03449
 Alpha  occ. eigenvalues --   -1.01912  -0.85846  -0.78082  -0.72612  -0.65455
 Alpha  occ. eigenvalues --   -0.61229  -0.57816  -0.53039  -0.52457  -0.51197
 Alpha  occ. eigenvalues --   -0.48152  -0.45732  -0.44634  -0.44026  -0.39129
 Alpha  occ. eigenvalues --   -0.38164  -0.35929  -0.34439  -0.33072  -0.28810
 Alpha  occ. eigenvalues --   -0.28112  -0.27294  -0.26587  -0.25028
 Alpha virt. eigenvalues --    0.03871   0.05607   0.07383   0.10094   0.10811
 Alpha virt. eigenvalues --    0.11269   0.12812   0.13634   0.14683   0.15530
 Alpha virt. eigenvalues --    0.16780   0.17106   0.18316   0.23954   0.24525

 Mulliken charges:
               1
     1  O   -0.431400
     2  C   -0.075490
     3  C   -0.223867
     4  C   -0.029212
     5  C   -0.349615
     6  C    0.100760
     7  O   -0.433096
     8  C    0.349717
     9  C   -0.442276
    10  H    0.301993
    11  H    0.095040
    12  H    0.110500
    13  H    0.110009
    14  H    0.098316
    15  H    0.114382
    16  H    0.117302
    17  H    0.100409
    18  H    0.289935
    19  H    0.196595
 Sum of Mulliken charges =   0.00000

 Dipole moment (field-independent basis, Debye):
    X=             -2.0422    Y=             -1.4797    Z=             -0.1446  Tot=              2.5261
 Quadrupole moment (field-independent basis, Debye-Ang):
   XX=            -45.1302   YY=            -55.7956   ZZ=            -52.2975
   XY=             -3.5092   XZ=              2.7053   YZ=              0.4292

  Exact polarizability: 107.979  -5.168  66.985  -3.570   1.157  60.230
 Approx polarizability: 142.209 -11.669  99.339  -8.927   2.275  94.795

                      1                      2                      3
                      A                      A                      A
 Frequencies --     56.9094                81.0162               108.1690
 Red. masses --      4.9449                 5.1192                 2.9496
 Frc consts  --      0.0094                 0.0198                 0.0203
 IR Inten    --      0.7288                 1.6777                 2.3567

                      4                      5                      6
                      A                      A                      A
 Frequencies --    162.3877               246.3699               287.0762
 Red. masses --      4.6011                 4.4130                 2.0925
 Frc consts  --      0.0715                 0.1578                 0.1016
 IR Inten    --      0.0921                 6.6284                28.1902

                      7                      8                      9
                      A                      A                      A
 Frequencies --    311.4897               335.6539               372.0501
 Red. masses --      2.5347                 1.4396                 1.2685
 Frc consts  --      0.1449                 0.0956                 0.1035
 IR Inten    --      8.1721                64.4826               128.9006

                     10                     11                     12
                      A                      A                      A
 Frequencies --    386.2821               427.5442               489.0798
 Red. masses --      2.9350                 2.4312                 2.6776
 Frc consts  --      0.2580                 0.2618                 0.3774
 IR Inten    --     21.5884                11.9228                 1.1862

                     13                     14                     15
                      A                      A                      A
 Frequencies --    544.5384               571.8550               623.5487
 Red. masses --      3.7886                 5.0796                 1.2190
 Frc consts  --      0.6619                 0.9787                 0.2792
 IR Inten    --      8.0513                 2.6856                46.0773

                     16                     17                     18
                      A                      A                      A
 Frequencies --    671.4379               806.5618               810.4496
 Red. masses --      1.2569                 1.8768                 2.3476
 Frc consts  --      0.3339                 0.7194                 0.9085
 IR Inten    --     35.0314                 1.2907                 5.5120

                     19                     20                     21
                      A                      A                      A
 Frequencies --    870.2626               904.6543               949.6645
 Red. masses --      2.2961                 1.9049                 2.9239
 Frc consts  --      1.0246                 0.9185                 1.5537
 IR Inten    --      1.1660                20.7086                30.4709

                     22                     23                     24
                      A                      A                      A
 Frequencies --    969.3946              1010.7523              1040.1033
 Red. masses --      2.2030                 2.3028                 1.2895
 Frc consts  --      1.2197                 1.3861                 0.8219
 IR Inten    --     18.2619                 8.2999                 4.8538

                     25                     26                     27
                      A                      A                      A
 Frequencies --   1083.4296              1104.0216              1115.9004
 Red. masses --      3.2547                 1.6859                 1.5624
 Frc consts  --      2.2510                 1.2107                 1.1463
 IR Inten    --     22.7134                48.9980                23.2145

                     28                     29                     30
                      A                      A                      A
 Frequencies --   1146.8601              1183.5515              1221.1861
 Red. masses --      1.8693                 2.2897                 1.7064
 Frc consts  --      1.4486                 1.8898                 1.4993
 IR Inten    --      8.9401                19.7706                43.0645

                     31                     32                     33
                      A                      A                      A
 Frequencies --   1244.1677              1259.2976              1293.8952
 Red. masses --      1.3664                 1.0577                 1.2670
 Frc consts  --      1.2462                 0.9883                 1.2497
 IR Inten    --     10.7604                41.3258                55.7586

                     34                     35                     36
                      A                      A                      A
 Frequencies --   1308.0127              1354.2748              1378.3059
 Red. masses --      1.2555                 1.2596                 1.3305
 Frc consts  --      1.2656                 1.3611                 1.4892
 IR Inten    --     20.8350                 4.6875                 3.2170

                     37                     38                     39
                      A                      A                      A
 Frequencies --   1432.3432              1439.7729              1477.7685
 Red. masses --      1.3968                 1.3662                 1.1069
 Frc consts  --      1.6884                 1.6687                 1.4242
 IR Inten    --     30.5117                12.1323                 3.7413

                     40                     41                     42
                      A                      A                      A
 Frequencies --   1498.0900              2244.1175              2948.1616
 Red. masses --      1.8323                 5.9042                 1.0808
 Frc consts  --      2.4228                17.5186                 5.5348
 IR Inten    --     15.6970                 0.9985                36.1045

                     43                     44                     45
                      A                      A                      A
 Frequencies --   3037.2296              3082.0656              3105.6318
 Red. masses --      1.0597                 1.1026                 1.0871
 Frc consts  --      5.7598                 6.1707                 6.1776
 IR Inten    --     18.0832                15.5794                22.0921

                     46                     47                     48
                      A                      A                      A
 Frequencies --   3130.8371              3134.4766              3222.5687
 Red. masses --      1.0553                 1.0871                 1.1167
 Frc consts  --      6.0944                 6.2931                 6.8326
 IR Inten    --     11.9528                10.8215                 7.4881

                     49                     50                     51
                      A                      A                      A
 Frequencies --   3504.8802              3800.9824              3801.8005
 Red. masses --      1.1633                 1.0659                 1.0661
 Frc consts  --      8.4196                 9.0732                 9.0791
 IR Inten    --     63.6218                44.5024                10.8484

 - Thermochemistry -
 -------------------
 Temperature   298.150 Kelvin.  Pressure   1.00000 Atm.
 Atom     1 has atomic number  8 and mass  15.99491

 Molecular mass:   126.06808 amu.
 Principal axes and moments of inertia in atomic units:
                           1         2         3
     Eigenvalues --   458.672742193.037092513.10182
           X            0.99999   0.00160   0.00285
           Y           -0.00162   0.99995   0.00976
           Z           -0.00283  -0.00977   0.99995
 This molecule is an asymmetric top.
 Rotational symmetry number  1.
 Warning -- assumption of classical behavior for rotation
           may cause significant error
 Rotational temperatures (Kelvin)      0.18884     0.03949     0.03446
 Rotational constants (GHZ):           3.93470     0.82294     0.71813
 Zero-point vibrational energy     410264.6 (Joules/Mol)
                                   98.05559 (Kcal/Mol)
 Warning -- explicit consideration of  14 degrees of freedom as
           vibrations may cause significant error
 Vibrational temperatures:     81.88   116.56   155.63   233.64   354.47
          (Kelvin)            413.04   448.16   482.93   535.30   555.77
                              615.14   703.68   783.47   822.77   897.15
                              966.05  1160.46  1166.05  1252.11  1301.59
                             1366.35  1394.74  1454.25  1496.47  1558.81
                             1588.44  1605.53  1650.07  1702.86  1757.01
                             1790.08  1811.85  1861.62  1881.94  1948.50
                             1983.07  2060.82  2071.51  2126.18  2155.41
                             3228.78  4241.74  4369.89  4434.40  4468.31
                             4504.57  4509.81  4636.55  5042.73  5468.76
                             5469.94

 Zero-point correction=                           0.156262 (Hartree/Particle)
 Thermal correction to Energy=                    0.166194
 Thermal correction to Enthalpy=                  0.167138
 Thermal correction to Gibbs Free Energy=         0.121107
 Sum of electronic and zero-point Energies=           -422.962055
 Sum of electronic and thermal Energies=              -422.952123
 Sum of electronic and thermal Enthalpies=            -422.951178
 Sum of electronic and thermal Free Energies=         -422.997209

                     E (Thermal)             CV                S
                      KCal/Mol        Cal/Mol-Kelvin    Cal/Mol-Kelvin
 Total                  104.288             36.851             96.880
 Electronic               0.000              0.000              0.000
 Translational            0.889              2.981             40.409
 Rotational               0.889              2.981             29.315
 Vibrational            102.511             30.889             27.157
 Vibration     1          0.596              1.975              4.562
 Vibration     2          0.600              1.962              3.866
 Vibration     3          0.606              1.943              3.302
 Vibration     4          0.622              1.889              2.522
 Vibration     5          0.661              1.769              1.756
 Vibration     6          0.684              1.698              1.491
 Vibration     7          0.700              1.652              1.354
 Vibration     8          0.717              1.604              1.233
 Vibration     9          0.744              1.530              1.071
 Vibration    10          0.755              1.499              1.014
 Vibration    11          0.789              1.410              0.867
 Vibration    12          0.845              1.274              0.686
 Vibration    13          0.900              1.152              0.556
 Vibration    14          0.928              1.092              0.501

 Normal termination of Gaussian 09 at Mon Jan 27 16:30:50 2020.
