 Gaussian 09, Revision D.01,
 Gaussian 09:  ES64L-G09RevD.01 24-Apr-2013

 -----------------------------
 # b3lyp 6-31G(2df,p) opt Freq
 -----------------------------

 -----
 titel
 -----
 Symbolic Z-matrix:
 Charge =  0 Multiplicity = 1

 SCF Done:  E(RB3LYP) =  -423.159146217     A.U. after   13 cycles
 Optimization completed.
    -- Stationary point found.
 Normal termination of Gaussian 09 at Mon Jan 27 12:04:58 2020.

 ----------------------------------------------------------------------
 #N Geom=AllCheck Guess=TCheck SCRF=Check GenChk RB3LYP/6-31G(2df,p) Fr
 eq
 ----------------------------------------------------------------------

 Structure from the checkpoint file:  "/scratch/puck/g09_87e52fc9-7783-4fea-b1a5-142d1f4bc7a0/Gau-24911.chk"
 -----
 titel
 -----
 Charge =  0 Multiplicity = 1

                         Standard orientation:
 ---------------------------------------------------------------------
 Center     Atomic      Atomic             Coordinates (Angstroms)
 Number     Number       Type             X           Y           Z
 ---------------------------------------------------------------------
      1          6           0        1.494368   -1.312418   -0.609009
      2          8           0        1.297426   -1.213752    0.807934
      3          6           0        0.266088   -0.732293   -0.060256
      4          6           0       -1.094073   -1.428696   -0.063139
      5          6           0       -2.102873   -0.310292    0.281507
      6          6           0       -1.479877    0.953163   -0.343531
      7          6           0        0.005009    0.766924   -0.072011
      8          6           0        0.814891    1.688562    0.734197
      9          8           0        0.958330    1.623001   -0.692946
     10          1           0        2.251096   -0.648642   -1.021562
     11          1           0        1.476006   -2.324753   -1.012105
     12          1           0       -1.303779   -1.828167   -1.062095
     13          1           0       -1.107378   -2.265552    0.638781
     14          1           0       -3.109587   -0.517269   -0.088757
     15          1           0       -2.170716   -0.189657    1.368564
     16          1           0       -1.646642    0.964570   -1.428071
     17          1           0       -1.873515    1.887861    0.062314
     18          1           0        0.364526    2.604908    1.113814
     19          1           0        1.652741    1.293017    1.302679
 ---------------------------------------------------------------------

 SCF Done:  E(RB3LYP) =  -423.159146217     A.U. after    1 cycles

 The electronic state is 1-A.
 Alpha  occ. eigenvalues --  -19.15138 -19.14989 -10.24070 -10.24036 -10.22968
 Alpha  occ. eigenvalues --  -10.22907 -10.19122 -10.18947 -10.18944  -1.07828
 Alpha  occ. eigenvalues --   -1.06096  -0.83227  -0.71175  -0.68887  -0.66549
 Alpha  occ. eigenvalues --   -0.64264  -0.59047  -0.54188  -0.50928  -0.49738
 Alpha  occ. eigenvalues --   -0.46715  -0.46259  -0.42996  -0.42050  -0.40899
 Alpha  occ. eigenvalues --   -0.37959  -0.36457  -0.35453  -0.34941  -0.34384
 Alpha  occ. eigenvalues --   -0.31330  -0.28776  -0.27968  -0.24793
 Alpha virt. eigenvalues --    0.05461   0.08730   0.10542   0.11321   0.12647
 Alpha virt. eigenvalues --    0.12928   0.14143   0.15312   0.16391   0.16618
 Alpha virt. eigenvalues --    0.17035   0.18048   0.19757   0.20015   0.22152

 Mulliken charges:
               1
     1  C   -0.250136
     2  O   -0.280823
     3  C    0.379712
     4  C   -0.312316
     5  C   -0.220767
     6  C   -0.319756
     7  C    0.398793
     8  C   -0.245734
     9  O   -0.295088
    10  H    0.129217
    11  H    0.110970
    12  H    0.110135
    13  H    0.118600
    14  H    0.103239
    15  H    0.110300
    16  H    0.113566
    17  H    0.107117
    18  H    0.111535
    19  H    0.131436
 Sum of Mulliken charges =   0.00000

 Dipole moment (field-independent basis, Debye):
    X=             -1.7749    Y=             -0.3672    Z=             -0.1493  Tot=              1.8186
 Quadrupole moment (field-independent basis, Debye-Ang):
   XX=            -52.5767   YY=            -53.0583   ZZ=            -53.7937
   XY=             -0.5251   XZ=             -0.6308   YZ=              5.4701

  Exact polarizability:  80.368  -0.483  78.677  -0.239   5.803  63.842
 Approx polarizability: 109.038   0.138 106.544   0.230   4.789 105.820

                      1                      2                      3
                      A                      A                      A
 Frequencies --     50.7459               177.3900               249.1843
 Red. masses --      3.0343                 2.2347                 4.1679
 Frc consts  --      0.0046                 0.0414                 0.1525
 IR Inten    --      1.8389                 0.7074                 0.8210

                      4                      5                      6
                      A                      A                      A
 Frequencies --    261.4367               320.5295               377.4316
 Red. masses --      3.0140                 2.7066                 2.0743
 Frc consts  --      0.1214                 0.1638                 0.1741
 IR Inten    --     10.5666                 2.9550                 0.4975

                      7                      8                      9
                      A                      A                      A
 Frequencies --    400.9857               498.4965               545.1846
 Red. masses --      3.7957                 3.8304                 3.1072
 Frc consts  --      0.3596                 0.5608                 0.5441
 IR Inten    --      0.5696                 5.7643                 2.7377

                     10                     11                     12
                      A                      A                      A
 Frequencies --    554.8375               614.0475               786.1094
 Red. masses --      4.0286                 2.5539                 2.1864
 Frc consts  --      0.7307                 0.5674                 0.7961
 IR Inten    --      9.7634                 0.6998                 9.0659

                     13                     14                     15
                      A                      A                      A
 Frequencies --    826.1489               859.0649               873.6579
 Red. masses --      1.8943                 2.5604                 2.8122
 Frc consts  --      0.7618                 1.1133                 1.2647
 IR Inten    --      4.2063                22.7944                15.5047

                     16                     17                     18
                      A                      A                      A
 Frequencies --    901.2946               917.3836               929.9146
 Red. masses --      2.1562                 3.2265                 2.4014
 Frc consts  --      1.0320                 1.5999                 1.2235
 IR Inten    --      0.9209                14.2272                23.7050

                     19                     20                     21
                      A                      A                      A
 Frequencies --    954.2062               979.2509              1013.7204
 Red. masses --      1.4294                 3.1188                 1.9320
 Frc consts  --      0.7668                 1.7621                 1.1698
 IR Inten    --      0.3160                 7.5269                 3.8828

                     22                     23                     24
                      A                      A                      A
 Frequencies --   1082.9020              1103.0113              1131.6725
 Red. masses --      2.0635                 1.7737                 1.2717
 Frc consts  --      1.4257                 1.2714                 0.9595
 IR Inten    --     13.1801                 6.2123                 2.7149

                     25                     26                     27
                      A                      A                      A
 Frequencies --   1137.7708              1162.6660              1167.6341
 Red. masses --      1.3699                 1.3206                 1.4482
 Frc consts  --      1.0449                 1.0518                 1.1633
 IR Inten    --      3.0754                 0.9438                 3.1793

                     28                     29                     30
                      A                      A                      A
 Frequencies --   1176.3598              1206.2825              1235.9303
 Red. masses --      1.5278                 1.4867                 1.9510
 Frc consts  --      1.2457                 1.2746                 1.7559
 IR Inten    --      2.2018                 0.7192                 7.1199

                     31                     32                     33
                      A                      A                      A
 Frequencies --   1265.1456              1313.3341              1319.7995
 Red. masses --      2.0982                 1.3769                 1.4510
 Frc consts  --      1.9787                 1.3993                 1.4891
 IR Inten    --      4.1158                 2.3987                 0.5994

                     34                     35                     36
                      A                      A                      A
 Frequencies --   1338.6702              1413.7378              1426.8538
 Red. masses --      1.3432                 2.6035                 2.7485
 Frc consts  --      1.4182                 3.0658                 3.2969
 IR Inten    --      1.9426                 5.4432                 5.1047

                     37                     38                     39
                      A                      A                      A
 Frequencies --   1476.7235              1487.9966              1503.2606
 Red. masses --      1.0891                 1.0936                 1.1031
 Frc consts  --      1.3993                 1.4266                 1.4688
 IR Inten    --      3.3189                 2.9176                 0.9146

                     40                     41                     42
                      A                      A                      A
 Frequencies --   1518.6454              1526.1368              3034.1272
 Red. masses --      1.4172                 1.4444                 1.0676
 Frc consts  --      1.9258                 1.9821                 5.7905
 IR Inten    --      4.9733                 2.7875                15.6425

                     43                     44                     45
                      A                      A                      A
 Frequencies --   3040.1276              3047.3918              3082.6602
 Red. masses --      1.0684                 1.0618                 1.0512
 Frc consts  --      5.8177                 5.8097                 5.8856
 IR Inten    --     14.8058                30.9075                27.5629

                     46                     47                     48
                      A                      A                      A
 Frequencies --   3088.3485              3100.1493              3103.7877
 Red. masses --      1.0520                 1.0945                 1.0980
 Frc consts  --      5.9119                 6.1977                 6.2323
 IR Inten    --     23.8692                22.5799                24.0291

                     49                     50                     51
                      A                      A                      A
 Frequencies --   3110.9088              3179.0589              3189.3963
 Red. masses --      1.1026                 1.1184                 1.1181
 Frc consts  --      6.2869                 6.6596                 6.7010
 IR Inten    --     27.1581                13.1364                11.8028

 - Thermochemistry -
 -------------------
 Temperature   298.150 Kelvin.  Pressure   1.00000 Atm.
 Atom     1 has atomic number  6 and mass  12.00000

 Molecular mass:   126.06808 amu.
 Principal axes and moments of inertia in atomic units:
                           1         2         3
     Eigenvalues --   858.80535 880.069031440.13668
           X            0.99992   0.01140  -0.00614
           Y           -0.01113   0.99906   0.04187
           Z            0.00661  -0.04180   0.99910
 This molecule is an asymmetric top.
 Rotational symmetry number  1.
 Warning -- assumption of classical behavior for rotation
           may cause significant error
 Rotational temperatures (Kelvin)      0.10085     0.09842     0.06014
 Rotational constants (GHZ):           2.10146     2.05068     1.25317
 Zero-point vibrational energy     419060.9 (Joules/Mol)
                                  100.15796 (Kcal/Mol)
 Warning -- explicit consideration of  11 degrees of freedom as
           vibrations may cause significant error
 Vibrational temperatures:     73.01   255.22   358.52   376.15   461.17
          (Kelvin)            543.04   576.93   717.22   784.40   798.29
                              883.48  1131.03  1188.64  1236.00  1257.00
                             1296.76  1319.91  1337.94  1372.89  1408.92
                             1458.52  1558.05  1586.99  1628.22  1637.00
                             1672.81  1679.96  1692.52  1735.57  1778.23
                             1820.26  1889.59  1898.89  1926.05  2034.05
                             2052.92  2124.67  2140.89  2162.85  2184.99
                             2195.77  4365.43  4374.06  4384.51  4435.25
                             4443.44  4460.42  4465.65  4475.90  4573.95
                             4588.82

 Zero-point correction=                           0.159612 (Hartree/Particle)
 Thermal correction to Energy=                    0.167437
 Thermal correction to Enthalpy=                  0.168381
 Thermal correction to Gibbs Free Energy=         0.127053
 Sum of electronic and zero-point Energies=           -422.999534
 Sum of electronic and thermal Energies=              -422.991709
 Sum of electronic and thermal Enthalpies=            -422.990765
 Sum of electronic and thermal Free Energies=         -423.032093

                     E (Thermal)             CV                S
                      KCal/Mol        Cal/Mol-Kelvin    Cal/Mol-Kelvin
 Total                  105.068             30.763             86.983
 Electronic               0.000              0.000              0.000
 Translational            0.889              2.981             40.409
 Rotational               0.889              2.981             28.478
 Vibrational            103.291             24.801             18.097
 Vibration     1          0.595              1.977              4.788
 Vibration     2          0.628              1.870              2.356
 Vibration     3          0.662              1.764              1.736
 Vibration     4          0.669              1.743              1.652
 Vibration     5          0.706              1.634              1.307
 Vibration     6          0.748              1.518              1.049
 Vibration     7          0.767              1.468              0.959
 Vibration     8          0.854              1.253              0.662
 Vibration     9          0.900              1.150              0.554
 Vibration    10          0.910              1.129              0.534
 Vibration    11          0.973              1.002              0.426

 Normal termination of Gaussian 09 at Mon Jan 27 12:55:13 2020.
