 Gaussian 09, Revision D.01,
 Gaussian 09:  ES64L-G09RevD.01 24-Apr-2013

 -----------------------------
 # b3lyp 6-31G(2df,p) opt Freq
 -----------------------------

 -----
 titel
 -----
 Symbolic Z-matrix:
 Charge =  0 Multiplicity = 1

 SCF Done:  E(RB3LYP) =  -423.154284211     A.U. after   12 cycles
 Optimization completed.
    -- Stationary point found.
 Normal termination of Gaussian 09 at Mon Jan 27 23:53:04 2020.

 ----------------------------------------------------------------------
 #N Geom=AllCheck Guess=TCheck SCRF=Check GenChk RB3LYP/6-31G(2df,p) Fr
 eq
 ----------------------------------------------------------------------

 Structure from the checkpoint file:  "/scratch/puck/g09_98157e68-276e-40b6-a9eb-057e23a98f1b/Gau-194161.chk"
 -----
 titel
 -----
 Charge =  0 Multiplicity = 1

                         Standard orientation:
 ---------------------------------------------------------------------
 Center     Atomic      Atomic             Coordinates (Angstroms)
 Number     Number       Type             X           Y           Z
 ---------------------------------------------------------------------
      1          6           0       -3.127986   -0.301804   -0.016551
      2          6           0       -1.705138    0.021979    0.380537
      3          6           0       -0.770336    0.703026   -0.586139
      4          8           0        0.253110    1.499807   -0.024474
      5          6           0        1.211428    0.661012    0.598593
      6          6           0        2.380455    0.175927   -0.288488
      7          8           0        1.871834   -1.178004   -0.293633
      8          6           0        0.736550   -0.810393    0.522289
      9          6           0       -0.558135   -0.745976   -0.257048
     10          1           0       -3.505260   -1.174305    0.527987
     11          1           0       -3.797235    0.540102    0.189973
     12          1           0       -3.197315   -0.527197   -1.086088
     13          1           0       -1.566944    0.311123    1.420626
     14          1           0       -1.115658    1.064154   -1.548763
     15          1           0        1.482010    1.084652    1.567022
     16          1           0        2.402072    0.625278   -1.287705
     17          1           0        3.377216    0.230429    0.164976
     18          1           0        0.689582   -1.408359    1.439195
     19          1           0       -0.769050   -1.542924   -0.961530
 ---------------------------------------------------------------------

 SCF Done:  E(RB3LYP) =  -423.154284211     A.U. after    1 cycles

 The electronic state is 1-A.
 Alpha  occ. eigenvalues --  -19.14601 -19.13313 -10.23788 -10.23767 -10.23414
 Alpha  occ. eigenvalues --  -10.22700 -10.19537 -10.19049 -10.18410  -1.05955
 Alpha  occ. eigenvalues --   -1.02288  -0.85851  -0.73884  -0.72511  -0.68647
 Alpha  occ. eigenvalues --   -0.59552  -0.58632  -0.55771  -0.52300  -0.48969
 Alpha  occ. eigenvalues --   -0.46516  -0.45231  -0.43238  -0.41412  -0.41051
 Alpha  occ. eigenvalues --   -0.39286  -0.38033  -0.36925  -0.36199  -0.31303
 Alpha  occ. eigenvalues --   -0.30220  -0.27988  -0.25288  -0.23215
 Alpha virt. eigenvalues --    0.07665   0.09653   0.10011   0.10750   0.11628
 Alpha virt. eigenvalues --    0.13554   0.15056   0.15452   0.15818   0.16469
 Alpha virt. eigenvalues --    0.17657   0.18148   0.18841   0.20164   0.20904

 Mulliken charges:
               1
     1  C   -0.417970
     2  C   -0.053095
     3  C    0.085072
     4  O   -0.273401
     5  C    0.050111
     6  C   -0.097704
     7  O   -0.296134
     8  C    0.079350
     9  C   -0.114020
    10  H    0.122237
    11  H    0.123227
    12  H    0.117230
    13  H    0.089341
    14  H    0.099469
    15  H    0.092203
    16  H    0.109755
    17  H    0.102997
    18  H    0.080946
    19  H    0.100388
 Sum of Mulliken charges =   0.00000

 Dipole moment (field-independent basis, Debye):
    X=             -0.9213    Y=              0.0535    Z=              0.6123  Tot=              1.1075
 Quadrupole moment (field-independent basis, Debye-Ang):
   XX=            -50.8098   YY=            -58.0462   ZZ=            -50.5812
   XY=              3.6353   XZ=              2.1167   YZ=             -0.8996

  Exact polarizability:  93.933   2.633  65.036   0.188  -1.468  65.431
 Approx polarizability: 115.193   1.045 104.305  -1.346  -1.600 100.098

                      1                      2                      3
                      A                      A                      A
 Frequencies --     85.2864               164.2628               200.7103
 Red. masses --      3.0807                 2.3444                 1.3935
 Frc consts  --      0.0132                 0.0373                 0.0331
 IR Inten    --      3.3273                 2.0308                 1.6632

                      4                      5                      6
                      A                      A                      A
 Frequencies --    221.0576               281.6102               367.6660
 Red. masses --      2.5114                 2.4750                 2.8276
 Frc consts  --      0.0723                 0.1156                 0.2252
 IR Inten    --      0.8231                 0.2901                 2.2925

                      7                      8                      9
                      A                      A                      A
 Frequencies --    396.7563               452.5335               668.7285
 Red. masses --      4.5014                 3.5595                 5.9216
 Frc consts  --      0.4175                 0.4295                 1.5602
 IR Inten    --      5.1930                 2.2495                 3.8348

                     10                     11                     12
                      A                      A                      A
 Frequencies --    737.2750               795.4168               823.8290
 Red. masses --      5.1669                 2.2350                 1.9748
 Frc consts  --      1.6548                 0.8331                 0.7897
 IR Inten    --      7.1525                 4.3326                17.8580

                     13                     14                     15
                      A                      A                      A
 Frequencies --    842.7259               872.5667               893.8568
 Red. masses --      2.4642                 2.0069                 1.8336
 Frc consts  --      1.0311                 0.9002                 0.8631
 IR Inten    --      2.7438                 5.8357                 6.8710

                     16                     17                     18
                      A                      A                      A
 Frequencies --    929.6536               964.4128              1001.1806
 Red. masses --      2.6301                 2.6592                 2.2144
 Frc consts  --      1.3393                 1.4572                 1.3078
 IR Inten    --      6.5515                 2.7554                 0.7053

                     19                     20                     21
                      A                      A                      A
 Frequencies --   1012.6191              1019.2630              1060.9095
 Red. masses --      2.0097                 6.9095                 1.7544
 Frc consts  --      1.2142                 4.2293                 1.1634
 IR Inten    --      9.9687               107.7295                 7.2768

                     22                     23                     24
                      A                      A                      A
 Frequencies --   1066.9306              1082.5733              1089.0798
 Red. masses --      2.2399                 1.5761                 1.8213
 Frc consts  --      1.5023                 1.0883                 1.2727
 IR Inten    --     40.0436                 2.4851                15.7753

                     25                     26                     27
                      A                      A                      A
 Frequencies --   1123.1912              1134.8873              1158.1929
 Red. masses --      1.8925                 2.2586                 2.0388
 Frc consts  --      1.4067                 1.7140                 1.6114
 IR Inten    --     19.6414                17.6761                48.8315

                     28                     29                     30
                      A                      A                      A
 Frequencies --   1167.1483              1204.7561              1241.2276
 Red. masses --      1.3859                 1.8155                 1.8507
 Frc consts  --      1.1124                 1.5526                 1.6799
 IR Inten    --     46.6498                 8.6775                 3.6200

                     31                     32                     33
                      A                      A                      A
 Frequencies --   1260.9524              1286.3165              1298.6133
 Red. masses --      1.5041                 1.3797                 1.2893
 Frc consts  --      1.4090                 1.3450                 1.2810
 IR Inten    --      1.9034                 0.5093                 3.4970

                     34                     35                     36
                      A                      A                      A
 Frequencies --   1322.9030              1343.6641              1379.4850
 Red. masses --      1.4286                 1.3546                 1.4846
 Frc consts  --      1.4731                 1.4409                 1.6645
 IR Inten    --     32.6480                 2.4066                 1.7848

                     37                     38                     39
                      A                      A                      A
 Frequencies --   1416.3955              1437.5550              1493.3311
 Red. masses --      1.2349                 2.4530                 1.0470
 Frc consts  --      1.4597                 2.9867                 1.3757
 IR Inten    --      2.2316                 6.8079                 3.0042

                     40                     41                     42
                      A                      A                      A
 Frequencies --   1501.5991              1512.9891              3022.5451
 Red. masses --      1.0688                 1.0985                 1.0556
 Frc consts  --      1.4199                 1.4816                 5.6821
 IR Inten    --      5.8229                 0.8532                73.3192

                     43                     44                     45
                      A                      A                      A
 Frequencies --   3028.4581              3045.5266              3074.7841
 Red. masses --      1.0350                 1.0868                 1.1094
 Frc consts  --      5.5931                 5.9389                 6.1797
 IR Inten    --     32.4012                37.9583                19.1008

                     46                     47                     48
                      A                      A                      A
 Frequencies --   3092.4199              3096.0765              3100.7512
 Red. masses --      1.1007                 1.1004                 1.0906
 Frc consts  --      6.2017                 6.2148                 6.1779
 IR Inten    --     21.3161                18.4265                49.2129

                     49                     50                     51
                      A                      A                      A
 Frequencies --   3128.9201              3167.8584              3178.2134
 Red. masses --      1.0891                 1.0888                 1.0932
 Frc consts  --      6.2824                 6.4375                 6.5063
 IR Inten    --     18.8995                13.5110                11.0863

 - Thermochemistry -
 -------------------
 Temperature   298.150 Kelvin.  Pressure   1.00000 Atm.
 Atom     1 has atomic number  6 and mass  12.00000

 Molecular mass:   126.06808 amu.
 Principal axes and moments of inertia in atomic units:
                           1         2         3
     Eigenvalues --   443.623251440.947571672.11020
           X            0.99974   0.02213   0.00528
           Y           -0.02207   0.99969  -0.01117
           Z           -0.00552   0.01105   0.99992
 This molecule is an asymmetric top.
 Rotational symmetry number  1.
 Warning -- assumption of classical behavior for rotation
           may cause significant error
 Rotational temperatures (Kelvin)      0.19524     0.06011     0.05180
 Rotational constants (GHZ):           4.06818     1.25247     1.07932
 Zero-point vibrational energy     420186.3 (Joules/Mol)
                                  100.42694 (Kcal/Mol)
 Warning -- explicit consideration of   8 degrees of freedom as
           vibrations may cause significant error
 Vibrational temperatures:    122.71   236.34   288.78   318.05   405.17
          (Kelvin)            528.99   570.84   651.09   962.15  1060.77
                             1144.43  1185.30  1212.49  1255.43  1286.06
                             1337.56  1387.57  1440.47  1456.93  1466.49
                             1526.41  1535.07  1557.58  1566.94  1616.02
                             1632.85  1666.38  1679.26  1733.37  1785.85
                             1814.23  1850.72  1868.41  1903.36  1933.23
                             1984.77  2037.87  2068.32  2148.57  2160.46
                             2176.85  4348.76  4357.27  4381.83  4423.92
                             4449.30  4454.56  4461.28  4501.81  4557.84
                             4572.73

 Zero-point correction=                           0.160041 (Hartree/Particle)
 Thermal correction to Energy=                    0.167774
 Thermal correction to Enthalpy=                  0.168718
 Thermal correction to Gibbs Free Energy=         0.127689
 Sum of electronic and zero-point Energies=           -422.994244
 Sum of electronic and thermal Energies=              -422.986510
 Sum of electronic and thermal Enthalpies=            -422.985566
 Sum of electronic and thermal Free Energies=         -423.026596

                     E (Thermal)             CV                S
                      KCal/Mol        Cal/Mol-Kelvin    Cal/Mol-Kelvin
 Total                  105.280             29.891             86.354
 Electronic               0.000              0.000              0.000
 Translational            0.889              2.981             40.409
 Rotational               0.889              2.981             28.460
 Vibrational            103.502             23.929             17.485
 Vibration     1          0.601              1.959              3.765
 Vibration     2          0.623              1.886              2.500
 Vibration     3          0.638              1.839              2.127
 Vibration     4          0.648              1.809              1.950
 Vibration     5          0.681              1.708              1.524
 Vibration     6          0.740              1.539              1.090
 Vibration     7          0.763              1.477              0.975
 Vibration     8          0.811              1.355              0.788

 Normal termination of Gaussian 09 at Tue Jan 28 00:36:23 2020.
