 Gaussian 09, Revision D.01,
 Gaussian 09:  ES64L-G09RevD.01 24-Apr-2013

 -----------------------------
 # b3lyp 6-31G(2df,p) opt Freq
 -----------------------------

 -----
 titel
 -----
 Symbolic Z-matrix:
 Charge =  0 Multiplicity = 1

 SCF Done:  E(RB3LYP) =  -423.161483010     A.U. after   14 cycles
 Optimization completed.
    -- Stationary point found.
 Normal termination of Gaussian 09 at Tue Jan 28 08:46:13 2020.

 ----------------------------------------------------------------------
 #N Geom=AllCheck Guess=TCheck SCRF=Check GenChk RB3LYP/6-31G(2df,p) Fr
 eq
 ----------------------------------------------------------------------

 Structure from the checkpoint file:  "/scratch/puck/g09_9a85c59e-6317-497a-8c85-e3d328bea69e/Gau-129402.chk"
 -----
 titel
 -----
 Charge =  0 Multiplicity = 1

                         Standard orientation:
 ---------------------------------------------------------------------
 Center     Atomic      Atomic             Coordinates (Angstroms)
 Number     Number       Type             X           Y           Z
 ---------------------------------------------------------------------
      1          6           0       -2.243112   -0.708147   -0.729629
      2          6           0       -1.670454    0.575619   -0.115120
      3          6           0       -0.141428    0.629101    0.061875
      4          6           0        0.307145    1.961323    0.657072
      5          6           0        0.679109    0.123525   -1.152474
      6          8           0        2.034202    0.046800   -0.731278
      7          6           0        1.179274   -1.083883   -0.446345
      8          6           0        0.379882   -0.666232    0.784059
      9          8           0        0.106181   -1.187543    1.824248
     10          1           0       -3.331298   -0.633066   -0.810822
     11          1           0       -1.852111   -0.893700   -1.735139
     12          1           0       -2.020187   -1.584598   -0.113577
     13          1           0       -1.964739    1.437354   -0.728378
     14          1           0       -2.119079    0.734650    0.872381
     15          1           0       -0.066821    2.801507    0.061089
     16          1           0       -0.084220    2.071037    1.673566
     17          1           0        1.396465    2.021741    0.699982
     18          1           0        0.482132    0.238987   -2.211881
     19          1           0        1.494295   -2.055803   -0.807607
 ---------------------------------------------------------------------

 SCF Done:  E(RB3LYP) =  -423.161483010     A.U. after    1 cycles

 The electronic state is 1-A.
 Alpha  occ. eigenvalues --  -19.17546 -19.14681 -10.27691 -10.25517 -10.25119
 Alpha  occ. eigenvalues --  -10.21129 -10.19616 -10.18407 -10.18068  -1.10015
 Alpha  occ. eigenvalues --   -1.05326  -0.83419  -0.75146  -0.72558  -0.65111
 Alpha  occ. eigenvalues --   -0.63355  -0.60847  -0.51753  -0.49853  -0.49276
 Alpha  occ. eigenvalues --   -0.45321  -0.44873  -0.43318  -0.42302  -0.41117
 Alpha  occ. eigenvalues --   -0.40002  -0.37433  -0.37166  -0.35804  -0.34970
 Alpha  occ. eigenvalues --   -0.34160  -0.32074  -0.28451  -0.23858
 Alpha virt. eigenvalues --   -0.02865   0.07680   0.08415   0.09942   0.11956
 Alpha virt. eigenvalues --    0.12703   0.13822   0.14784   0.15374   0.16309
 Alpha virt. eigenvalues --    0.17478   0.17558   0.19077   0.20532   0.21019

 Mulliken charges:
               1
     1  C   -0.410330
     2  C   -0.224194
     3  C    0.130150
     4  C   -0.455178
     5  C    0.003348
     6  O   -0.236329
     7  C   -0.119256
     8  C    0.404991
     9  O   -0.314819
    10  H    0.121116
    11  H    0.115728
    12  H    0.135999
    13  H    0.101755
    14  H    0.120553
    15  H    0.115147
    16  H    0.131058
    17  H    0.139287
    18  H    0.117434
    19  H    0.123539
 Sum of Mulliken charges =   0.00000

 Dipole moment (field-independent basis, Debye):
    X=             -1.3493    Y=              0.6410    Z=             -2.3719  Tot=              2.8031
 Quadrupole moment (field-independent basis, Debye-Ang):
   XX=            -55.6285   YY=            -52.2886   ZZ=            -55.8555
   XY=             -1.9461   XZ=              0.8055   YZ=              3.6031

  Exact polarizability:  74.896  -3.023  76.729  -1.875  -1.110  72.660
 Approx polarizability: 107.773  -3.100 112.860  -5.890 -11.825 117.561

                      1                      2                      3
                      A                      A                      A
 Frequencies --     99.0723               123.8622               166.0573
 Red. masses --      2.6699                 3.0003                 3.4937
 Frc consts  --      0.0154                 0.0271                 0.0568
 IR Inten    --      1.3154                 3.4059                 0.8697

                      4                      5                      6
                      A                      A                      A
 Frequencies --    201.3262               214.1668               241.2895
 Red. masses --      1.2428                 2.1092                 1.8163
 Frc consts  --      0.0297                 0.0570                 0.0623
 IR Inten    --      1.7109                 0.9833                 0.8378

                      7                      8                      9
                      A                      A                      A
 Frequencies --    282.7958               287.0322               399.0708
 Red. masses --      1.6785                 3.2607                 3.0272
 Frc consts  --      0.0791                 0.1583                 0.2841
 IR Inten    --      0.2872                 3.8333                 2.1737

                     10                     11                     12
                      A                      A                      A
 Frequencies --    473.1923               540.0740               639.2987
 Red. masses --      3.6026                 4.1590                 4.5566
 Frc consts  --      0.4753                 0.7147                 1.0972
 IR Inten    --      3.4152                 6.1194                 2.9507

                     13                     14                     15
                      A                      A                      A
 Frequencies --    674.0823               753.7855               780.9362
 Red. masses --      3.9108                 3.1908                 1.6600
 Frc consts  --      1.0470                 1.0682                 0.5965
 IR Inten    --      2.8568                 4.6759                 2.1234

                     16                     17                     18
                      A                      A                      A
 Frequencies --    833.6405               849.6038               879.4320
 Red. masses --      4.3178                 1.9121                 2.7950
 Frc consts  --      1.7680                 0.8132                 1.2736
 IR Inten    --      8.6663                36.1248                 2.7060

                     19                     20                     21
                      A                      A                      A
 Frequencies --    918.7401               944.5191              1012.3501
 Red. masses --      1.9613                 1.9406                 2.2134
 Frc consts  --      0.9754                 1.0200                 1.3365
 IR Inten    --      4.5291                23.3349                10.0076

                     22                     23                     24
                      A                      A                      A
 Frequencies --   1019.5428              1050.3272              1060.6799
 Red. masses --      1.4386                 2.2875                 1.4586
 Frc consts  --      0.8811                 1.4868                 0.9668
 IR Inten    --      5.8996                 1.5314                 0.6537

                     25                     26                     27
                      A                      A                      A
 Frequencies --   1072.9338              1170.8154              1186.3759
 Red. masses --      1.6561                 3.5975                 2.0770
 Frc consts  --      1.1232                 2.9055                 1.7224
 IR Inten    --      7.7637                 3.6814                 2.3916

                     28                     29                     30
                      A                      A                      A
 Frequencies --   1195.9010              1220.3161              1284.6425
 Red. masses --      1.6708                 1.6626                 2.3489
 Frc consts  --      1.4079                 1.4588                 2.2839
 IR Inten    --      4.3408                 0.5146                 2.0189

                     31                     32                     33
                      A                      A                      A
 Frequencies --   1313.0735              1340.2528              1372.1396
 Red. masses --      1.3512                 2.9321                 1.5441
 Frc consts  --      1.3726                 3.1032                 1.7129
 IR Inten    --      4.1540                17.6291                 0.4592

                     34                     35                     36
                      A                      A                      A
 Frequencies --   1406.2405              1416.9002              1475.4733
 Red. masses --      1.2430                 1.2362                 1.0704
 Frc consts  --      1.4482                 1.4623                 1.3730
 IR Inten    --      3.2068                 3.7287                 1.2513

                     37                     38                     39
                      A                      A                      A
 Frequencies --   1492.5538              1500.8027              1503.4311
 Red. masses --      1.0588                 1.0495                 1.0485
 Frc consts  --      1.3897                 1.3928                 1.3963
 IR Inten    --      4.6599                 2.1829                 6.9043

                     40                     41                     42
                      A                      A                      A
 Frequencies --   1509.2929              1890.8252              3020.7900
 Red. masses --      1.0455                12.3831                 1.0618
 Frc consts  --      1.4032                26.0845                 5.7086
 IR Inten    --      7.0607               234.3850                18.3466

                     43                     44                     45
                      A                      A                      A
 Frequencies --   3034.0625              3040.3710              3062.6138
 Red. masses --      1.0385                 1.0360                 1.0989
 Frc consts  --      5.6324                 5.6423                 6.0727
 IR Inten    --     34.3427                19.0435                 7.4113

                     46                     47                     48
                      A                      A                      A
 Frequencies --   3098.2152              3107.8692              3112.9629
 Red. masses --      1.0997                 1.1010                 1.1018
 Frc consts  --      6.2194                 6.2656                 6.2907
 IR Inten    --     15.0013                31.5461                24.1741

                     49                     50                     51
                      A                      A                      A
 Frequencies --   3131.5531              3185.7661              3199.1277
 Red. masses --      1.1000                 1.0889                 1.1011
 Frc consts  --      6.3558                 6.5112                 6.6394
 IR Inten    --     10.9910                 8.0583                10.1908

 - Thermochemistry -
 -------------------
 Temperature   298.150 Kelvin.  Pressure   1.00000 Atm.
 Atom     1 has atomic number  6 and mass  12.00000

 Molecular mass:   126.06808 amu.
 Principal axes and moments of inertia in atomic units:
                           1         2         3
     Eigenvalues --   867.402431166.694981249.82018
           X            0.99899   0.00076   0.04483
           Y           -0.01710   0.93071   0.36536
           Z           -0.04145  -0.36576   0.92979
 This molecule is an asymmetric top.
 Rotational symmetry number  1.
 Warning -- assumption of classical behavior for rotation
           may cause significant error
 Rotational temperatures (Kelvin)      0.09985     0.07424     0.06930
 Rotational constants (GHZ):           2.08063     1.54688     1.44400
 Zero-point vibrational energy     411456.6 (Joules/Mol)
                                   98.34050 (Kcal/Mol)
 Warning -- explicit consideration of  11 degrees of freedom as
           vibrations may cause significant error
 Vibrational temperatures:    142.54   178.21   238.92   289.66   308.14
          (Kelvin)            347.16   406.88   412.97   574.17   680.82
                              777.05   919.81   969.85  1084.53  1123.59
                             1199.42  1222.39  1265.30  1321.86  1358.95
                             1456.54  1466.89  1511.18  1526.08  1543.71
                             1684.54  1706.93  1720.63  1755.76  1848.31
                             1889.22  1928.32  1974.20  2023.26  2038.60
                             2122.87  2147.45  2159.32  2163.10  2171.53
                             2720.47  4346.24  4365.33  4374.41  4406.41
                             4457.64  4471.52  4478.85  4505.60  4583.60
                             4602.83

 Zero-point correction=                           0.156716 (Hartree/Particle)
 Thermal correction to Energy=                    0.165851
 Thermal correction to Enthalpy=                  0.166795
 Thermal correction to Gibbs Free Energy=         0.123119
 Sum of electronic and zero-point Energies=           -423.004767
 Sum of electronic and thermal Energies=              -422.995632
 Sum of electronic and thermal Enthalpies=            -422.994688
 Sum of electronic and thermal Free Energies=         -423.038364

                     E (Thermal)             CV                S
                      KCal/Mol        Cal/Mol-Kelvin    Cal/Mol-Kelvin
 Total                  104.073             34.012             91.924
 Electronic               0.000              0.000              0.000
 Translational            0.889              2.981             40.409
 Rotational               0.889              2.981             28.627
 Vibrational            102.296             28.050             22.888
 Vibration     1          0.604              1.950              3.472
 Vibration     2          0.610              1.929              3.039
 Vibration     3          0.624              1.884              2.480
 Vibration     4          0.638              1.838              2.121
 Vibration     5          0.644              1.819              2.008
 Vibration     6          0.658              1.777              1.793
 Vibration     7          0.682              1.706              1.517
 Vibration     8          0.684              1.698              1.491
 Vibration     9          0.765              1.472              0.966
 Vibration    10          0.830              1.310              0.729
 Vibration    11          0.895              1.161              0.565

 Optimization completed.
    -- Stationary point found.
 Normal termination of Gaussian 09 at Tue Jan 28 09:30:26 2020.
