 Gaussian 09, Revision D.01,
 Gaussian 09:  ES64L-G09RevD.01 24-Apr-2013

 -----------------------------
 # b3lyp 6-31G(2df,p) opt Freq
 -----------------------------

 -----
 titel
 -----
 Symbolic Z-matrix:
 Charge =  0 Multiplicity = 1

 SCF Done:  E(RB3LYP) =  -423.172313241     A.U. after   14 cycles
 Optimization completed.
    -- Stationary point found.
 Normal termination of Gaussian 09 at Mon Jan 27 13:48:45 2020.

 ----------------------------------------------------------------------
 #N Geom=AllCheck Guess=TCheck SCRF=Check GenChk RB3LYP/6-31G(2df,p) Fr
 eq
 ----------------------------------------------------------------------

 Structure from the checkpoint file:  "/scratch/puck/g09_1d1bee1d-a9e4-440c-98d4-d2a5de80fc1b/Gau-49525.chk"
 -----
 titel
 -----
 Charge =  0 Multiplicity = 1

                         Standard orientation:
 ---------------------------------------------------------------------
 Center     Atomic      Atomic             Coordinates (Angstroms)
 Number     Number       Type             X           Y           Z
 ---------------------------------------------------------------------
      1          8           0       -3.586169   -0.100438   -0.210780
      2          6           0       -2.461561   -0.420417    0.079319
      3          6           0       -1.338783    0.547609    0.371250
      4          6           0       -0.089284    0.305710   -0.491064
      5          6           0        1.041423    1.365694   -0.248388
      6          6           0        2.133046    0.391325    0.235788
      7          6           0        2.085896   -0.756303   -0.795947
      8          6           0        0.739326   -0.937184   -0.065815
      9          8           0        1.384440   -0.467440    1.158718
     10          1           0       -2.182413   -1.498233    0.147944
     11          1           0       -1.723873    1.562327    0.233997
     12          1           0       -1.044573    0.430949    1.423795
     13          1           0       -0.368929    0.250212   -1.548179
     14          1           0        1.323022    1.913825   -1.151077
     15          1           0        0.773862    2.085163    0.528824
     16          1           0        3.056602    0.792944    0.651483
     17          1           0        2.090868   -0.518546   -1.862969
     18          1           0        2.789181   -1.553836   -0.556176
     19          1           0        0.239707   -1.900387    0.037998
 ---------------------------------------------------------------------

 SCF Done:  E(RB3LYP) =  -423.172313241     A.U. after    1 cycles

 The electronic state is 1-A.
 Alpha  occ. eigenvalues --  -19.14153 -19.13754 -10.26967 -10.24620 -10.24619
 Alpha  occ. eigenvalues --  -10.20614 -10.19633 -10.19303 -10.19229  -1.05626
 Alpha  occ. eigenvalues --   -1.04400  -0.81927  -0.76414  -0.71972  -0.68690
 Alpha  occ. eigenvalues --   -0.58620  -0.57300  -0.55028  -0.52998  -0.49143
 Alpha  occ. eigenvalues --   -0.47349  -0.44746  -0.43265  -0.42786  -0.41366
 Alpha  occ. eigenvalues --   -0.38146  -0.37300  -0.35609  -0.35154  -0.34583
 Alpha  occ. eigenvalues --   -0.32586  -0.32300  -0.25866  -0.24667
 Alpha virt. eigenvalues --   -0.02107   0.08092   0.09524   0.10100   0.10993
 Alpha virt. eigenvalues --    0.11831   0.14183   0.14990   0.15308   0.16114
 Alpha virt. eigenvalues --    0.16400   0.17447   0.18600   0.19835   0.20010

 Mulliken charges:
               1
     1  O   -0.239781
     2  C    0.154263
     3  C   -0.298533
     4  C    0.009876
     5  C   -0.250215
     6  C    0.085350
     7  C   -0.233125
     8  C    0.064528
     9  O   -0.296407
    10  H    0.069731
    11  H    0.118587
    12  H    0.135436
    13  H    0.082766
    14  H    0.104389
    15  H    0.112293
    16  H    0.084462
    17  H    0.097228
    18  H    0.115311
    19  H    0.083838
 Sum of Mulliken charges =   0.00000

 Dipole moment (field-independent basis, Debye):
    X=              2.9742    Y=              0.1833    Z=             -1.0573  Tot=              3.1618
 Quadrupole moment (field-independent basis, Debye-Ang):
   XX=            -65.0580   YY=            -50.8361   ZZ=            -54.3834
   XY=              1.7987   XZ=             -4.0813   YZ=              1.1133

  Exact polarizability:  91.414  -0.117  72.720   0.523   0.686  62.112
 Approx polarizability: 122.845  -0.981 107.413   5.006  -1.417 101.790

                      1                      2                      3
                      A                      A                      A
 Frequencies --     47.7461                81.8241               152.2809
 Red. masses --      3.9935                 3.7535                 3.2922
 Frc consts  --      0.0054                 0.0148                 0.0450
 IR Inten    --      7.0175                 2.7200                 1.7732

                      4                      5                      6
                      A                      A                      A
 Frequencies --    198.6687               348.6899               376.0497
 Red. masses --      2.7045                 3.1798                 2.5996
 Frc consts  --      0.0629                 0.2278                 0.2166
 IR Inten    --      0.9564                 2.0078                 3.4386

                      7                      8                      9
                      A                      A                      A
 Frequencies --    438.5857               524.1054               584.9308
 Red. masses --      2.2112                 2.1536                 3.1875
 Frc consts  --      0.2506                 0.3485                 0.6426
 IR Inten    --      4.6773                15.2713                 6.2947

                     10                     11                     12
                      A                      A                      A
 Frequencies --    699.7961               794.7523               811.4571
 Red. masses --      3.7603                 2.7591                 1.7173
 Frc consts  --      1.0850                 1.0268                 0.6662
 IR Inten    --      2.9596                 2.1597                 3.0282

                     13                     14                     15
                      A                      A                      A
 Frequencies --    836.7195               852.4165               876.3808
 Red. masses --      3.0732                 2.8262                 3.2425
 Frc consts  --      1.2676                 1.2099                 1.4673
 IR Inten    --     11.8104                 5.1317                28.9454

                     16                     17                     18
                      A                      A                      A
 Frequencies --    895.4245               937.8299               960.0161
 Red. masses --      2.3607                 2.6802                 1.6142
 Frc consts  --      1.1152                 1.3889                 0.8765
 IR Inten    --      4.6357                18.8275                 8.5301

                     19                     20                     21
                      A                      A                      A
 Frequencies --    969.9529              1027.3586              1029.2267
 Red. masses --      2.6049                 2.0295                 1.8945
 Frc consts  --      1.4439                 1.2621                 1.1824
 IR Inten    --      8.0675                10.8058                 6.6784

                     22                     23                     24
                      A                      A                      A
 Frequencies --   1046.0027              1070.4506              1106.5226
 Red. masses --      1.3123                 3.4417                 1.9399
 Frc consts  --      0.8460                 2.3236                 1.3994
 IR Inten    --      2.2127                14.7384                 7.6918

                     25                     26                     27
                      A                      A                      A
 Frequencies --   1118.6867              1167.7240              1194.2299
 Red. masses --      1.2903                 1.5422                 1.5339
 Frc consts  --      0.9514                 1.2390                 1.2889
 IR Inten    --      5.0838                 0.3633                 4.7099

                     28                     29                     30
                      A                      A                      A
 Frequencies --   1219.4722              1232.5165              1248.0621
 Red. masses --      1.5730                 1.3728                 1.4629
 Frc consts  --      1.3782                 1.2287                 1.3426
 IR Inten    --     17.8568                 0.7504                 2.8621

                     31                     32                     33
                      A                      A                      A
 Frequencies --   1268.8797              1274.0703              1312.3636
 Red. masses --      1.2879                 1.4348                 1.5952
 Frc consts  --      1.2217                 1.3723                 1.6188
 IR Inten    --      1.5531                 1.8697                 3.0138

                     34                     35                     36
                      A                      A                      A
 Frequencies --   1322.6296              1329.2110              1373.0701
 Red. masses --      1.5348                 1.4307                 1.4659
 Frc consts  --      1.5819                 1.4893                 1.6283
 IR Inten    --      2.3656                 4.7616                 9.1702

                     37                     38                     39
                      A                      A                      A
 Frequencies --   1436.0482              1466.0246              1481.0202
 Red. masses --      1.2046                 1.0970                 1.1170
 Frc consts  --      1.4636                 1.3892                 1.4436
 IR Inten    --      4.1884                 6.2238                 2.5630

                     40                     41                     42
                      A                      A                      A
 Frequencies --   1496.0494              1832.5206              2854.9416
 Red. masses --      1.1219                10.0690                 1.0808
 Frc consts  --      1.4794                19.9220                 5.1901
 IR Inten    --      1.3233               190.4928               102.0688

                     43                     44                     45
                      A                      A                      A
 Frequencies --   3021.8549              3052.6036              3065.3546
 Red. masses --      1.0629                 1.0828                 1.0599
 Frc consts  --      5.7187                 5.9450                 5.8677
 IR Inten    --      4.6562                14.0993                25.5050

                     46                     47                     48
                      A                      A                      A
 Frequencies --   3069.4953              3096.3818              3117.2853
 Red. masses --      1.0606                 1.0988                 1.1062
 Frc consts  --      5.8873                 6.2069                 6.3334
 IR Inten    --     31.0334                11.7729                23.3289

                     49                     50                     51
                      A                      A                      A
 Frequencies --   3121.5536              3129.4056              3147.6360
 Red. masses --      1.0907                 1.0936                 1.1059
 Frc consts  --      6.2617                 6.3098                 6.4558
 IR Inten    --     50.8186                25.9360                22.9709

 - Thermochemistry -
 -------------------
 Temperature   298.150 Kelvin.  Pressure   1.00000 Atm.
 Atom     1 has atomic number  8 and mass  15.99491

 Molecular mass:   126.06808 amu.
 Principal axes and moments of inertia in atomic units:
                           1         2         3
     Eigenvalues --   422.329681914.570432007.96319
           X            0.99990   0.00272  -0.01389
           Y           -0.00192   0.99836   0.05719
           Z            0.01402  -0.05715   0.99827
 This molecule is an asymmetric top.
 Rotational symmetry number  1.
 Rotational temperatures (Kelvin)      0.20509     0.04524     0.04314
 Rotational constants (GHZ):           4.27330     0.94264     0.89879
 Zero-point vibrational energy     419388.5 (Joules/Mol)
                                  100.23625 (Kcal/Mol)
 Warning -- explicit consideration of   9 degrees of freedom as
           vibrations may cause significant error
 Vibrational temperatures:     68.70   117.73   219.10   285.84   501.69
          (Kelvin)            541.05   631.03   754.07   841.58  1006.85
                             1143.47  1167.50  1203.85  1226.44  1260.91
                             1288.31  1349.33  1381.25  1395.54  1478.14
                             1480.83  1504.96  1540.14  1592.04  1609.54
                             1680.09  1718.23  1754.55  1773.31  1795.68
                             1825.63  1833.10  1888.20  1902.97  1912.44
                             1975.54  2066.15  2109.28  2130.86  2152.48
                             2636.59  4107.62  4347.77  4392.01  4410.36
                             4416.31  4455.00  4485.07  4491.21  4502.51
                             4528.74

 Zero-point correction=                           0.159737 (Hartree/Particle)
 Thermal correction to Energy=                    0.167712
 Thermal correction to Enthalpy=                  0.168657
 Thermal correction to Gibbs Free Energy=         0.126131
 Sum of electronic and zero-point Energies=           -423.012577
 Sum of electronic and thermal Energies=              -423.004601
 Sum of electronic and thermal Enthalpies=            -423.003657
 Sum of electronic and thermal Free Energies=         -423.046182

                     E (Thermal)             CV                S
                      KCal/Mol        Cal/Mol-Kelvin    Cal/Mol-Kelvin
 Total                  105.241             30.065             89.503
 Electronic               0.000              0.000              0.000
 Translational            0.889              2.981             40.409
 Rotational               0.889              2.981             28.875
 Vibrational            103.464             24.103             20.219
 Vibration     1          0.595              1.978              4.909
 Vibration     2          0.600              1.962              3.847
 Vibration     3          0.619              1.900              2.644
 Vibration     4          0.637              1.842              2.145
 Vibration     5          0.726              1.578              1.172
 Vibration     6          0.747              1.521              1.055
 Vibration     7          0.799              1.386              0.831
 Vibration     8          0.879              1.197              0.601
 Vibration     9          0.942              1.064              0.476

 Optimization completed.
    -- Stationary point found.
 Normal termination of Gaussian 09 at Mon Jan 27 14:29:40 2020.
