 Gaussian 09, Revision D.01,
 Gaussian 09:  ES64L-G09RevD.01 24-Apr-2013

 -----------------------------
 # b3lyp 6-31G(2df,p) opt Freq
 -----------------------------

 -----
 titel
 -----
 Symbolic Z-matrix:
 Charge =  0 Multiplicity = 1

 SCF Done:  E(RB3LYP) =  -423.128745281     A.U. after   13 cycles
 Optimization completed.
    -- Stationary point found.
 Normal termination of Gaussian 09 at Tue Jan 28 02:52:05 2020.

 ----------------------------------------------------------------------
 #N Geom=AllCheck Guess=TCheck SCRF=Check GenChk RB3LYP/6-31G(2df,p) Fr
 eq
 ----------------------------------------------------------------------

 Structure from the checkpoint file:  "/scratch/puck/g09_48402fe4-9eeb-471f-8302-9dcd054909a1/Gau-190024.chk"
 -----
 titel
 -----
 Charge =  0 Multiplicity = 1

                         Standard orientation:
 ---------------------------------------------------------------------
 Center     Atomic      Atomic             Coordinates (Angstroms)
 Number     Number       Type             X           Y           Z
 ---------------------------------------------------------------------
      1          6           0        2.222942   -0.993550    0.010408
      2          6           0        1.466381    0.298960   -0.257623
      3          6           0        0.869798    1.010697    1.018651
      4          6           0       -0.536894    0.836864    0.420895
      5          6           0       -0.731162    1.429143   -0.953548
      6          6           0        0.015754    0.131474   -0.777224
      7          8           0       -0.693641   -1.067965   -0.912009
      8          6           0       -1.371662   -1.250501    0.337864
      9          8           0       -1.566521    0.036181    0.930875
     10          1           0        1.642001   -1.679572    0.635312
     11          1           0        2.453841   -1.514949   -0.923645
     12          1           0        3.165036   -0.784503    0.527580
     13          1           0        2.069195    0.954453   -0.895636
     14          1           0        1.003869    0.402608    1.916735
     15          1           0        1.188657    2.035366    1.231856
     16          1           0       -1.734432    1.327295   -1.347910
     17          1           0       -0.199715    2.331804   -1.245303
     18          1           0       -2.347472   -1.706646    0.149548
     19          1           0       -0.770631   -1.890099    1.003986
 ---------------------------------------------------------------------

 SCF Done:  E(RB3LYP) =  -423.128745281     A.U. after    1 cycles

 The electronic state is 1-A.
 Alpha  occ. eigenvalues --  -19.15716 -19.15610 -10.27994 -10.23073 -10.22864
 Alpha  occ. eigenvalues --  -10.20192 -10.19807 -10.19342 -10.18081  -1.09516
 Alpha  occ. eigenvalues --   -1.00084  -0.88843  -0.77055  -0.69906  -0.68122
 Alpha  occ. eigenvalues --   -0.62411  -0.58321  -0.55154  -0.50821  -0.48850
 Alpha  occ. eigenvalues --   -0.47046  -0.46005  -0.42321  -0.41435  -0.40491
 Alpha  occ. eigenvalues --   -0.39393  -0.38788  -0.36821  -0.34177  -0.33936
 Alpha  occ. eigenvalues --   -0.33564  -0.27861  -0.25478  -0.22414
 Alpha virt. eigenvalues --    0.07146   0.08295   0.09047   0.11759   0.12978
 Alpha virt. eigenvalues --    0.13515   0.14759   0.15217   0.16349   0.16829
 Alpha virt. eigenvalues --    0.17338   0.17773   0.19233   0.19985   0.21920

 Mulliken charges:
               1
     1  C   -0.406083
     2  C   -0.045404
     3  C   -0.309535
     4  C    0.302348
     5  C   -0.378419
     6  C    0.300008
     7  O   -0.290970
     8  C   -0.000053
     9  O   -0.289513
    10  H    0.118848
    11  H    0.127080
    12  H    0.116717
    13  H    0.073968
    14  H    0.112754
    15  H    0.101743
    16  H    0.131392
    17  H    0.113046
    18  H    0.124408
    19  H    0.097665
 Sum of Mulliken charges =   0.00000

 Dipole moment (field-independent basis, Debye):
    X=              1.1378    Y=              0.1018    Z=              0.2780  Tot=              1.1757
 Quadrupole moment (field-independent basis, Debye-Ang):
   XX=            -52.4079   YY=            -51.5098   ZZ=            -55.5117
   XY=              1.9360   XZ=              1.5365   YZ=             -3.1334

  Exact polarizability:  78.710   2.118  76.590   1.990  -4.052  65.479
 Approx polarizability: 107.387   3.162 111.207  -1.599  -1.708 105.268

                      1                      2                      3
                      A                      A                      A
 Frequencies --    129.0846               170.9748               223.2694
 Red. masses --      2.9296                 2.3245                 1.0699
 Frc consts  --      0.0288                 0.0400                 0.0314
 IR Inten    --      0.1241                 1.7752                 0.5417

                      4                      5                      6
                      A                      A                      A
 Frequencies --    230.1903               352.8100               368.3287
 Red. masses --      3.1749                 3.1481                 2.2532
 Frc consts  --      0.0991                 0.2309                 0.1801
 IR Inten    --      4.4877                 3.3230                 1.8915

                      7                      8                      9
                      A                      A                      A
 Frequencies --    427.3694               476.3001               546.0307
 Red. masses --      2.5415                 3.2316                 4.0340
 Frc consts  --      0.2735                 0.4319                 0.7086
 IR Inten    --      2.6587                 6.6015                24.6190

                     10                     11                     12
                      A                      A                      A
 Frequencies --    631.5299               687.9340               773.2365
 Red. masses --      3.0876                 5.8839                 3.6639
 Frc consts  --      0.7255                 1.6406                 1.2907
 IR Inten    --      0.5403                 4.3432                 2.2105

                     13                     14                     15
                      A                      A                      A
 Frequencies --    784.2631               818.8804               868.0693
 Red. masses --      3.2065                 2.7738                 2.2180
 Frc consts  --      1.1620                 1.0959                 0.9847
 IR Inten    --      2.1607                 0.5124                 7.8626

                     16                     17                     18
                      A                      A                      A
 Frequencies --    901.9205               915.0295               935.9431
 Red. masses --      3.2610                 1.9405                 2.2019
 Frc consts  --      1.5629                 0.9573                 1.1365
 IR Inten    --      9.2599                23.4700                 2.1707

                     19                     20                     21
                      A                      A                      A
 Frequencies --    948.5593              1002.2553              1030.9869
 Red. masses --      2.5886                 1.9011                 2.0394
 Frc consts  --      1.3723                 1.1252                 1.2772
 IR Inten    --     21.4379                 4.6033                24.0104

                     22                     23                     24
                      A                      A                      A
 Frequencies --   1042.8747              1067.1463              1086.7281
 Red. masses --      2.9586                 1.3227                 1.9559
 Frc consts  --      1.8958                 0.8875                 1.3609
 IR Inten    --     85.4535                 4.5279                 2.2856

                     25                     26                     27
                      A                      A                      A
 Frequencies --   1150.8212              1158.4512              1188.1411
 Red. masses --      1.8083                 1.8021                 2.0747
 Frc consts  --      1.4110                 1.4249                 1.7256
 IR Inten    --      4.4401                13.2375                 2.1373

                     28                     29                     30
                      A                      A                      A
 Frequencies --   1209.1463              1221.9811              1252.6801
 Red. masses --      1.1561                 1.5797                 1.4804
 Frc consts  --      0.9958                 1.3898                 1.3687
 IR Inten    --      0.5694                 1.5269                 4.2738

                     31                     32                     33
                      A                      A                      A
 Frequencies --   1277.5989              1283.4336              1342.8451
 Red. masses --      2.3489                 2.6871                 2.1100
 Frc consts  --      2.2589                 2.6078                 2.2417
 IR Inten    --     21.5835                29.0928                40.0645

                     34                     35                     36
                      A                      A                      A
 Frequencies --   1359.5804              1413.9623              1417.2514
 Red. masses --      2.0045                 1.2475                 1.3256
 Frc consts  --      2.1831                 1.4695                 1.5687
 IR Inten    --     23.8083                 2.0531                 3.3360

                     37                     38                     39
                      A                      A                      A
 Frequencies --   1460.4378              1481.8473              1491.4222
 Red. masses --      1.2558                 1.1607                 1.0471
 Frc consts  --      1.5782                 1.5016                 1.3722
 IR Inten    --     11.4712                 4.5707                 2.3970

                     40                     41                     42
                      A                      A                      A
 Frequencies --   1495.3368              1539.0707              2972.0980
 Red. masses --      1.0475                 1.1059                 1.0682
 Frc consts  --      1.3800                 1.5434                 5.5595
 IR Inten    --      5.2508                 0.9353                82.4575

                     43                     44                     45
                      A                      A                      A
 Frequencies --   3035.1068              3037.8207              3051.1334
 Red. masses --      1.0352                 1.0839                 1.0611
 Frc consts  --      5.6183                 5.8934                 5.8199
 IR Inten    --     23.6290                25.5858                43.9000

                     46                     47                     48
                      A                      A                      A
 Frequencies --   3095.0822              3103.3153              3106.8081
 Red. masses --      1.0977                 1.1017                 1.1021
 Frc consts  --      6.1957                 6.2515                 6.2677
 IR Inten    --     50.6681                21.6130                19.8305

                     49                     50                     51
                      A                      A                      A
 Frequencies --   3113.4804              3115.8506              3233.0526
 Red. masses --      1.1041                 1.0604                 1.1127
 Frc consts  --      6.3060                 6.0656                 6.8528
 IR Inten    --     21.4268                22.8589                 3.4219

 - Thermochemistry -
 -------------------
 Temperature   298.150 Kelvin.  Pressure   1.00000 Atm.
 Atom     1 has atomic number  6 and mass  12.00000

 Molecular mass:   126.06808 amu.
 Principal axes and moments of inertia in atomic units:
                           1         2         3
     Eigenvalues --   693.208051006.261751174.12765
           X            0.99956  -0.01296   0.02668
           Y            0.01547   0.99524  -0.09624
           Z           -0.02531   0.09662   0.99500
 This molecule is an asymmetric top.
 Rotational symmetry number  1.
 Warning -- assumption of classical behavior for rotation
           may cause significant error
 Rotational temperatures (Kelvin)      0.12495     0.08607     0.07377
 Rotational constants (GHZ):           2.60346     1.79351     1.53709
 Zero-point vibrational energy     418857.3 (Joules/Mol)
                                  100.10929 (Kcal/Mol)
 Warning -- explicit consideration of   9 degrees of freedom as
           vibrations may cause significant error
 Vibrational temperatures:    185.72   245.99   321.23   331.19   507.61
          (Kelvin)            529.94   614.89   685.29   785.62   908.63
                              989.78  1112.51  1128.38  1178.18  1248.96
                             1297.66  1316.52  1346.61  1364.76  1442.02
                             1483.36  1500.46  1535.38  1563.56  1655.77
                             1666.75  1709.47  1739.69  1758.16  1802.33
                             1838.18  1846.57  1932.05  1956.13  2034.37
                             2039.11  2101.24  2132.05  2145.82  2151.45
                             2214.38  4276.18  4366.84  4370.74  4389.89
                             4453.13  4464.97  4470.00  4479.60  4483.01
                             4651.64

 Zero-point correction=                           0.159534 (Hartree/Particle)
 Thermal correction to Energy=                    0.167214
 Thermal correction to Enthalpy=                  0.168158
 Thermal correction to Gibbs Free Energy=         0.127749
 Sum of electronic and zero-point Energies=           -422.969211
 Sum of electronic and thermal Energies=              -422.961532
 Sum of electronic and thermal Enthalpies=            -422.960587
 Sum of electronic and thermal Free Energies=         -423.000997

                     E (Thermal)             CV                S
                      KCal/Mol        Cal/Mol-Kelvin    Cal/Mol-Kelvin
 Total                  104.928             30.610             85.048
 Electronic               0.000              0.000              0.000
 Translational            0.889              2.981             40.409
 Rotational               0.889              2.981             28.195
 Vibrational            103.151             24.648             16.444
 Vibration     1          0.612              1.924              2.960
 Vibration     2          0.626              1.878              2.425
 Vibration     3          0.649              1.806              1.932
 Vibration     4          0.652              1.795              1.877
 Vibration     5          0.729              1.569              1.154
 Vibration     6          0.741              1.537              1.087
 Vibration     7          0.789              1.411              0.867
 Vibration     8          0.833              1.303              0.720
 Vibration     9          0.901              1.148              0.552

 Normal termination of Gaussian 09 at Tue Jan 28 03:41:22 2020.
