 Gaussian 09, Revision D.01,
 Gaussian 09:  ES64L-G09RevD.01 24-Apr-2013

 -----------------------------
 # b3lyp 6-31G(2df,p) opt Freq
 -----------------------------

 -----
 titel
 -----
 Symbolic Z-matrix:
 Charge =  0 Multiplicity = 1

 SCF Done:  E(RB3LYP) =  -423.155468568     A.U. after   13 cycles
 Optimization completed.
    -- Stationary point found.
 Normal termination of Gaussian 09 at Tue Jan 28 08:11:19 2020.

 ----------------------------------------------------------------------
 #N Geom=AllCheck Guess=TCheck SCRF=Check GenChk RB3LYP/6-31G(2df,p) Fr
 eq
 ----------------------------------------------------------------------

 Structure from the checkpoint file:  "/scratch/puck/g09_40b0be73-0deb-4f43-8c06-6ad8c6510297/Gau-8194.chk"
 -----
 titel
 -----
 Charge =  0 Multiplicity = 1

                         Standard orientation:
 ---------------------------------------------------------------------
 Center     Atomic      Atomic             Coordinates (Angstroms)
 Number     Number       Type             X           Y           Z
 ---------------------------------------------------------------------
      1          8           0       -2.534719   -0.392198    0.035914
      2          6           0       -1.268986    0.083693    0.474705
      3          6           0       -0.815016    1.297348   -0.350948
      4          6           0        0.630416    1.746458   -0.056584
      5          6           0        1.605273    0.601482    0.164580
      6          6           0        1.596154   -0.745361   -0.517935
      7          8           0        0.300828   -1.157450   -0.957621
      8          6           0       -0.206889   -1.010188    0.411610
      9          6           0        1.187726   -0.634424    0.930112
     10          1           0       -2.433457   -0.648351   -0.888368
     11          1           0       -1.413444    0.358114    1.527609
     12          1           0       -0.891592    1.012173   -1.404974
     13          1           0       -1.510439    2.126123   -0.188197
     14          1           0        0.980234    2.394093   -0.869379
     15          1           0        0.643311    2.363990    0.851754
     16          1           0        2.619740    0.915454    0.404585
     17          1           0        2.453449   -1.196950   -1.004311
     18          1           0       -0.596650   -1.966383    0.771726
     19          1           0        1.647907   -0.995139    1.839965
 ---------------------------------------------------------------------

 SCF Done:  E(RB3LYP) =  -423.155468568     A.U. after    1 cycles

 The electronic state is 1-A.
 Alpha  occ. eigenvalues --  -19.13832 -19.13084 -10.24086 -10.23368 -10.22772
 Alpha  occ. eigenvalues --  -10.19714 -10.19316 -10.18753 -10.17800  -1.05282
 Alpha  occ. eigenvalues --   -1.01220  -0.84480  -0.77777  -0.72963  -0.65348
 Alpha  occ. eigenvalues --   -0.61382  -0.56536  -0.54101  -0.52910  -0.49394
 Alpha  occ. eigenvalues --   -0.46108  -0.44999  -0.43577  -0.41231  -0.40163
 Alpha  occ. eigenvalues --   -0.38283  -0.36047  -0.35386  -0.33979  -0.32868
 Alpha  occ. eigenvalues --   -0.30649  -0.28285  -0.24998  -0.23211
 Alpha virt. eigenvalues --    0.07084   0.09131   0.09867   0.11252   0.12124
 Alpha virt. eigenvalues --    0.13783   0.14438   0.15172   0.16416   0.17362
 Alpha virt. eigenvalues --    0.17589   0.19164   0.20293   0.21607   0.22856

 Mulliken charges:
               1
     1  O   -0.442010
     2  C    0.131691
     3  C   -0.225477
     4  C   -0.243910
     5  C   -0.044812
     6  C    0.086588
     7  O   -0.313353
     8  C    0.069529
     9  C   -0.176475
    10  H    0.284318
    11  H    0.088259
    12  H    0.107942
    13  H    0.098503
    14  H    0.102476
    15  H    0.101684
    16  H    0.088766
    17  H    0.103514
    18  H    0.087126
    19  H    0.095642
 Sum of Mulliken charges =   0.00000

 Dipole moment (field-independent basis, Debye):
    X=              1.8964    Y=              0.6656    Z=              0.5001  Tot=              2.0711
 Quadrupole moment (field-independent basis, Debye-Ang):
   XX=            -54.8733   YY=            -52.8377   ZZ=            -51.9645
   XY=             -0.4890   XZ=              2.4980   YZ=             -0.9841

  Exact polarizability:  79.507   1.316  74.017  -0.529  -0.565  65.918
 Approx polarizability: 109.238   4.577 105.100  -2.120   2.744 109.023

                      1                      2                      3
                      A                      A                      A
 Frequencies --    122.6540               208.7104               283.8744
 Red. masses --      4.1819                 1.9950                 3.5838
 Frc consts  --      0.0371                 0.0512                 0.1702
 IR Inten    --      3.1788                 0.3327                10.2166

                      4                      5                      6
                      A                      A                      A
 Frequencies --    345.0374               369.0784               392.0388
 Red. masses --      1.3658                 2.6475                 4.1155
 Frc consts  --      0.0958                 0.2125                 0.3727
 IR Inten    --     37.5354                23.8747                32.2661

                      7                      8                      9
                      A                      A                      A
 Frequencies --    469.5039               509.5705               615.1958
 Red. masses --      4.5035                 3.2468                 2.3921
 Frc consts  --      0.5849                 0.4967                 0.5334
 IR Inten    --      0.1801                 5.8098                 6.8622

                     10                     11                     12
                      A                      A                      A
 Frequencies --    691.2073               718.4172               774.2904
 Red. masses --      4.3364                 2.5476                 2.0350
 Frc consts  --      1.2207                 0.7747                 0.7188
 IR Inten    --      5.0672                 6.3647                 6.4619

                     13                     14                     15
                      A                      A                      A
 Frequencies --    806.5680               851.3051               875.6680
 Red. masses --      2.0504                 3.0099                 1.9161
 Frc consts  --      0.7859                 1.2852                 0.8657
 IR Inten    --      3.0397                20.2628                 3.5429

                     16                     17                     18
                      A                      A                      A
 Frequencies --    915.9473               947.1218               958.8261
 Red. masses --      2.1394                 2.7467                 2.2349
 Frc consts  --      1.0575                 1.4517                 1.2105
 IR Inten    --     25.9972                11.4933                 8.4979

                     19                     20                     21
                      A                      A                      A
 Frequencies --   1005.7137              1013.8081              1044.2312
 Red. masses --      1.7668                 2.1138                 2.1889
 Frc consts  --      1.0529                 1.2800                 1.4063
 IR Inten    --      5.4768                14.2820                 0.4974

                     22                     23                     24
                      A                      A                      A
 Frequencies --   1052.6627              1064.1160              1087.4697
 Red. masses --      1.7524                 1.8520                 3.7072
 Frc consts  --      1.1441                 1.2356                 2.5831
 IR Inten    --     86.2600                67.4285                21.4407

                     25                     26                     27
                      A                      A                      A
 Frequencies --   1107.9609              1129.7306              1140.3615
 Red. masses --      2.5237                 2.3911                 1.1814
 Frc consts  --      1.8253                 1.7980                 0.9052
 IR Inten    --      2.9073                 1.9591                 2.1536

                     28                     29                     30
                      A                      A                      A
 Frequencies --   1196.5895              1235.5765              1247.9309
 Red. masses --      1.4078                 1.3262                 1.3605
 Frc consts  --      1.1876                 1.1929                 1.2483
 IR Inten    --      2.3517                 3.3179                 0.5806

                     31                     32                     33
                      A                      A                      A
 Frequencies --   1279.0915              1295.0388              1309.1819
 Red. masses --      1.5361                 1.5670                 1.2787
 Frc consts  --      1.4808                 1.5484                 1.2913
 IR Inten    --      0.7923                11.2882                 1.6656

                     34                     35                     36
                      A                      A                      A
 Frequencies --   1333.5536              1362.8600              1376.1537
 Red. masses --      1.6035                 1.4395                 1.6034
 Frc consts  --      1.6801                 1.5753                 1.7891
 IR Inten    --      2.9707                 7.5097                 3.7022

                     37                     38                     39
                      A                      A                      A
 Frequencies --   1392.9954              1423.6614              1441.6177
 Red. masses --      1.4123                 1.3624                 2.1725
 Frc consts  --      1.6147                 1.6269                 2.6602
 IR Inten    --      4.4534                61.6491                 0.9789

                     40                     41                     42
                      A                      A                      A
 Frequencies --   1479.7207              1495.8413              3013.1527
 Red. masses --      1.0903                 1.0939                 1.0633
 Frc consts  --      1.4066                 1.4422                 5.6876
 IR Inten    --      3.9577                 1.9144                38.0142

                     43                     44                     45
                      A                      A                      A
 Frequencies --   3034.0776              3044.8134              3056.9225
 Red. masses --      1.0838                 1.0806                 1.0771
 Frc consts  --      5.8783                 5.9024                 5.9301
 IR Inten    --     19.8836                10.8553                46.5485

                     46                     47                     48
                      A                      A                      A
 Frequencies --   3073.7917              3096.5331              3128.4908
 Red. masses --      1.0880                 1.1047                 1.0863
 Frc consts  --      6.0564                 6.2411                 6.2643
 IR Inten    --     36.0035                32.9758                14.3362

                     49                     50                     51
                      A                      A                      A
 Frequencies --   3176.0216              3201.7592              3793.1442
 Red. masses --      1.0909                 1.0973                 1.0658
 Frc consts  --      6.4836                 6.6278                 9.0347
 IR Inten    --     27.3467                14.2279                17.6223

 - Thermochemistry -
 -------------------
 Temperature   298.150 Kelvin.  Pressure   1.00000 Atm.
 Atom     1 has atomic number  8 and mass  15.99491

 Molecular mass:   126.06808 amu.
 Principal axes and moments of inertia in atomic units:
                           1         2         3
     Eigenvalues --   643.253671036.998221347.30032
           X            0.99993  -0.00051   0.01216
           Y            0.00086   0.99959  -0.02859
           Z           -0.01214   0.02860   0.99952
 This molecule is an asymmetric top.
 Rotational symmetry number  1.
 Warning -- assumption of classical behavior for rotation
           may cause significant error
 Rotational temperatures (Kelvin)      0.13465     0.08352     0.06429
 Rotational constants (GHZ):           2.80564     1.74035     1.33952
 Zero-point vibrational energy     424612.0 (Joules/Mol)
                                  101.48471 (Kcal/Mol)
 Warning -- explicit consideration of   9 degrees of freedom as
           vibrations may cause significant error
 Vibrational temperatures:    176.47   300.29   408.43   496.43   531.02
          (Kelvin)            564.06   675.51   733.16   885.13   994.49
                             1033.64  1114.03  1160.47  1224.84  1259.89
                             1317.84  1362.70  1379.54  1447.00  1458.64
                             1502.41  1514.54  1531.02  1564.62  1594.11
                             1625.43  1640.72  1721.62  1777.72  1795.49
                             1840.33  1863.27  1883.62  1918.68  1960.85
                             1979.98  2004.21  2048.33  2074.16  2128.99
                             2152.18  4335.25  4365.36  4380.80  4398.22
                             4422.50  4455.21  4501.19  4569.58  4606.61
                             5457.48

 Zero-point correction=                           0.161726 (Hartree/Particle)
 Thermal correction to Energy=                    0.168919
 Thermal correction to Enthalpy=                  0.169864
 Thermal correction to Gibbs Free Energy=         0.130394
 Sum of electronic and zero-point Energies=           -422.993742
 Sum of electronic and thermal Energies=              -422.986549
 Sum of electronic and thermal Enthalpies=            -422.985605
 Sum of electronic and thermal Free Energies=         -423.025074

                     E (Thermal)             CV                S
                      KCal/Mol        Cal/Mol-Kelvin    Cal/Mol-Kelvin
 Total                  105.999             29.605             83.070
 Electronic               0.000              0.000              0.000
 Translational            0.889              2.981             40.409
 Rotational               0.889              2.981             28.288
 Vibrational            104.221             23.644             14.374
 Vibration     1          0.610              1.930              3.058
 Vibration     2          0.642              1.827              2.055
 Vibration     3          0.682              1.704              1.510
 Vibration     4          0.723              1.585              1.189
 Vibration     5          0.741              1.536              1.084
 Vibration     6          0.759              1.487              0.992
 Vibration     7          0.827              1.318              0.739
 Vibration     8          0.865              1.229              0.635
 Vibration     9          0.975              1.000              0.424

 Normal termination of Gaussian 09 at Tue Jan 28 09:03:12 2020.
