 Gaussian 09, Revision D.01,
 Gaussian 09:  ES64L-G09RevD.01 24-Apr-2013

 -----------------------------
 # b3lyp 6-31G(2df,p) opt Freq
 -----------------------------

 -----
 titel
 -----
 Symbolic Z-matrix:
 Charge =  0 Multiplicity = 1

 SCF Done:  E(RB3LYP) =  -423.170422681     A.U. after   14 cycles
 Optimization completed.
    -- Stationary point found.
 Normal termination of Gaussian 09 at Tue Jan 28 13:33:30 2020.

 ----------------------------------------------------------------------
 #N Geom=AllCheck Guess=TCheck SCRF=Check GenChk RB3LYP/6-31G(2df,p) Fr
 eq
 ----------------------------------------------------------------------

 Structure from the checkpoint file:  "/scratch/puck/g09_0121317f-6d10-4987-b807-ab7a4e1e72cc/Gau-31658.chk"
 -----
 titel
 -----
 Charge =  0 Multiplicity = 1

                         Standard orientation:
 ---------------------------------------------------------------------
 Center     Atomic      Atomic             Coordinates (Angstroms)
 Number     Number       Type             X           Y           Z
 ---------------------------------------------------------------------
      1          8           0        3.143848   -0.685157   -0.095576
      2          6           0        2.330305    0.469534    0.019982
      3          6           0        0.902505    0.241796   -0.461039
      4          6           0       -0.041814    1.463055   -0.241338
      5          6           0       -0.922838    0.622099    0.734315
      6          6           0        0.019910   -0.619660    0.488780
      7          6           0       -1.141452   -1.383259   -0.204671
      8          6           0       -2.036758   -0.144559    0.011090
      9          8           0       -3.174923    0.109827   -0.255903
     10          1           0        2.777759   -1.364714    0.479495
     11          1           0        2.317001    0.850572    1.055475
     12          1           0        2.809574    1.236713   -0.598469
     13          1           0        0.939021   -0.136762   -1.487372
     14          1           0        0.453800    2.298640    0.260779
     15          1           0       -0.555556    1.853624   -1.122473
     16          1           0       -1.164981    1.059015    1.703730
     17          1           0        0.519848   -1.144394    1.305241
     18          1           0       -0.992688   -1.707020   -1.239157
     19          1           0       -1.514321   -2.237074    0.371871
 ---------------------------------------------------------------------

 SCF Done:  E(RB3LYP) =  -423.170422681     A.U. after    1 cycles

 The electronic state is 1-A.
 Alpha  occ. eigenvalues --  -19.14033 -19.13784 -10.27038 -10.23290 -10.20430
 Alpha  occ. eigenvalues --  -10.19954 -10.19907 -10.19653 -10.19619  -1.04661
 Alpha  occ. eigenvalues --   -1.02164  -0.88439  -0.76993  -0.71143  -0.64964
 Alpha  occ. eigenvalues --   -0.63559  -0.57050  -0.52165  -0.51275  -0.49589
 Alpha  occ. eigenvalues --   -0.46299  -0.46125  -0.43445  -0.42576  -0.40782
 Alpha  occ. eigenvalues --   -0.39990  -0.36805  -0.36171  -0.34478  -0.33499
 Alpha  occ. eigenvalues --   -0.30617  -0.30073  -0.27124  -0.24229
 Alpha virt. eigenvalues --   -0.02406   0.05749   0.08677   0.09192   0.10723
 Alpha virt. eigenvalues --    0.12192   0.13656   0.13950   0.15048   0.16194
 Alpha virt. eigenvalues --    0.16843   0.18732   0.20031   0.20515   0.21799

 Mulliken charges:
               1
     1  O   -0.419672
     2  C   -0.085632
     3  C    0.012445
     4  C   -0.268399
     5  C   -0.148259
     6  C   -0.047027
     7  C   -0.369164
     8  C    0.409935
     9  O   -0.295095
    10  H    0.283917
    11  H    0.084065
    12  H    0.113411
    13  H    0.080930
    14  H    0.112881
    15  H    0.118925
    16  H    0.092121
    17  H    0.062356
    18  H    0.128791
    19  H    0.133471
 Sum of Mulliken charges =   0.00000

 Dipole moment (field-independent basis, Debye):
    X=              1.4318    Y=             -0.4038    Z=              1.3051  Tot=              1.9789
 Quadrupole moment (field-independent basis, Debye-Ang):
   XX=            -72.4258   YY=            -49.2895   ZZ=            -51.0031
   XY=              2.5191   XZ=              0.5731   YZ=             -1.5052

  Exact polarizability:  88.167   0.995  75.803   0.714   0.417  63.129
 Approx polarizability: 121.817  -3.162 110.929   2.120   0.272  99.057

                      1                      2                      3
                      A                      A                      A
 Frequencies --     39.8746               115.8938               136.2257
 Red. masses --      4.9585                 4.5508                 3.6330
 Frc consts  --      0.0046                 0.0360                 0.0397
 IR Inten    --      4.5691                 5.6815                 0.9883

                      4                      5                      6
                      A                      A                      A
 Frequencies --    207.6900               268.2712               301.6270
 Red. masses --      1.8258                 2.2909                 1.2553
 Frc consts  --      0.0464                 0.0971                 0.0673
 IR Inten    --     12.3565                 7.1950                97.4883

                      7                      8                      9
                      A                      A                      A
 Frequencies --    376.1572               420.6120               474.5936
 Red. masses --      3.2744                 4.0210                 3.8496
 Frc consts  --      0.2730                 0.4191                 0.5109
 IR Inten    --      1.0815                 0.7773                 4.8711

                     10                     11                     12
                      A                      A                      A
 Frequencies --    512.0473               615.0647               711.3294
 Red. masses --      1.9825                 3.4736                 2.4833
 Frc consts  --      0.3063                 0.7742                 0.7403
 IR Inten    --      0.7413                 3.8957                 4.3094

                     13                     14                     15
                      A                      A                      A
 Frequencies --    766.0096               835.5999               850.5906
 Red. masses --      2.1880                 1.8918                 2.4903
 Frc consts  --      0.7564                 0.7783                 1.0616
 IR Inten    --      2.9617                 2.0271                 2.6429

                     16                     17                     18
                      A                      A                      A
 Frequencies --    872.7053               910.9608               946.5613
 Red. masses --      2.2340                 1.9840                 2.0258
 Frc consts  --      1.0024                 0.9700                 1.0694
 IR Inten    --      1.8834                 1.3955                12.8155

                     19                     20                     21
                      A                      A                      A
 Frequencies --    973.2563               997.8424              1042.5313
 Red. masses --      1.6876                 2.6587                 2.7636
 Frc consts  --      0.9419                 1.5597                 1.7697
 IR Inten    --      5.5752                 4.7484                30.9731

                     22                     23                     24
                      A                      A                      A
 Frequencies --   1052.3878              1079.9906              1098.6500
 Red. masses --      2.8000                 3.0501                 1.5136
 Frc consts  --      1.8271                 2.0961                 1.0764
 IR Inten    --     47.8050                76.2111                 8.5515

                     25                     26                     27
                      A                      A                      A
 Frequencies --   1105.1941              1139.1818              1165.5136
 Red. masses --      2.0478                 1.8831                 1.3072
 Frc consts  --      1.4737                 1.4398                 1.0462
 IR Inten    --     10.3113                 9.5423                 6.9675

                     28                     29                     30
                      A                      A                      A
 Frequencies --   1193.6902              1223.5181              1224.5208
 Red. masses --      1.4768                 1.6142                 1.3802
 Frc consts  --      1.2398                 1.4237                 1.2193
 IR Inten    --      1.3765                11.3662                 3.3953

                     31                     32                     33
                      A                      A                      A
 Frequencies --   1245.6694              1266.6505              1276.3606
 Red. masses --      1.6229                 1.4864                 1.4518
 Frc consts  --      1.4837                 1.4051                 1.3935
 IR Inten    --      1.6094                 3.5774                 7.4107

                     34                     35                     36
                      A                      A                      A
 Frequencies --   1291.7196              1351.9132              1390.3861
 Red. masses --      1.4200                 1.5201                 1.2043
 Frc consts  --      1.3959                 1.6369                 1.3716
 IR Inten    --      1.9934                 0.5594                 8.1809

                     37                     38                     39
                      A                      A                      A
 Frequencies --   1417.6591              1433.1884              1484.0457
 Red. masses --      1.3104                 1.1011                 1.0936
 Frc consts  --      1.5516                 1.3326                 1.4191
 IR Inten    --     59.6313                 9.3732                 2.9816

                     40                     41                     42
                      A                      A                      A
 Frequencies --   1502.5404              1888.4521              2960.4186
 Red. masses --      1.0872                12.6668                 1.0705
 Frc consts  --      1.4461                26.6152                 5.5279
 IR Inten    --      1.0334               287.4108                47.4525

                     43                     44                     45
                      A                      A                      A
 Frequencies --   3047.6267              3054.9486              3058.3487
 Red. masses --      1.0598                 1.0843                 1.0605
 Frc consts  --      5.7994                 5.9624                 5.8441
 IR Inten    --     11.1799                20.0445                23.7394

                     46                     47                     48
                      A                      A                      A
 Frequencies --   3069.0492              3082.6365              3102.2148
 Red. masses --      1.0925                 1.0885                 1.1038
 Frc consts  --      6.0629                 6.0945                 6.2587
 IR Inten    --     40.5405                31.6155                11.3986

                     49                     50                     51
                      A                      A                      A
 Frequencies --   3107.8101              3114.9951              3815.7971
 Red. masses --      1.0954                 1.1001                 1.0660
 Frc consts  --      6.2333                 6.2892                 9.1446
 IR Inten    --      6.3773                27.7765                11.4747

 - Thermochemistry -
 -------------------
 Temperature   298.150 Kelvin.  Pressure   1.00000 Atm.
 Atom     1 has atomic number  8 and mass  15.99491

 Molecular mass:   126.06808 amu.
 Principal axes and moments of inertia in atomic units:
                           1         2         3
     Eigenvalues --   422.885091868.109932106.04054
           X            0.99993   0.01180   0.00174
           Y           -0.01180   0.99993  -0.00250
           Z           -0.00177   0.00248   1.00000
 This molecule is an asymmetric top.
 Rotational symmetry number  1.
 Rotational temperatures (Kelvin)      0.20482     0.04636     0.04113
 Rotational constants (GHZ):           4.26769     0.96608     0.85694
 Zero-point vibrational energy     416423.2 (Joules/Mol)
                                   99.52753 (Kcal/Mol)
 Warning -- explicit consideration of  11 degrees of freedom as
           vibrations may cause significant error
 Vibrational temperatures:     57.37   166.75   196.00   298.82   385.98
          (Kelvin)            433.97   541.21   605.17   682.83   736.72
                              884.94  1023.44  1102.12  1202.24  1223.81
                             1255.63  1310.67  1361.89  1400.30  1435.67
                             1499.97  1514.15  1553.86  1580.71  1590.13
                             1639.03  1676.91  1717.45  1760.37  1761.81
                             1792.24  1822.43  1836.40  1858.49  1945.10
                             2000.45  2039.69  2062.04  2135.21  2161.82
                             2717.06  4259.38  4384.85  4395.38  4400.28
                             4415.67  4435.22  4463.39  4471.44  4481.78
                             5490.07

 Zero-point correction=                           0.158607 (Hartree/Particle)
 Thermal correction to Energy=                    0.167214
 Thermal correction to Enthalpy=                  0.168158
 Thermal correction to Gibbs Free Energy=         0.124603
 Sum of electronic and zero-point Energies=           -423.011815
 Sum of electronic and thermal Energies=              -423.003209
 Sum of electronic and thermal Enthalpies=            -423.002265
 Sum of electronic and thermal Free Energies=         -423.045820

                     E (Thermal)             CV                S
                      KCal/Mol        Cal/Mol-Kelvin    Cal/Mol-Kelvin
 Total                  104.928             32.265             91.670
 Electronic               0.000              0.000              0.000
 Translational            0.889              2.981             40.409
 Rotational               0.889              2.981             28.899
 Vibrational            103.151             26.303             22.362
 Vibration     1          0.594              1.981              5.265
 Vibration     2          0.608              1.936              3.168
 Vibration     3          0.614              1.917              2.856
 Vibration     4          0.641              1.829              2.064
 Vibration     5          0.673              1.731              1.607
 Vibration     6          0.694              1.671              1.408
 Vibration     7          0.747              1.521              1.055
 Vibration     8          0.783              1.425              0.890
 Vibration     9          0.831              1.306              0.725
 Vibration    10          0.867              1.223              0.629
 Vibration    11          0.975              1.000              0.424

 Normal termination of Gaussian 09 at Tue Jan 28 14:14:42 2020.
