 Gaussian 09, Revision D.01,
 Gaussian 09:  ES64L-G09RevD.01 24-Apr-2013

 -----------------------------
 # b3lyp 6-31G(2df,p) opt Freq
 -----------------------------

 -----
 titel
 -----
 Symbolic Z-matrix:
 Charge =  0 Multiplicity = 1

 SCF Done:  E(RB3LYP) =  -423.180348017     A.U. after   14 cycles
 Optimization completed.
    -- Stationary point found.
 Normal termination of Gaussian 09 at Tue Jan 28 02:53:09 2020.

 ----------------------------------------------------------------------
 #N Geom=AllCheck Guess=TCheck SCRF=Check GenChk RB3LYP/6-31G(2df,p) Fr
 eq
 ----------------------------------------------------------------------

 Structure from the checkpoint file:  "/scratch/puck/g09_97eea58b-f424-4186-8745-0217535482d5/Gau-105044.chk"
 -----
 titel
 -----
 Charge =  0 Multiplicity = 1

                         Standard orientation:
 ---------------------------------------------------------------------
 Center     Atomic      Atomic             Coordinates (Angstroms)
 Number     Number       Type             X           Y           Z
 ---------------------------------------------------------------------
      1          6           0        2.968210   -0.199960    0.268164
      2          6           0        1.630798    0.166946   -0.346445
      3          8           0        0.862042   -1.002198   -0.722578
      4          6           0       -0.151556   -0.732211    0.269297
      5          6           0        0.509969    0.622584    0.633840
      6          6           0       -0.452397    1.637570    0.087987
      7          6           0       -1.519750    1.076321   -0.487047
      8          6           0       -1.533532   -0.428189   -0.346630
      9          8           0       -2.628289   -0.891948    0.439133
     10          1           0        2.834458   -0.832626    1.151396
     11          1           0        3.579300   -0.748103   -0.455424
     12          1           0        3.514401    0.702407    0.565264
     13          1           0        1.772360    0.829832   -1.209641
     14          1           0       -0.214402   -1.522544    1.024723
     15          1           0        0.840796    0.810078    1.658387
     16          1           0       -0.257908    2.704582    0.130298
     17          1           0       -2.329890    1.611225   -0.970606
     18          1           0       -1.620116   -0.950161   -1.305587
     19          1           0       -2.699476   -0.309875    1.203744
 ---------------------------------------------------------------------

 SCF Done:  E(RB3LYP) =  -423.180348017     A.U. after    1 cycles

 The electronic state is 1-A.
 Alpha  occ. eigenvalues --  -19.13580 -19.13063 -10.23593 -10.22980 -10.22727
 Alpha  occ. eigenvalues --  -10.19535 -10.19411 -10.18675 -10.17844  -1.03874
 Alpha  occ. eigenvalues --   -1.01541  -0.82825  -0.76099  -0.70155  -0.69410
 Alpha  occ. eigenvalues --   -0.61552  -0.56561  -0.53688  -0.52153  -0.48379
 Alpha  occ. eigenvalues --   -0.47754  -0.44144  -0.42616  -0.41978  -0.40125
 Alpha  occ. eigenvalues --   -0.38518  -0.37832  -0.35905  -0.34208  -0.31931
 Alpha  occ. eigenvalues --   -0.30425  -0.27616  -0.25812  -0.24273
 Alpha virt. eigenvalues --    0.00345   0.07781   0.09961   0.10619   0.12013
 Alpha virt. eigenvalues --    0.12896   0.15070   0.15477   0.15748   0.16116
 Alpha virt. eigenvalues --    0.16880   0.17580   0.18576   0.21010   0.22763

 Mulliken charges:
               1
     1  C   -0.404689
     2  C    0.157984
     3  O   -0.306273
     4  C    0.077371
     5  C   -0.143472
     6  C   -0.088485
     7  C   -0.120811
     8  C    0.071103
     9  O   -0.428129
    10  H    0.120123
    11  H    0.128724
    12  H    0.113690
    13  H    0.078007
    14  H    0.079958
    15  H    0.078026
    16  H    0.101634
    17  H    0.102612
    18  H    0.106358
    19  H    0.276267
 Sum of Mulliken charges =   0.00000

 Dipole moment (field-independent basis, Debye):
    X=              0.8741    Y=              2.3976    Z=              1.4000  Tot=              2.9108
 Quadrupole moment (field-independent basis, Debye-Ang):
   XX=            -54.0417   YY=            -54.4137   ZZ=            -51.5759
   XY=             -2.0224   XZ=              0.0264   YZ=             -0.9266

  Exact polarizability:  94.276   2.928  72.965   4.270  -0.495  63.012
 Approx polarizability: 127.291  11.265 110.933   7.477   3.833 100.689

                      1                      2                      3
                      A                      A                      A
 Frequencies --     86.4750               154.1014               219.6705
 Red. masses --      4.1405                 3.3272                 2.8269
 Frc consts  --      0.0182                 0.0466                 0.0804
 IR Inten    --      0.3540                 0.8228                 0.2412

                      4                      5                      6
                      A                      A                      A
 Frequencies --    241.6958               310.8010               322.5032
 Red. masses --      1.1036                 1.9842                 2.2029
 Frc consts  --      0.0380                 0.1129                 0.1350
 IR Inten    --      0.2485                 6.7455                30.5406

                      7                      8                      9
                      A                      A                      A
 Frequencies --    344.5114               366.4204               496.6200
 Red. masses --      1.9109                 3.7086                 3.3209
 Frc consts  --      0.1336                 0.2934                 0.4826
 IR Inten    --     33.3136                16.9067                 3.5178

                     10                     11                     12
                      A                      A                      A
 Frequencies --    565.3657               691.3848               746.7157
 Red. masses --      3.5267                 4.1378                 3.0787
 Frc consts  --      0.6642                 1.1654                 1.0114
 IR Inten    --      1.9986                 4.8166                 2.1491

                     13                     14                     15
                      A                      A                      A
 Frequencies --    800.0185               825.8141               860.0487
 Red. masses --      1.7313                 3.3485                 2.2961
 Frc consts  --      0.6529                 1.3455                 1.0007
 IR Inten    --     35.4987                 1.4163                 6.4823

                     16                     17                     18
                      A                      A                      A
 Frequencies --    895.1075               914.2683               931.3357
 Red. masses --      1.7889                 2.6266                 2.7574
 Frc consts  --      0.8445                 1.2936                 1.4092
 IR Inten    --      5.7260                11.8571                27.3091

                     19                     20                     21
                      A                      A                      A
 Frequencies --    981.6144              1014.3652              1032.9348
 Red. masses --      1.3218                 2.3519                 6.2613
 Frc consts  --      0.7504                 1.4258                 3.9361
 IR Inten    --      1.5193                 2.2326               136.7340

                     22                     23                     24
                      A                      A                      A
 Frequencies --   1051.1303              1064.8290              1078.4972
 Red. masses --      1.8602                 2.8764                 1.7864
 Frc consts  --      1.2109                 1.9216                 1.2242
 IR Inten    --      9.9565                63.4354                20.7059

                     25                     26                     27
                      A                      A                      A
 Frequencies --   1099.1174              1125.1496              1132.6959
 Red. masses --      2.0868                 1.9544                 1.2945
 Frc consts  --      1.4853                 1.4578                 0.9786
 IR Inten    --      9.1385                 2.9078                 8.2998

                     28                     29                     30
                      A                      A                      A
 Frequencies --   1219.4837              1235.7034              1244.0813
 Red. masses --      2.1156                 1.4356                 1.2133
 Frc consts  --      1.8536                 1.2916                 1.1064
 IR Inten    --      3.6538                 4.8531                11.3836

                     31                     32                     33
                      A                      A                      A
 Frequencies --   1282.7564              1292.0700              1303.3397
 Red. masses --      1.5614                 1.3715                 1.3749
 Frc consts  --      1.5137                 1.3490                 1.3761
 IR Inten    --      2.3579                 0.3096                 5.2542

                     34                     35                     36
                      A                      A                      A
 Frequencies --   1343.0190              1376.7563              1384.1048
 Red. masses --      1.5969                 1.5740                 1.3683
 Frc consts  --      1.6970                 1.7578                 1.5445
 IR Inten    --      8.1200                 5.1482                 7.4166

                     37                     38                     39
                      A                      A                      A
 Frequencies --   1406.1729              1415.9915              1484.0330
 Red. masses --      1.3174                 1.3317                 1.0523
 Frc consts  --      1.5348                 1.5732                 1.3654
 IR Inten    --      7.1389                74.4500                 2.9644

                     40                     41                     42
                      A                      A                      A
 Frequencies --   1493.5689              1664.6753              3020.8686
 Red. masses --      1.0489                 6.4199                 1.0847
 Frc consts  --      1.3785                10.4819                 5.8318
 IR Inten    --      2.8053                 2.5276                42.9282

                     43                     44                     45
                      A                      A                      A
 Frequencies --   3031.9606              3053.5439              3064.0802
 Red. masses --      1.0360                 1.0868                 1.0846
 Frc consts  --      5.6111                 5.9707                 5.9993
 IR Inten    --     18.2276                30.1915                19.5422

                     46                     47                     48
                      A                      A                      A
 Frequencies --   3078.1813              3103.8811              3112.9485
 Red. masses --      1.0870                 1.1006                 1.1022
 Frc consts  --      6.0683                 6.2474                 6.2928
 IR Inten    --     30.6183                23.1645                25.7529

                     49                     50                     51
                      A                      A                      A
 Frequencies --   3176.9201              3204.1200              3801.5795
 Red. masses --      1.0854                 1.1026                 1.0661
 Frc consts  --      6.4545                 6.6694                 9.0781
 IR Inten    --      7.5286                16.9463                15.3109

 - Thermochemistry -
 -------------------
 Temperature   298.150 Kelvin.  Pressure   1.00000 Atm.
 Atom     1 has atomic number  6 and mass  12.00000

 Molecular mass:   126.06808 amu.
 Principal axes and moments of inertia in atomic units:
                           1         2         3
     Eigenvalues --   501.458111462.556181713.91888
           X            0.99991  -0.00725   0.01129
           Y            0.00753   0.99966  -0.02502
           Z           -0.01110   0.02510   0.99962
 This molecule is an asymmetric top.
 Rotational symmetry number  1.
 Warning -- assumption of classical behavior for rotation
           may cause significant error
 Rotational temperatures (Kelvin)      0.17272     0.05922     0.05054
 Rotational constants (GHZ):           3.59899     1.23396     1.05299
 Zero-point vibrational energy     419572.4 (Joules/Mol)
                                  100.28021 (Kcal/Mol)
 Warning -- explicit consideration of  10 degrees of freedom as
           vibrations may cause significant error
 Vibrational temperatures:    124.42   221.72   316.06   347.75   447.17
          (Kelvin)            464.01   495.67   527.20   714.52   813.43
                              994.75  1074.36  1151.05  1188.16  1237.42
                             1287.86  1315.43  1339.98  1412.32  1459.44
                             1486.16  1512.34  1532.05  1551.71  1581.38
                             1618.84  1629.69  1754.56  1777.90  1789.95
                             1845.60  1859.00  1875.21  1932.30  1980.84
                             1991.42  2023.17  2037.29  2135.19  2148.91
                             2395.09  4346.35  4362.31  4393.36  4408.52
                             4428.81  4465.79  4478.83  4570.87  4610.01
                             5469.62

 Zero-point correction=                           0.159807 (Hartree/Particle)
 Thermal correction to Energy=                    0.167954
 Thermal correction to Enthalpy=                  0.168898
 Thermal correction to Gibbs Free Energy=         0.127196
 Sum of electronic and zero-point Energies=           -423.020541
 Sum of electronic and thermal Energies=              -423.012394
 Sum of electronic and thermal Enthalpies=            -423.011450
 Sum of electronic and thermal Free Energies=         -423.053152

                     E (Thermal)             CV                S
                      KCal/Mol        Cal/Mol-Kelvin    Cal/Mol-Kelvin
 Total                  105.393             31.627             87.769
 Electronic               0.000              0.000              0.000
 Translational            0.889              2.981             40.409
 Rotational               0.889              2.981             28.621
 Vibrational            103.615             25.666             18.740
 Vibration     1          0.601              1.959              3.738
 Vibration     2          0.620              1.898              2.621
 Vibration     3          0.647              1.811              1.962
 Vibration     4          0.658              1.776              1.790
 Vibration     5          0.700              1.653              1.358
 Vibration     6          0.708              1.630              1.297
 Vibration     7          0.723              1.586              1.191
 Vibration     8          0.739              1.541              1.095
 Vibration     9          0.852              1.258              0.667
 Vibration    10          0.921              1.106              0.513

 Optimization completed.
    -- Stationary point found.
 Normal termination of Gaussian 09 at Tue Jan 28 03:45:40 2020.
