 Gaussian 09, Revision D.01,
 Gaussian 09:  ES64L-G09RevD.01 24-Apr-2013

 -----------------------------
 # b3lyp 6-31G(2df,p) opt Freq
 -----------------------------

 -----
 titel
 -----
 Symbolic Z-matrix:
 Charge =  0 Multiplicity = 1

 SCF Done:  E(RB3LYP) =  -423.205457792     A.U. after   14 cycles
 Optimization completed.
    -- Stationary point found.
 Normal termination of Gaussian 09 at Mon Jan 27 16:15:19 2020.

 ----------------------------------------------------------------------
 #N Geom=AllCheck Guess=TCheck SCRF=Check GenChk RB3LYP/6-31G(2df,p) Fr
 eq
 ----------------------------------------------------------------------

 Structure from the checkpoint file:  "/scratch/puck/g09_db2ab388-5bf3-4a59-98ef-92320bef4c79/Gau-63486.chk"
 -----
 titel
 -----
 Charge =  0 Multiplicity = 1

                         Standard orientation:
 ---------------------------------------------------------------------
 Center     Atomic      Atomic             Coordinates (Angstroms)
 Number     Number       Type             X           Y           Z
 ---------------------------------------------------------------------
      1          6           0        1.832888   -1.428626   -0.505502
      2          6           0        1.409869   -0.051361   -0.029834
      3          6           0        2.139885    1.106808   -0.683777
      4          6           0        1.001083    0.099227    1.439078
      5          6           0       -0.019366    0.150458    0.354988
      6          6           0       -1.048069    1.203072   -0.030029
      7          6           0       -1.978037   -0.008379   -0.147856
      8          8           0       -3.110646   -0.234430   -0.424082
      9          8           0       -1.004272   -0.911869    0.210087
     10          1           0        1.235270   -2.216099   -0.040937
     11          1           0        1.713329   -1.518587   -1.591034
     12          1           0        2.887232   -1.609737   -0.269277
     13          1           0        1.784052    2.073825   -0.314977
     14          1           0        3.214699    1.049344   -0.478086
     15          1           0        2.008997    1.092349   -1.771929
     16          1           0        1.017731   -0.792037    2.057761
     17          1           0        1.246785    1.019559    1.960153
     18          1           0       -1.337738    1.912038    0.747929
     19          1           0       -0.880532    1.732535   -0.970049
 ---------------------------------------------------------------------

 SCF Done:  E(RB3LYP) =  -423.205457792     A.U. after    1 cycles

 The electronic state is 1-A.
 Alpha  occ. eigenvalues --  -19.18139 -19.13411 -10.30991 -10.25948 -10.21328
 Alpha  occ. eigenvalues --  -10.21279 -10.19618 -10.19140 -10.18466  -1.10702
 Alpha  occ. eigenvalues --   -1.03384  -0.87973  -0.76672  -0.73416  -0.70017
 Alpha  occ. eigenvalues --   -0.60795  -0.56817  -0.53799  -0.50495  -0.48976
 Alpha  occ. eigenvalues --   -0.48127  -0.44738  -0.44431  -0.42327  -0.40639
 Alpha  occ. eigenvalues --   -0.40452  -0.39140  -0.38560  -0.36346  -0.34803
 Alpha  occ. eigenvalues --   -0.34612  -0.29100  -0.27479  -0.26614
 Alpha virt. eigenvalues --    0.01126   0.07376   0.08168   0.10351   0.10758
 Alpha virt. eigenvalues --    0.12372   0.13948   0.14634   0.14979   0.16761
 Alpha virt. eigenvalues --    0.17403   0.18008   0.18359   0.21257   0.22071

 Mulliken charges:
               1
     1  C   -0.450206
     2  C    0.241613
     3  C   -0.453143
     4  C   -0.400206
     5  C    0.422626
     6  C   -0.503174
     7  C    0.437263
     8  O   -0.314368
     9  O   -0.259187
    10  H    0.136348
    11  H    0.121513
    12  H    0.118564
    13  H    0.116401
    14  H    0.124641
    15  H    0.121800
    16  H    0.129765
    17  H    0.117406
    18  H    0.146280
    19  H    0.146062
 Sum of Mulliken charges =   0.00000

 Dipole moment (field-independent basis, Debye):
    X=              3.5565    Y=              1.9969    Z=              0.4760  Tot=              4.1065
 Quadrupole moment (field-independent basis, Debye-Ang):
   XX=            -63.6972   YY=            -52.0768   ZZ=            -51.5377
   XY=             -3.3137   XZ=             -1.8634   YZ=              0.0449

  Exact polarizability:  92.008  -0.995  70.875   1.816   0.258  67.340
 Approx polarizability: 127.165   0.418 102.706   6.209   0.120 101.323

                      1                      2                      3
                      A                      A                      A
 Frequencies --     92.4457               146.5174               178.9908
 Red. masses --      5.0944                 3.2654                 2.9836
 Frc consts  --      0.0257                 0.0413                 0.0563
 IR Inten    --      2.0821                 1.2704                 2.6209

                      4                      5                      6
                      A                      A                      A
 Frequencies --    199.0375               224.3052               274.7714
 Red. masses --      1.0400                 1.1958                 2.3981
 Frc consts  --      0.0243                 0.0354                 0.1067
 IR Inten    --      0.1482                 0.0914                 0.7034

                      7                      8                      9
                      A                      A                      A
 Frequencies --    355.9992               368.4128               413.7947
 Red. masses --      2.2243                 3.3999                 2.2040
 Frc consts  --      0.1661                 0.2719                 0.2223
 IR Inten    --      0.0329                 0.6331                 1.1042

                     10                     11                     12
                      A                      A                      A
 Frequencies --    487.1441               525.5835               540.2423
 Red. masses --      3.2959                 2.2684                 3.8998
 Frc consts  --      0.4608                 0.3692                 0.6706
 IR Inten    --      1.1481                 3.6710                 4.0673

                     13                     14                     15
                      A                      A                      A
 Frequencies --    543.4924               701.5483               797.5769
 Red. masses --      3.3414                 3.2554                 4.3923
 Frc consts  --      0.5815                 0.9440                 1.6462
 IR Inten    --      1.0437                 0.4770                10.3947

                     16                     17                     18
                      A                      A                      A
 Frequencies --    872.4156               880.1393               907.1044
 Red. masses --      2.5250                 2.3726                 1.4027
 Frc consts  --      1.1323                 1.0829                 0.6800
 IR Inten    --     52.8735                 3.4475                 1.6513

                     19                     20                     21
                      A                      A                      A
 Frequencies --    960.0943               974.8904               990.0028
 Red. masses --      3.1377                 1.3700                 2.1527
 Frc consts  --      1.7041                 0.7671                 1.2431
 IR Inten    --      9.9024                 1.3797                 4.0329

                     22                     23                     24
                      A                      A                      A
 Frequencies --   1027.6892              1035.9375              1053.2151
 Red. masses --      1.6505                 2.0981                 1.4660
 Frc consts  --      1.0270                 1.3266                 0.9581
 IR Inten    --     51.8229                10.1853                 4.8720

                     25                     26                     27
                      A                      A                      A
 Frequencies --   1064.5420              1137.8570              1163.5543
 Red. masses --      2.4685                 1.4206                 1.8889
 Frc consts  --      1.6482                 1.0837                 1.5067
 IR Inten    --    115.5264                 4.2738                 8.3798

                     28                     29                     30
                      A                      A                      A
 Frequencies --   1192.7252              1221.6082              1241.2205
 Red. masses --      1.9461                 3.2016                 2.7156
 Frc consts  --      1.6311                 2.8150                 2.4649
 IR Inten    --     13.4201                54.4466                19.4899

                     31                     32                     33
                      A                      A                      A
 Frequencies --   1302.0054              1409.3843              1412.4178
 Red. masses --      3.1177                 1.4174                 1.3573
 Frc consts  --      3.1139                 1.6588                 1.5954
 IR Inten    --      6.6210                 6.8107                 7.2753

                     34                     35                     36
                      A                      A                      A
 Frequencies --   1426.1749              1456.8990              1481.9883
 Red. masses --      1.2967                 1.1227                 1.0591
 Frc consts  --      1.5540                 1.4040                 1.3705
 IR Inten    --      2.6051                 6.5281                 1.8327

                     37                     38                     39
                      A                      A                      A
 Frequencies --   1488.1842              1491.2992              1501.5025
 Red. masses --      1.3687                 1.0600                 1.0474
 Frc consts  --      1.7859                 1.3889                 1.3912
 IR Inten    --     15.8987                 4.7863                 7.9344

                     40                     41                     42
                      A                      A                      A
 Frequencies --   1521.0056              1944.7127              3025.2493
 Red. masses --      1.4793                12.9152                 1.0355
 Frc consts  --      2.0164                28.7781                 5.5836
 IR Inten    --     17.0099               512.5043                22.6744

                     43                     44                     45
                      A                      A                      A
 Frequencies --   3032.4208              3083.1597              3087.7516
 Red. masses --      1.0371                 1.0595                 1.1014
 Frc consts  --      5.6189                 5.9337                 6.1869
 IR Inten    --     33.9033                 5.6693                 4.2757

                     46                     47                     48
                      A                      A                      A
 Frequencies --   3091.2040              3101.4063              3123.8688
 Red. masses --      1.1009                 1.1006                 1.0681
 Frc consts  --      6.1979                 6.2375                 6.1410
 IR Inten    --     39.7705                24.9896                 6.7420

                     49                     50                     51
                      A                      A                      A
 Frequencies --   3126.5210              3138.4852              3214.2475
 Red. masses --      1.0848                 1.1070                 1.1166
 Frc consts  --      6.2478                 6.4245                 6.7966
 IR Inten    --     14.2557                 2.8045                 4.0381

 - Thermochemistry -
 -------------------
 Temperature   298.150 Kelvin.  Pressure   1.00000 Atm.
 Atom     1 has atomic number  6 and mass  12.00000

 Molecular mass:   126.06808 amu.
 Principal axes and moments of inertia in atomic units:
                           1         2         3
     Eigenvalues --   537.724731611.978881759.69094
           X            0.99981  -0.01336  -0.01417
           Y            0.01337   0.99991   0.00025
           Z            0.01416  -0.00044   0.99990
 This molecule is an asymmetric top.
 Rotational symmetry number  1.
 Warning -- assumption of classical behavior for rotation
           may cause significant error
 Rotational temperatures (Kelvin)      0.16107     0.05373     0.04922
 Rotational constants (GHZ):           3.35625     1.11958     1.02560
 Zero-point vibrational energy     412907.5 (Joules/Mol)
                                   98.68726 (Kcal/Mol)
 Warning -- explicit consideration of  13 degrees of freedom as
           vibrations may cause significant error
 Vibrational temperatures:    133.01   210.81   257.53   286.37   322.72
          (Kelvin)            395.33   512.20   530.06   595.36   700.89
                              756.20   777.29   781.96  1009.37  1147.53
                             1255.21  1266.32  1305.12  1381.36  1402.65
                             1424.39  1478.61  1490.48  1515.34  1531.64
                             1637.12  1674.09  1716.06  1757.62  1785.84
                             1873.29  2027.79  2032.15  2051.95  2096.15
                             2132.25  2141.16  2145.64  2160.32  2188.39
                             2798.00  4352.65  4362.97  4435.97  4442.58
                             4447.55  4462.23  4494.54  4498.36  4515.57
                             4624.58

 Zero-point correction=                           0.157268 (Hartree/Particle)
 Thermal correction to Energy=                    0.166213
 Thermal correction to Enthalpy=                  0.167157
 Thermal correction to Gibbs Free Energy=         0.123912
 Sum of electronic and zero-point Energies=           -423.048190
 Sum of electronic and thermal Energies=              -423.039245
 Sum of electronic and thermal Enthalpies=            -423.038301
 Sum of electronic and thermal Free Energies=         -423.081546

                     E (Thermal)             CV                S
                      KCal/Mol        Cal/Mol-Kelvin    Cal/Mol-Kelvin
 Total                  104.300             33.949             91.016
 Electronic               0.000              0.000              0.000
 Translational            0.889              2.981             40.409
 Rotational               0.889              2.981             28.813
 Vibrational            102.523             27.987             21.794
 Vibration     1          0.602              1.955              3.608
 Vibration     2          0.617              1.906              2.717
 Vibration     3          0.629              1.868              2.339
 Vibration     4          0.637              1.841              2.142
 Vibration     5          0.649              1.804              1.924
 Vibration     6          0.677              1.720              1.566
 Vibration     7          0.732              1.563              1.140
 Vibration     8          0.741              1.537              1.086
 Vibration     9          0.777              1.440              0.913
 Vibration    10          0.843              1.279              0.691
 Vibration    11          0.881              1.193              0.597
 Vibration    12          0.895              1.161              0.565
 Vibration    13          0.899              1.154              0.558

 Optimization completed.
    -- Stationary point found.
 Normal termination of Gaussian 09 at Mon Jan 27 16:59:59 2020.
