 Gaussian 09, Revision D.01,
 Gaussian 09:  ES64L-G09RevD.01 24-Apr-2013

 -----------------------------
 # b3lyp 6-31G(2df,p) opt Freq
 -----------------------------

 -----
 titel
 -----
 Symbolic Z-matrix:
 Charge =  0 Multiplicity = 1

 SCF Done:  E(RB3LYP) =  -423.222028887     A.U. after   15 cycles
 Optimization completed.
    -- Stationary point found.
 Normal termination of Gaussian 09 at Tue Jan 28 00:41:09 2020.

 ----------------------------------------------------------------------
 #N Geom=AllCheck Guess=TCheck SCRF=Check GenChk RB3LYP/6-31G(2df,p) Fr
 eq
 ----------------------------------------------------------------------

 Structure from the checkpoint file:  "/scratch/puck/g09_bb997439-ab92-403b-bfe0-968cbf46ebe1/Gau-189627.chk"
 -----
 titel
 -----
 Charge =  0 Multiplicity = 1

                         Standard orientation:
 ---------------------------------------------------------------------
 Center     Atomic      Atomic             Coordinates (Angstroms)
 Number     Number       Type             X           Y           Z
 ---------------------------------------------------------------------
      1          6           0       -2.703928   -0.237774   -0.817678
      2          6           0       -1.779057   -0.087877    0.385304
      3          6           0       -0.752101   -1.217436    0.724711
      4          6           0        0.405995   -0.189881    0.787629
      5          6           0        1.626063   -0.412691   -0.096094
      6          6           0        2.645202    0.705045   -0.073920
      7          8           0        1.729501   -1.392741   -0.796385
      8          6           0       -0.591438    0.873954    0.242597
      9          8           0       -0.450997    1.976044   -0.201570
     10          1           0       -3.466009   -1.000253   -0.629536
     11          1           0       -3.210465    0.707181   -1.034782
     12          1           0       -2.142859   -0.533361   -1.709790
     13          1           0       -2.357452    0.202136    1.272291
     14          1           0       -0.943993   -1.776227    1.640822
     15          1           0       -0.597965   -1.916638   -0.099729
     16          1           0        0.728143    0.086274    1.798034
     17          1           0        3.434124    0.510535   -0.801266
     18          1           0        2.142684    1.654065   -0.294911
     19          1           0        3.081342    0.799822    0.927219
 ---------------------------------------------------------------------

 SCF Done:  E(RB3LYP) =  -423.222028887     A.U. after    1 cycles

 The electronic state is 1-A.
 Alpha  occ. eigenvalues --  -19.15229 -19.13387 -10.28123 -10.27640 -10.20632
 Alpha  occ. eigenvalues --  -10.20522 -10.19394 -10.18827 -10.18792  -1.06054
 Alpha  occ. eigenvalues --   -1.04420  -0.85879  -0.76595  -0.73320  -0.65758
 Alpha  occ. eigenvalues --   -0.63250  -0.55114  -0.52550  -0.48092  -0.47360
 Alpha  occ. eigenvalues --   -0.46761  -0.44482  -0.43203  -0.41966  -0.40913
 Alpha  occ. eigenvalues --   -0.39966  -0.39307  -0.38127  -0.36162  -0.34974
 Alpha  occ. eigenvalues --   -0.34400  -0.33089  -0.26271  -0.24210
 Alpha virt. eigenvalues --   -0.03635  -0.00832   0.08872   0.10451   0.11906
 Alpha virt. eigenvalues --    0.12297   0.13982   0.15501   0.15512   0.16538
 Alpha virt. eigenvalues --    0.17292   0.17722   0.18227   0.18585   0.21946

 Mulliken charges:
               1
     1  C   -0.404824
     2  C   -0.083800
     3  C   -0.275583
     4  C   -0.221127
     5  C    0.372007
     6  C   -0.485508
     7  O   -0.293088
     8  C    0.381679
     9  O   -0.296063
    10  H    0.124396
    11  H    0.135969
    12  H    0.130179
    13  H    0.106729
    14  H    0.108705
    15  H    0.137687
    16  H    0.116210
    17  H    0.140750
    18  H    0.168882
    19  H    0.136800
 Sum of Mulliken charges =   0.00000

 Dipole moment (field-independent basis, Debye):
    X=             -0.9436    Y=             -0.1299    Z=              2.2422  Tot=              2.4362
 Quadrupole moment (field-independent basis, Debye-Ang):
   XX=            -49.4844   YY=            -61.3184   ZZ=            -51.6319
   XY=              5.1997   XZ=              1.9956   YZ=             -1.0101

  Exact polarizability:  92.388   2.293  75.994  -0.584   0.266  64.937
 Approx polarizability: 115.500  -2.819 127.257  -3.504   3.459 102.468

                      1                      2                      3
                      A                      A                      A
 Frequencies --     39.7790                67.4471               136.7013
 Red. masses --      3.4237                 4.7320                 4.2818
 Frc consts  --      0.0032                 0.0127                 0.0471
 IR Inten    --      1.5608                 4.6399                 4.1588

                      4                      5                      6
                      A                      A                      A
 Frequencies --    165.6786               194.4242               206.7156
 Red. masses --      1.0702                 1.0800                 3.5387
 Frc consts  --      0.0173                 0.0241                 0.0891
 IR Inten    --      0.3857                 0.1433                 5.2865

                      7                      8                      9
                      A                      A                      A
 Frequencies --    241.6177               336.0651               358.0305
 Red. masses --      3.3625                 2.2520                 3.4257
 Frc consts  --      0.1157                 0.1499                 0.2587
 IR Inten    --      3.8665                 0.5702                 1.9706

                     10                     11                     12
                      A                      A                      A
 Frequencies --    461.2146               530.5563               586.2244
 Red. masses --      3.7954                 3.9238                 2.9223
 Frc consts  --      0.4757                 0.6508                 0.5917
 IR Inten    --      2.0017                 0.4510                13.4913

                     13                     14                     15
                      A                      A                      A
 Frequencies --    591.6986               664.2172               752.4157
 Red. masses --      3.3666                 2.6128                 2.7408
 Frc consts  --      0.6945                 0.6792                 0.9142
 IR Inten    --     11.2631                 2.9549                 2.0725

                     16                     17                     18
                      A                      A                      A
 Frequencies --    808.7960               890.0878               913.7220
 Red. masses --      3.0876                 2.4618                 1.3322
 Frc consts  --      1.1900                 1.1491                 0.6553
 IR Inten    --      0.4080                 3.4372                 0.4244

                     19                     20                     21
                      A                      A                      A
 Frequencies --    936.2361               970.1648               997.3158
 Red. masses --      2.6218                 1.4239                 1.3026
 Frc consts  --      1.3540                 0.7896                 0.7633
 IR Inten    --     35.1914                12.8614                 2.9568

                     22                     23                     24
                      A                      A                      A
 Frequencies --   1021.1184              1083.1550              1101.8820
 Red. masses --      3.1883                 2.1541                 2.3220
 Frc consts  --      1.9587                 1.4890                 1.6611
 IR Inten    --     69.0680                18.2459                 2.7911

                     25                     26                     27
                      A                      A                      A
 Frequencies --   1121.4619              1134.4023              1175.4547
 Red. masses --      2.0678                 1.7013                 1.9747
 Frc consts  --      1.5323                 1.2900                 1.6076
 IR Inten    --     48.2349                20.1346                31.0337

                     28                     29                     30
                      A                      A                      A
 Frequencies --   1197.4882              1235.2829              1264.1125
 Red. masses --      1.6836                 1.3975                 1.4153
 Frc consts  --      1.4224                 1.2564                 1.3325
 IR Inten    --     52.4359                 4.7790                 1.0826

                     31                     32                     33
                      A                      A                      A
 Frequencies --   1294.9738              1336.9902              1385.4595
 Red. masses --      1.8034                 1.8003                 1.3407
 Frc consts  --      1.7818                 1.8961                 1.5163
 IR Inten    --     46.7759                 9.4335                47.2908

                     34                     35                     36
                      A                      A                      A
 Frequencies --   1406.0502              1467.8948              1474.4868
 Red. masses --      1.2159                 1.0529                 1.0496
 Frc consts  --      1.4163                 1.3366                 1.3445
 IR Inten    --      1.6207                10.3168                 9.9626

                     37                     38                     39
                      A                      A                      A
 Frequencies --   1487.5896              1494.7875              1496.2825
 Red. masses --      1.0866                 1.0500                 1.0519
 Frc consts  --      1.4167                 1.3822                 1.3875
 IR Inten    --      3.6576                 8.1312                 1.6277

                     40                     41                     42
                      A                      A                      A
 Frequencies --   1806.4244              1876.5561              3028.4939
 Red. masses --     10.6898                12.8175                 1.0824
 Frc consts  --     20.5523                26.5936                 5.8490
 IR Inten    --    199.6929               183.0663                 9.3456

                     43                     44                     45
                      A                      A                      A
 Frequencies --   3032.7791              3038.6477              3056.8677
 Red. masses --      1.0368                 1.0344                 1.0829
 Frc consts  --      5.6188                 5.6272                 5.9617
 IR Inten    --      3.4172                20.7327                 5.2645

                     46                     47                     48
                      A                      A                      A
 Frequencies --   3084.4279              3096.2016              3109.3887
 Red. masses --      1.0584                 1.0982                 1.1022
 Frc consts  --      5.9329                 6.2029                 6.2788
 IR Inten    --     16.3907                 3.7508                18.2484

                     49                     50                     51
                      A                      A                      A
 Frequencies --   3115.5789              3142.5501              3153.2597
 Red. masses --      1.1018                 1.1084                 1.1025
 Frc consts  --      6.3011                 6.4491                 6.4585
 IR Inten    --     15.8008                11.2458                 8.2111

 - Thermochemistry -
 -------------------
 Temperature   298.150 Kelvin.  Pressure   1.00000 Atm.
 Atom     1 has atomic number  6 and mass  12.00000

 Molecular mass:   126.06808 amu.
 Principal axes and moments of inertia in atomic units:
                           1         2         3
     Eigenvalues --   678.876181483.805771814.54006
           X            0.99832   0.05559   0.01636
           Y           -0.05534   0.99835  -0.01551
           Z           -0.01720   0.01458   0.99975
 This molecule is an asymmetric top.
 Rotational symmetry number  1.
 Warning -- assumption of classical behavior for rotation
           may cause significant error
 Rotational temperatures (Kelvin)      0.12758     0.05837     0.04773
 Rotational constants (GHZ):           2.65842     1.21629     0.99460
 Zero-point vibrational energy     410134.6 (Joules/Mol)
                                   98.02453 (Kcal/Mol)
 Warning -- explicit consideration of  13 degrees of freedom as
           vibrations may cause significant error
 Vibrational temperatures:     57.23    97.04   196.68   238.37   279.73
          (Kelvin)            297.42   347.63   483.52   515.13   663.58
                              763.35   843.45   851.32   955.66  1082.56
                             1163.68  1280.64  1314.64  1347.03  1395.85
                             1434.91  1469.16  1558.42  1585.36  1613.53
                             1632.15  1691.21  1722.92  1777.29  1818.77
                             1863.18  1923.63  1993.36  2022.99  2111.97
                             2121.46  2140.31  2150.66  2152.81  2599.04
                             2699.94  4357.32  4363.49  4371.93  4398.15
                             4437.80  4454.74  4473.71  4482.62  4521.42
                             4536.83

 Zero-point correction=                           0.156212 (Hartree/Particle)
 Thermal correction to Energy=                    0.165908
 Thermal correction to Enthalpy=                  0.166852
 Thermal correction to Gibbs Free Energy=         0.120781
 Sum of electronic and zero-point Energies=           -423.065817
 Sum of electronic and thermal Energies=              -423.056121
 Sum of electronic and thermal Enthalpies=            -423.055177
 Sum of electronic and thermal Free Energies=         -423.101248

                     E (Thermal)             CV                S
                      KCal/Mol        Cal/Mol-Kelvin    Cal/Mol-Kelvin
 Total                  104.109             34.623             96.965
 Electronic               0.000              0.000              0.000
 Translational            0.889              2.981             40.409
 Rotational               0.889              2.981             28.993
 Vibrational            102.331             28.662             27.564
 Vibration     1          0.594              1.981              5.270
 Vibration     2          0.598              1.970              4.227
 Vibration     3          0.614              1.917              2.850
 Vibration     4          0.624              1.885              2.484
 Vibration     5          0.635              1.848              2.185
 Vibration     6          0.641              1.830              2.072
 Vibration     7          0.658              1.777              1.791
 Vibration     8          0.717              1.603              1.231
 Vibration     9          0.733              1.559              1.131
 Vibration    10          0.819              1.336              0.763
 Vibration    11          0.886              1.182              0.586
 Vibration    12          0.943              1.061              0.474
 Vibration    13          0.949              1.049              0.464

 Optimization completed.
    -- Stationary point found.
 Normal termination of Gaussian 09 at Tue Jan 28 01:21:39 2020.
