 Gaussian 09, Revision D.01,
 Gaussian 09:  ES64L-G09RevD.01 24-Apr-2013

 -----------------------------
 # b3lyp 6-31G(2df,p) opt Freq
 -----------------------------

 -----
 titel
 -----
 Symbolic Z-matrix:
 Charge =  0 Multiplicity = 1

 SCF Done:  E(RB3LYP) =  -423.106733239     A.U. after   14 cycles
 Optimization completed.
    -- Stationary point found.
 Normal termination of Gaussian 09 at Tue Jan 28 08:21:19 2020.

 ----------------------------------------------------------------------
 #N Geom=AllCheck Guess=TCheck SCRF=Check GenChk RB3LYP/6-31G(2df,p) Fr
 eq
 ----------------------------------------------------------------------

 Structure from the checkpoint file:  "/scratch/puck/g09_b893404a-c93f-414a-b9c8-d322998ef6f7/Gau-60030.chk"
 -----
 titel
 -----
 Charge =  0 Multiplicity = 1

                         Standard orientation:
 ---------------------------------------------------------------------
 Center     Atomic      Atomic             Coordinates (Angstroms)
 Number     Number       Type             X           Y           Z
 ---------------------------------------------------------------------
      1          6           0       -2.377273   -1.498585   -0.291486
      2          8           0       -1.197193   -1.135788    0.397667
      3          6           0       -0.516226   -0.027128   -0.163783
      4          6           0       -1.281797    1.222962   -0.049368
      5          6           0       -1.899233    2.248872    0.059080
      6          6           0        0.824738    0.075380    0.559566
      7          6           0        1.866946    0.998907   -0.104203
      8          8           0        2.677016   -0.127808   -0.498908
      9          6           0        1.826493   -1.046554    0.220620
     10          1           0       -2.166618   -1.761250   -1.339636
     11          1           0       -2.785204   -2.373622    0.218929
     12          1           0       -3.121520   -0.691454   -0.275721
     13          1           0       -0.323776   -0.217765   -1.235105
     14          1           0       -2.446457    3.154885    0.149875
     15          1           0        0.644265    0.244923    1.621792
     16          1           0        1.517130    1.582668   -0.964531
     17          1           0        2.398187    1.667258    0.584700
     18          1           0        1.445893   -1.852143   -0.418003
     19          1           0        2.337629   -1.487859    1.085072
 ---------------------------------------------------------------------

 SCF Done:  E(RB3LYP) =  -423.106733239     A.U. after    1 cycles

 The electronic state is 1-A.
 Alpha  occ. eigenvalues --  -19.15182 -19.12985 -10.26320 -10.23109 -10.22869
 Alpha  occ. eigenvalues --  -10.22797 -10.19896 -10.18927 -10.18536  -1.04574
 Alpha  occ. eigenvalues --   -1.03431  -0.80451  -0.74599  -0.70142  -0.69019
 Alpha  occ. eigenvalues --   -0.65097  -0.56134  -0.54465  -0.51402  -0.49974
 Alpha  occ. eigenvalues --   -0.49532  -0.46819  -0.43883  -0.43172  -0.41781
 Alpha  occ. eigenvalues --   -0.40194  -0.37158  -0.33558  -0.32952  -0.30602
 Alpha  occ. eigenvalues --   -0.28395  -0.27452  -0.27090  -0.24658
 Alpha virt. eigenvalues --    0.02832   0.04270   0.08375   0.09899   0.10556
 Alpha virt. eigenvalues --    0.11979   0.12366   0.14038   0.15558   0.16427
 Alpha virt. eigenvalues --    0.16846   0.17569   0.17923   0.18541   0.20265

 Mulliken charges:
               1
     1  C   -0.241401
     2  O   -0.236336
     3  C   -0.074961
     4  C    0.327923
     5  C   -0.460345
     6  C   -0.037874
     7  C   -0.089036
     8  O   -0.274532
     9  C   -0.088536
    10  H    0.106698
    11  H    0.131055
    12  H    0.122290
    13  H    0.097319
    14  H    0.202027
    15  H    0.097144
    16  H    0.107209
    17  H    0.102700
    18  H    0.108302
    19  H    0.100355
 Sum of Mulliken charges =   0.00000

 Dipole moment (field-independent basis, Debye):
    X=             -1.8269    Y=              0.4701    Z=              0.1158  Tot=              1.8899
 Quadrupole moment (field-independent basis, Debye-Ang):
   XX=            -56.0930   YY=            -48.1670   ZZ=            -53.8721
   XY=             -0.2704   XZ=              4.0636   YZ=              1.2184

  Exact polarizability:  83.430  -6.752  90.309   1.348   0.926  58.841
 Approx polarizability: 108.306 -17.051 132.998  -1.477   1.499  91.233

                      1                      2                      3
                      A                      A                      A
 Frequencies --     57.2142                71.4877               107.6371
 Red. masses --      3.9656                 3.7484                 2.5304
 Frc consts  --      0.0076                 0.0113                 0.0173
 IR Inten    --      4.1055                 0.8721                 3.2975

                      4                      5                      6
                      A                      A                      A
 Frequencies --    127.6342               173.4662               193.4306
 Red. masses --      3.1362                 2.0696                 1.8340
 Frc consts  --      0.0301                 0.0367                 0.0404
 IR Inten    --      0.5061                 0.4779                 1.7360

                      7                      8                      9
                      A                      A                      A
 Frequencies --    252.1196               325.4157               363.9233
 Red. masses --      2.3514                 3.1419                 3.4461
 Frc consts  --      0.0881                 0.1960                 0.2689
 IR Inten    --      4.5304                 0.4856                 6.4970

                     10                     11                     12
                      A                      A                      A
 Frequencies --    446.8064               502.5879               587.7741
 Red. masses --      3.2056                 4.6325                 6.1232
 Frc consts  --      0.3770                 0.6894                 1.2464
 IR Inten    --      0.2329                 4.5823                 6.0303

                     13                     14                     15
                      A                      A                      A
 Frequencies --    632.6290               680.5134               837.2429
 Red. masses --      1.2313                 1.2584                 5.4260
 Frc consts  --      0.2904                 0.3434                 2.2410
 IR Inten    --     41.2085                33.5289                16.0857

                     16                     17                     18
                      A                      A                      A
 Frequencies --    859.4894               883.5577               932.7449
 Red. masses --      2.0348                 1.3656                 3.6474
 Frc consts  --      0.8856                 0.6281                 1.8696
 IR Inten    --      2.7887                 2.8135                 5.1360

                     19                     20                     21
                      A                      A                      A
 Frequencies --    979.2354               987.0439              1036.0971
 Red. masses --      4.1730                 3.3127                10.3886
 Frc consts  --      2.3576                 1.9016                 6.5706
 IR Inten    --     14.8132                30.2565                92.4262

                     22                     23                     24
                      A                      A                      A
 Frequencies --   1073.1418              1084.2367              1132.9651
 Red. masses --      2.3369                 2.8033                 4.6571
 Frc consts  --      1.5856                 1.9416                 3.5221
 IR Inten    --      8.4180                 0.9042               140.6206

                     25                     26                     27
                      A                      A                      A
 Frequencies --   1150.9862              1157.5938              1180.6263
 Red. masses --      1.4614                 1.0774                 1.5838
 Frc consts  --      1.1407                 0.8507                 1.3007
 IR Inten    --     28.7975                 0.9804                30.5783

                     28                     29                     30
                      A                      A                      A
 Frequencies --   1185.0726              1233.6330              1250.8954
 Red. masses --      1.3536                 1.6408                 1.4918
 Frc consts  --      1.1200                 1.4712                 1.3753
 IR Inten    --      4.8906                 6.2878                 3.8322

                     31                     32                     33
                      A                      A                      A
 Frequencies --   1291.2415              1307.7687              1360.3746
 Red. masses --      1.3746                 1.2789                 1.2013
 Frc consts  --      1.3504                 1.2887                 1.3098
 IR Inten    --     10.0242                 0.3636                26.4798

                     34                     35                     36
                      A                      A                      A
 Frequencies --   1371.5347              1394.4660              1478.0783
 Red. masses --      1.3793                 1.6647                 1.1485
 Frc consts  --      1.5287                 1.9072                 1.4784
 IR Inten    --      1.9747                 5.5846                 0.8521

                     37                     38                     39
                      A                      A                      A
 Frequencies --   1485.8505              1510.4799              1513.4899
 Red. masses --      1.0477                 1.0546                 1.0781
 Frc consts  --      1.3628                 1.4176                 1.4551
 IR Inten    --      3.6288                 6.9187                 1.6952

                     40                     41                     42
                      A                      A                      A
 Frequencies --   1537.9620              2228.7940              2940.5928
 Red. masses --      1.1094                 5.8899                 1.0800
 Frc consts  --      1.5461                17.2384                 5.5023
 IR Inten    --      1.2388                 2.3840                26.9899

                     43                     44                     45
                      A                      A                      A
 Frequencies --   2985.5421              3010.9296              3022.0465
 Red. masses --      1.0406                 1.0532                 1.0588
 Frc consts  --      5.4648                 5.6255                 5.6972
 IR Inten    --     56.2512               108.3109                13.0350

                     46                     47                     48
                      A                      A                      A
 Frequencies --   3048.1557              3055.9552              3063.1197
 Red. masses --      1.0974                 1.1106                 1.1094
 Frc consts  --      6.0074                 6.1110                 6.1329
 IR Inten    --     38.0862                36.7784                34.6017

                     49                     50                     51
                      A                      A                      A
 Frequencies --   3107.9422              3124.1744              3500.8479
 Red. masses --      1.0877                 1.0984                 1.1626
 Frc consts  --      6.1905                 6.3163                 8.3950
 IR Inten    --     24.0876                24.0430                62.7072

 - Thermochemistry -
 -------------------
 Temperature   298.150 Kelvin.  Pressure   1.00000 Atm.
 Atom     1 has atomic number  6 and mass  12.00000

 Molecular mass:   126.06808 amu.
 Principal axes and moments of inertia in atomic units:
                           1         2         3
     Eigenvalues --   725.112301526.563592101.22565
           X            0.99960   0.02347   0.01588
           Y           -0.02365   0.99965   0.01151
           Z           -0.01561  -0.01188   0.99981
 This molecule is an asymmetric top.
 Rotational symmetry number  1.
 Warning -- assumption of classical behavior for rotation
           may cause significant error
 Rotational temperatures (Kelvin)      0.11945     0.05674     0.04122
 Rotational constants (GHZ):           2.48891     1.18222     0.85890
 Zero-point vibrational energy     411674.2 (Joules/Mol)
                                   98.39249 (Kcal/Mol)
 Warning -- explicit consideration of  12 degrees of freedom as
           vibrations may cause significant error
 Vibrational temperatures:     82.32   102.85   154.87   183.64   249.58
          (Kelvin)            278.30   362.74   468.20   523.60   642.85
                              723.11   845.67   910.21   979.11  1204.60
                             1236.61  1271.24  1342.01  1408.90  1420.13
                             1490.71  1544.01  1559.97  1630.08  1656.01
                             1665.52  1698.66  1705.05  1774.92  1799.76
                             1857.81  1881.59  1957.27  1973.33  2006.32
                             2126.62  2137.80  2173.24  2177.57  2212.78
                             3206.73  4230.85  4295.52  4332.05  4348.05
                             4385.61  4396.83  4407.14  4471.63  4494.98
                             5036.93

 Zero-point correction=                           0.156798 (Hartree/Particle)
 Thermal correction to Energy=                    0.166557
 Thermal correction to Enthalpy=                  0.167501
 Thermal correction to Gibbs Free Energy=         0.121192
 Sum of electronic and zero-point Energies=           -422.949935
 Sum of electronic and thermal Energies=              -422.940177
 Sum of electronic and thermal Enthalpies=            -422.939233
 Sum of electronic and thermal Free Energies=         -422.985541

                     E (Thermal)             CV                S
                      KCal/Mol        Cal/Mol-Kelvin    Cal/Mol-Kelvin
 Total                  104.516             34.320             97.465
 Electronic               0.000              0.000              0.000
 Translational            0.889              2.981             40.409
 Rotational               0.889              2.981             29.232
 Vibrational            102.738             28.358             27.824
 Vibration     1          0.596              1.975              4.551
 Vibration     2          0.598              1.968              4.112
 Vibration     3          0.606              1.943              3.311
 Vibration     4          0.611              1.926              2.981
 Vibration     5          0.627              1.875              2.398
 Vibration     6          0.635              1.849              2.195
 Vibration     7          0.664              1.759              1.716
 Vibration     8          0.710              1.625              1.283
 Vibration     9          0.737              1.547              1.105
 Vibration    10          0.806              1.368              0.805
 Vibration    11          0.858              1.244              0.652
 Vibration    12          0.945              1.058              0.471

 Optimization completed.
    -- Stationary point found.
 Normal termination of Gaussian 09 at Tue Jan 28 10:12:16 2020.
