 Gaussian 09, Revision D.01,
 Gaussian 09:  ES64L-G09RevD.01 24-Apr-2013

 -----------------------------
 # b3lyp 6-31G(2df,p) opt Freq
 -----------------------------

 -----
 titel
 -----
 Symbolic Z-matrix:
 Charge =  0 Multiplicity = 1

 SCF Done:  E(RB3LYP) =  -423.189257228     A.U. after   13 cycles
 Optimization completed.
    -- Stationary point found.
 Normal termination of Gaussian 09 at Mon Jan 27 22:08:13 2020.

 ----------------------------------------------------------------------
 #N Geom=AllCheck Guess=TCheck SCRF=Check GenChk RB3LYP/6-31G(2df,p) Fr
 eq
 ----------------------------------------------------------------------

 Structure from the checkpoint file:  "/scratch/puck/g09_efe05ce4-3d70-419b-b8f1-4ab14081b1a4/Gau-85626.chk"
 -----
 titel
 -----
 Charge =  0 Multiplicity = 1

                         Standard orientation:
 ---------------------------------------------------------------------
 Center     Atomic      Atomic             Coordinates (Angstroms)
 Number     Number       Type             X           Y           Z
 ---------------------------------------------------------------------
      1          8           0       -2.336583   -0.403541   -0.338463
      2          6           0       -1.188070    0.407635   -0.498625
      3          6           0       -0.028136   -0.421396   -1.035187
      4          6           0        1.261952    0.410659   -0.788373
      5          6           0        0.801288    1.493509    0.215350
      6          6           0       -0.467778    0.835974    0.809077
      7          6           0       -0.079660   -0.542361    1.398072
      8          6           0        0.548284   -1.228594    0.168555
      9          8           0        1.874047   -0.682424   -0.063665
     10          1           0       -3.020341    0.125643    0.084336
     11          1           0       -1.406388    1.274571   -1.140757
     12          1           0       -0.144110   -0.932320   -1.987688
     13          1           0        1.884389    0.762280   -1.613761
     14          1           0        1.582265    1.699243    0.951738
     15          1           0        0.553227    2.430607   -0.297114
     16          1           0       -1.045313    1.478140    1.478635
     17          1           0        0.635458   -0.484565    2.222196
     18          1           0       -0.972146   -1.078941    1.730293
     19          1           0        0.545975   -2.319499    0.175934
 ---------------------------------------------------------------------

 SCF Done:  E(RB3LYP) =  -423.189257228     A.U. after    1 cycles

 The electronic state is 1-A.
 Alpha  occ. eigenvalues --  -19.14179 -19.12273 -10.23115 -10.23081 -10.22717
 Alpha  occ. eigenvalues --  -10.18788 -10.18390 -10.18110 -10.17453  -1.03783
 Alpha  occ. eigenvalues --   -1.02230  -0.84259  -0.74151  -0.72050  -0.66284
 Alpha  occ. eigenvalues --   -0.60545  -0.57313  -0.52634  -0.52336  -0.50641
 Alpha  occ. eigenvalues --   -0.45955  -0.44018  -0.43265  -0.40112  -0.38811
 Alpha  occ. eigenvalues --   -0.37415  -0.37104  -0.35782  -0.33733  -0.32677
 Alpha  occ. eigenvalues --   -0.29455  -0.28916  -0.26891  -0.23314
 Alpha virt. eigenvalues --    0.06733   0.09311   0.09935   0.13557   0.13768
 Alpha virt. eigenvalues --    0.14799   0.15808   0.16122   0.16807   0.17654
 Alpha virt. eigenvalues --    0.18377   0.18675   0.18983   0.20101   0.22313

 Mulliken charges:
               1
     1  O   -0.448922
     2  C    0.137488
     3  C   -0.073275
     4  C    0.095865
     5  C   -0.235631
     6  C   -0.091695
     7  C   -0.220071
     8  C    0.110538
     9  O   -0.305972
    10  H    0.283246
    11  H    0.061696
    12  H    0.077191
    13  H    0.074038
    14  H    0.108409
    15  H    0.093151
    16  H    0.052611
    17  H    0.101050
    18  H    0.103431
    19  H    0.076852
 Sum of Mulliken charges =   0.00000

 Dipole moment (field-independent basis, Debye):
    X=             -1.7046    Y=              1.7622    Z=              0.1997  Tot=              2.4598
 Quadrupole moment (field-independent basis, Debye-Ang):
   XX=            -55.0079   YY=            -51.9820   ZZ=            -51.6516
   XY=             -1.0989   XZ=             -2.5604   YZ=             -0.7790

  Exact polarizability:  74.707   1.180  73.182  -2.202  -1.592  69.976
 Approx polarizability: 109.635   1.126 108.708  -2.037  -2.680 103.339

                      1                      2                      3
                      A                      A                      A
 Frequencies --    206.9339               285.2131               308.6973
 Red. masses --      4.2489                 1.7383                 1.7266
 Frc consts  --      0.1072                 0.0833                 0.0969
 IR Inten    --      0.5379                32.4739                79.3383

                      4                      5                      6
                      A                      A                      A
 Frequencies --    356.8006               397.6608               475.3421
 Red. masses --      2.7456                 2.1571                 2.2849
 Frc consts  --      0.2059                 0.2010                 0.3042
 IR Inten    --      1.1220                 3.7061                 5.6612

                      7                      8                      9
                      A                      A                      A
 Frequencies --    517.7298               609.9240               672.5949
 Red. masses --      5.3416                 4.5256                 4.5348
 Frc consts  --      0.8436                 0.9919                 1.2087
 IR Inten    --      3.3158                 1.3091                11.8046

                     10                     11                     12
                      A                      A                      A
 Frequencies --    791.7279               823.5023               843.8392
 Red. masses --      4.4024                 2.8966                 2.3050
 Frc consts  --      1.6259                 1.1574                 0.9670
 IR Inten    --      1.2265                 0.8201                 2.4243

                     13                     14                     15
                      A                      A                      A
 Frequencies --    863.6161               887.7193               896.9600
 Red. masses --      2.2135                 2.1453                 4.7322
 Frc consts  --      0.9727                 0.9960                 2.2432
 IR Inten    --      6.4290                 9.5446                 2.6332

                     16                     17                     18
                      A                      A                      A
 Frequencies --    908.4042               934.0115               941.2254
 Red. masses --      2.2671                 1.9007                 2.4561
 Frc consts  --      1.1022                 0.9770                 1.2820
 IR Inten    --     13.0080                 2.4644                 2.3838

                     19                     20                     21
                      A                      A                      A
 Frequencies --    983.5457              1006.3617              1026.7743
 Red. masses --      3.0136                 1.9943                 1.7603
 Frc consts  --      1.7176                 1.1900                 1.0934
 IR Inten    --     53.3866                14.4093                 9.9923

                     22                     23                     24
                      A                      A                      A
 Frequencies --   1035.4834              1082.6447              1100.4285
 Red. masses --      1.4871                 2.1289                 2.6202
 Frc consts  --      0.9394                 1.4702                 1.8694
 IR Inten    --      0.5724                 4.3023                43.5254

                     25                     26                     27
                      A                      A                      A
 Frequencies --   1134.3144              1143.5545              1149.5906
 Red. masses --      1.9588                 1.2561                 1.3751
 Frc consts  --      1.4850                 0.9678                 1.0707
 IR Inten    --      7.4162                 3.0089                32.2269

                     28                     29                     30
                      A                      A                      A
 Frequencies --   1190.0527              1234.4825              1259.7590
 Red. masses --      1.5109                 1.5780                 1.5462
 Frc consts  --      1.2607                 1.4168                 1.4458
 IR Inten    --     30.2491                11.6319                 0.0500

                     31                     32                     33
                      A                      A                      A
 Frequencies --   1272.2645              1275.7335              1295.5043
 Red. masses --      1.5133                 1.6809                 1.5427
 Frc consts  --      1.4433                 1.6118                 1.5255
 IR Inten    --     19.7190                 6.8960                13.6933

                     34                     35                     36
                      A                      A                      A
 Frequencies --   1306.3440              1318.4602              1348.3407
 Red. masses --      1.3143                 1.3760                 1.4939
 Frc consts  --      1.3215                 1.4093                 1.6002
 IR Inten    --      3.4248                 7.0111                 0.1001

                     37                     38                     39
                      A                      A                      A
 Frequencies --   1357.0275              1368.1094              1430.5701
 Red. masses --      1.5505                 1.5054                 1.5622
 Frc consts  --      1.6823                 1.6601                 1.8837
 IR Inten    --     17.1651                 7.1742                 3.6692

                     40                     41                     42
                      A                      A                      A
 Frequencies --   1465.3674              1482.4770              2984.7365
 Red. masses --      1.0999                 1.1024                 1.0839
 Frc consts  --      1.3916                 1.4275                 5.6891
 IR Inten    --      4.4115                 4.4531                50.2290

                     43                     44                     45
                      A                      A                      A
 Frequencies --   3037.3128              3064.0593              3081.0095
 Red. masses --      1.0649                 1.0606                 1.0860
 Frc consts  --      5.7883                 5.8668                 6.0738
 IR Inten    --     30.8358                16.2251                66.3651

                     46                     47                     48
                      A                      A                      A
 Frequencies --   3088.7153              3101.2069              3103.0915
 Red. masses --      1.0892                 1.0904                 1.0995
 Frc consts  --      6.1225                 6.1789                 6.2376
 IR Inten    --     57.8207                35.4630                19.7080

                     49                     50                     51
                      A                      A                      A
 Frequencies --   3118.8284              3152.6130              3816.6411
 Red. masses --      1.1063                 1.0909                 1.0662
 Frc consts  --      6.3405                 6.3881                 9.1507
 IR Inten    --     18.6408                21.3590                21.2571

 - Thermochemistry -
 -------------------
 Temperature   298.150 Kelvin.  Pressure   1.00000 Atm.
 Atom     1 has atomic number  8 and mass  15.99491

 Molecular mass:   126.06808 amu.
 Principal axes and moments of inertia in atomic units:
                           1         2         3
     Eigenvalues --   608.681451037.142021099.77615
           X            0.99986   0.01006  -0.01352
           Y           -0.01086   0.99810  -0.06066
           Z            0.01289   0.06080   0.99807
 This molecule is an asymmetric top.
 Rotational symmetry number  1.
 Warning -- assumption of classical behavior for rotation
           may cause significant error
 Rotational temperatures (Kelvin)      0.14230     0.08351     0.07876
 Rotational constants (GHZ):           2.96500     1.74011     1.64101
 Zero-point vibrational energy     427888.1 (Joules/Mol)
                                  102.26771 (Kcal/Mol)
 Warning -- explicit consideration of   8 degrees of freedom as
           vibrations may cause significant error
 Vibrational temperatures:    297.73   410.36   444.15   513.36   572.14
          (Kelvin)            683.91   744.90   877.54   967.71  1139.12
                             1184.83  1214.09  1242.55  1277.23  1290.52
                             1306.99  1343.83  1354.21  1415.10  1447.93
                             1477.30  1489.83  1557.68  1583.27  1632.02
                             1645.32  1654.00  1712.22  1776.14  1812.51
                             1830.50  1835.49  1863.94  1879.54  1896.97
                             1939.96  1952.46  1968.40  2058.27  2108.33
                             2132.95  4294.36  4370.01  4408.49  4432.88
                             4443.97  4461.94  4464.65  4487.29  4535.90
                             5491.29

 Zero-point correction=                           0.162974 (Hartree/Particle)
 Thermal correction to Energy=                    0.169544
 Thermal correction to Enthalpy=                  0.170488
 Thermal correction to Gibbs Free Energy=         0.132476
 Sum of electronic and zero-point Energies=           -423.026283
 Sum of electronic and thermal Energies=              -423.019713
 Sum of electronic and thermal Enthalpies=            -423.018769
 Sum of electronic and thermal Free Energies=         -423.056781

                     E (Thermal)             CV                S
                      KCal/Mol        Cal/Mol-Kelvin    Cal/Mol-Kelvin
 Total                  106.390             28.131             80.003
 Electronic               0.000              0.000              0.000
 Translational            0.889              2.981             40.409
 Rotational               0.889              2.981             28.031
 Vibrational            104.613             22.169             11.564
 Vibration     1          0.641              1.830              2.071
 Vibration     2          0.683              1.701              1.502
 Vibration     3          0.698              1.657              1.369
 Vibration     4          0.732              1.561              1.136
 Vibration     5          0.764              1.475              0.971
 Vibration     6          0.832              1.305              0.723
 Vibration     7          0.873              1.211              0.615
 Vibration     8          0.969              1.011              0.433

 Optimization completed.
    -- Stationary point found.
 Normal termination of Gaussian 09 at Mon Jan 27 23:13:15 2020.
