 Gaussian 09, Revision D.01,
 Gaussian 09:  ES64L-G09RevD.01 24-Apr-2013

 -----------------------------
 # b3lyp 6-31G(2df,p) opt Freq
 -----------------------------

 -----
 titel
 -----
 Symbolic Z-matrix:
 Charge =  0 Multiplicity = 1

 SCF Done:  E(RB3LYP) =  -423.216415996     A.U. after   14 cycles
 Optimization completed.
    -- Stationary point found.
 Normal termination of Gaussian 09 at Mon Jan 27 10:21:46 2020.

 ----------------------------------------------------------------------
 #N Geom=AllCheck Guess=TCheck SCRF=Check GenChk RB3LYP/6-31G(2df,p) Fr
 eq
 ----------------------------------------------------------------------

 Structure from the checkpoint file:  "/scratch/puck/g09_c3494092-ed22-4c32-83dc-864bce968bad/Gau-46259.chk"
 -----
 titel
 -----
 Charge =  0 Multiplicity = 1

                         Standard orientation:
 ---------------------------------------------------------------------
 Center     Atomic      Atomic             Coordinates (Angstroms)
 Number     Number       Type             X           Y           Z
 ---------------------------------------------------------------------
      1          6           0       -1.796345   -0.992639   -1.001587
      2          6           0       -1.215653    0.023560   -0.004625
      3          6           0       -1.762201   -0.229066    1.406487
      4          8           0       -1.661751    1.341774   -0.344492
      5          6           0        0.296690   -0.015760   -0.005632
      6          6           0        1.123154    1.065259   -0.040296
      7          8           0        2.429112    0.681619   -0.019421
      8          6           0        2.437118   -0.674734    0.033332
      9          6           0        1.169510   -1.159835    0.043302
     10          1           0       -1.418739   -0.803021   -2.012385
     11          1           0       -1.526674   -2.018846   -0.734191
     12          1           0       -2.886906   -0.912435   -1.015335
     13          1           0       -1.389798    0.536308    2.091536
     14          1           0       -2.855480   -0.190122    1.397773
     15          1           0       -1.446125   -1.208880    1.774490
     16          1           0       -1.364533    1.521392   -1.243628
     17          1           0        0.940563    2.125514   -0.066307
     18          1           0        3.410021   -1.137760    0.053326
     19          1           0        0.885156   -2.200009    0.080139
 ---------------------------------------------------------------------

 SCF Done:  E(RB3LYP) =  -423.216415996     A.U. after    1 cycles

 The electronic state is 1-A.
 Alpha  occ. eigenvalues --  -19.20090 -19.13368 -10.24515 -10.22732 -10.22152
 Alpha  occ. eigenvalues --  -10.18073 -10.17963 -10.17694 -10.17144  -1.10350
 Alpha  occ. eigenvalues --   -1.01826  -0.81067  -0.76135  -0.73661  -0.69090
 Alpha  occ. eigenvalues --   -0.61535  -0.57179  -0.55984  -0.53647  -0.47236
 Alpha  occ. eigenvalues --   -0.44863  -0.44389  -0.43274  -0.42947  -0.39962
 Alpha  occ. eigenvalues --   -0.39444  -0.37982  -0.37629  -0.35683  -0.34941
 Alpha  occ. eigenvalues --   -0.32433  -0.27586  -0.26360  -0.22287
 Alpha virt. eigenvalues --    0.01851   0.06760   0.07875   0.11135   0.11962
 Alpha virt. eigenvalues --    0.13767   0.15123   0.15269   0.15718   0.16809
 Alpha virt. eigenvalues --    0.18661   0.19720   0.20255   0.21122   0.22702

 Mulliken charges:
               1
     1  C   -0.417838
     2  C    0.227007
     3  C   -0.383461
     4  O   -0.454642
     5  C    0.233099
     6  C   -0.115596
     7  O   -0.148066
     8  C    0.007279
     9  C   -0.314633
    10  H    0.109824
    11  H    0.116364
    12  H    0.121566
    13  H    0.126458
    14  H    0.117809
    15  H    0.113924
    16  H    0.273897
    17  H    0.142122
    18  H    0.135838
    19  H    0.109049
 Sum of Mulliken charges =   0.00000

 Dipole moment (field-independent basis, Debye):
    X=              0.1245    Y=             -1.2205    Z=             -0.7950  Tot=              1.4619
 Quadrupole moment (field-independent basis, Debye-Ang):
   XX=            -54.6116   YY=            -51.1818   ZZ=            -52.6946
   XY=             -0.0129   XZ=              0.9924   YZ=             -1.9936

  Exact polarizability:  93.150  -0.350  78.776  -0.269  -1.324  58.001
 Approx polarizability: 134.114   2.477 130.107  -0.566  -3.625  84.387

                      1                      2                      3
                      A                      A                      A
 Frequencies --     57.4121               146.5394               190.5570
 Red. masses --      3.6340                 3.2430                 2.8773
 Frc consts  --      0.0071                 0.0410                 0.0616
 IR Inten    --      0.5552                 0.5753                 0.2453

                      4                      5                      6
                      A                      A                      A
 Frequencies --    224.6842               267.1637               323.0554
 Red. masses --      1.0905                 1.1054                 2.5963
 Frc consts  --      0.0324                 0.0465                 0.1596
 IR Inten    --      2.1995                 1.1060                 9.1352

                      7                      8                      9
                      A                      A                      A
 Frequencies --    329.1294               356.0724               367.9614
 Red. masses --      1.3098                 3.3657                 2.2910
 Frc consts  --      0.0836                 0.2514                 0.1828
 IR Inten    --     56.3153                 0.6348                47.3550

                     10                     11                     12
                      A                      A                      A
 Frequencies --    467.6259               487.6579               606.2226
 Red. masses --      3.1481                 3.7266                 3.2809
 Frc consts  --      0.4056                 0.5221                 0.7104
 IR Inten    --      4.8619                11.5032                 8.3571

                     13                     14                     15
                      A                      A                      A
 Frequencies --    624.4372               687.2006               740.2884
 Red. masses --      4.5613                 2.4322                 1.3449
 Frc consts  --      1.0479                 0.6767                 0.4343
 IR Inten    --      7.9312                10.8704                11.4857

                     16                     17                     18
                      A                      A                      A
 Frequencies --    802.1402               830.4763               853.1758
 Red. masses --      1.3765                 1.3651                 3.0857
 Frc consts  --      0.5218                 0.5547                 1.3234
 IR Inten    --     26.4252                 8.5569                 8.9430

                     19                     20                     21
                      A                      A                      A
 Frequencies --    893.5801               927.9639               958.8089
 Red. masses --      5.4913                 1.5299                 2.7879
 Frc consts  --      2.5834                 0.7762                 1.5100
 IR Inten    --     21.3498                 0.1603                27.3211

                     22                     23                     24
                      A                      A                      A
 Frequencies --    982.7467              1015.7827              1053.6275
 Red. masses --      2.7212                 1.3214                 1.7057
 Frc consts  --      1.5484                 0.8033                 1.1157
 IR Inten    --     18.7085                 1.2515                15.6818

                     25                     26                     27
                      A                      A                      A
 Frequencies --   1096.1848              1117.0542              1170.7649
 Red. masses --      2.1472                 1.7769                 2.5431
 Frc consts  --      1.5202                 1.3064                 2.0538
 IR Inten    --     23.2185                29.9575                36.7004

                     28                     29                     30
                      A                      A                      A
 Frequencies --   1191.5854              1214.8257              1255.4783
 Red. masses --      2.4485                 3.2719                 1.3246
 Frc consts  --      2.0483                 2.8450                 1.2302
 IR Inten    --     12.7614                44.5208                 1.3922

                     31                     32                     33
                      A                      A                      A
 Frequencies --   1307.6341              1364.6600              1395.3336
 Red. masses --      2.7705                 1.5260                 1.4122
 Frc consts  --      2.7911                 1.6744                 1.6200
 IR Inten    --      7.4592                53.8948                15.6768

                     34                     35                     36
                      A                      A                      A
 Frequencies --   1397.4060              1415.7647              1476.5273
 Red. masses --      2.9323                 1.2812                 1.0503
 Frc consts  --      3.3736                 1.5130                 1.3491
 IR Inten    --      3.6191                 6.6308                 0.5967

                     37                     38                     39
                      A                      A                      A
 Frequencies --   1481.8266              1495.2693              1503.7505
 Red. masses --      1.0530                 1.0709                 1.0805
 Frc consts  --      1.3623                 1.4108                 1.4395
 IR Inten    --      1.0889                 5.9555                 3.7305

                     40                     41                     42
                      A                      A                      A
 Frequencies --   1533.3241              1624.2809              3033.0920
 Red. masses --      3.7348                 6.0567                 1.0352
 Frc consts  --      5.1735                 9.4147                 5.6113
 IR Inten    --     18.4279                 1.0277                18.0398

                     43                     44                     45
                      A                      A                      A
 Frequencies --   3045.2905              3102.8547              3116.7727
 Red. masses --      1.0347                 1.1002                 1.1025
 Frc consts  --      5.6535                 6.2411                 6.3100
 IR Inten    --     13.9482                24.8043                 1.5036

                     46                     47                     48
                      A                      A                      A
 Frequencies --   3123.1163              3130.1310              3250.2889
 Red. masses --      1.1018                 1.1023                 1.0903
 Frc consts  --      6.3317                 6.3632                 6.7865
 IR Inten    --     46.1221                17.6002                 1.1885

                     49                     50                     51
                      A                      A                      A
 Frequencies --   3281.5189              3292.2398              3797.9162
 Red. masses --      1.1029                 1.0991                 1.0658
 Frc consts  --      6.9975                 7.0187                 9.0575
 IR Inten    --      1.1988                 0.3400                10.1934

 - Thermochemistry -
 -------------------
 Temperature   298.150 Kelvin.  Pressure   1.00000 Atm.
 Atom     1 has atomic number  6 and mass  12.00000

 Molecular mass:   126.06808 amu.
 Principal axes and moments of inertia in atomic units:
                           1         2         3
     Eigenvalues --   566.835121537.577851715.03876
           X            0.99995   0.01007  -0.00204
           Y           -0.01005   0.99991   0.00891
           Z            0.00213  -0.00889   0.99996
 This molecule is an asymmetric top.
 Rotational symmetry number  1.
 Warning -- assumption of classical behavior for rotation
           may cause significant error
 Rotational temperatures (Kelvin)      0.15280     0.05633     0.05050
 Rotational constants (GHZ):           3.18389     1.17376     1.05230
 Zero-point vibrational energy     415159.2 (Joules/Mol)
                                   99.22543 (Kcal/Mol)
 Warning -- explicit consideration of  12 degrees of freedom as
           vibrations may cause significant error
 Vibrational temperatures:     82.60   210.84   274.17   323.27   384.39
          (Kelvin)            464.80   473.54   512.31   529.41   672.81
                              701.63   872.22   898.42   988.73  1065.11
                             1154.10  1194.87  1227.53  1285.66  1335.13
                             1379.51  1413.95  1461.48  1515.93  1577.16
                             1607.19  1684.47  1714.42  1747.86  1806.35
                             1881.39  1963.44  2007.57  2010.55  2036.97
                             2124.39  2132.02  2151.36  2163.56  2206.11
                             2336.98  4363.94  4381.49  4464.31  4484.34
                             4493.46  4503.55  4676.43  4721.37  4736.79
                             5464.35

 Zero-point correction=                           0.158126 (Hartree/Particle)
 Thermal correction to Energy=                    0.167110
 Thermal correction to Enthalpy=                  0.168055
 Thermal correction to Gibbs Free Energy=         0.124569
 Sum of electronic and zero-point Energies=           -423.058290
 Sum of electronic and thermal Energies=              -423.049306
 Sum of electronic and thermal Enthalpies=            -423.048361
 Sum of electronic and thermal Free Energies=         -423.091847

                     E (Thermal)             CV                S
                      KCal/Mol        Cal/Mol-Kelvin    Cal/Mol-Kelvin
 Total                  104.863             34.434             91.522
 Electronic               0.000              0.000              0.000
 Translational            0.889              2.981             40.409
 Rotational               0.889              2.981             28.793
 Vibrational            103.086             28.472             22.320
 Vibration     1          0.596              1.975              4.544
 Vibration     2          0.617              1.906              2.717
 Vibration     3          0.634              1.853              2.222
 Vibration     4          0.649              1.803              1.921
 Vibration     5          0.672              1.733              1.614
 Vibration     6          0.708              1.629              1.295
 Vibration     7          0.712              1.617              1.264
 Vibration     8          0.732              1.563              1.139
 Vibration     9          0.741              1.538              1.088
 Vibration    10          0.825              1.322              0.744
 Vibration    11          0.844              1.277              0.690
 Vibration    12          0.965              1.019              0.439

 Normal termination of Gaussian 09 at Mon Jan 27 11:01:25 2020.
