 Gaussian 09, Revision D.01,
 Gaussian 09:  ES64L-G09RevD.01 24-Apr-2013

 -----------------------------
 # b3lyp 6-31G(2df,p) opt Freq
 -----------------------------

 -----
 titel
 -----
 Symbolic Z-matrix:
 Charge =  0 Multiplicity = 1

 SCF Done:  E(RB3LYP) =  -423.136527766     A.U. after   14 cycles
 Optimization completed.
    -- Stationary point found.
 Normal termination of Gaussian 09 at Tue Jan 28 12:11:05 2020.

 ----------------------------------------------------------------------
 #N Geom=AllCheck Guess=TCheck SCRF=Check GenChk RB3LYP/6-31G(2df,p) Fr
 eq
 ----------------------------------------------------------------------

 Structure from the checkpoint file:  "/scratch/puck/g09_1f3d102a-283d-4ff6-a4ee-23ac373a05ab/Gau-117635.chk"
 -----
 titel
 -----
 Charge =  0 Multiplicity = 1

                         Standard orientation:
 ---------------------------------------------------------------------
 Center     Atomic      Atomic             Coordinates (Angstroms)
 Number     Number       Type             X           Y           Z
 ---------------------------------------------------------------------
      1          6           0        3.495807    0.094091   -0.022491
      2          6           0        2.037052    0.185289    0.430753
      3          6           0        1.066710   -0.454590   -0.575182
      4          6           0       -0.354769   -0.346414   -0.125681
      5          6           0       -1.113047   -1.016985    1.055256
      6          6           0       -2.202306   -0.375105    0.168719
      7          8           0       -1.450380   -0.842306   -1.025212
      8          6           0       -1.300182    0.880581    0.048966
      9          8           0       -1.324779    2.065092   -0.024969
     10          1           0        4.165808    0.555891    0.708736
     11          1           0        3.807164   -0.948511   -0.149927
     12          1           0        3.644592    0.603829   -0.980468
     13          1           0        1.922987   -0.304503    1.406086
     14          1           0        1.757805    1.235291    0.577828
     15          1           0        1.157135    0.039912   -1.549979
     16          1           0        1.319502   -1.511046   -0.729290
     17          1           0       -1.107263   -2.107004    0.997256
     18          1           0       -0.961178   -0.634868    2.068306
     19          1           0       -3.280859   -0.512483    0.170856
 ---------------------------------------------------------------------

 SCF Done:  E(RB3LYP) =  -423.136527766     A.U. after    1 cycles

 The electronic state is 1-A.
 Alpha  occ. eigenvalues --  -19.15911 -19.14940 -10.28154 -10.26008 -10.25767
 Alpha  occ. eigenvalues --  -10.20966 -10.19675 -10.19374 -10.18128  -1.08141
 Alpha  occ. eigenvalues --   -1.04991  -0.81067  -0.78798  -0.72355  -0.65529
 Alpha  occ. eigenvalues --   -0.63954  -0.59786  -0.50758  -0.50215  -0.47671
 Alpha  occ. eigenvalues --   -0.46068  -0.44719  -0.44057  -0.42463  -0.41394
 Alpha  occ. eigenvalues --   -0.39486  -0.37483  -0.36745  -0.35219  -0.34344
 Alpha  occ. eigenvalues --   -0.33838  -0.33086  -0.26487  -0.25115
 Alpha virt. eigenvalues --   -0.00708   0.07544   0.09712   0.11074   0.11722
 Alpha virt. eigenvalues --    0.12462   0.12759   0.13577   0.14544   0.15147
 Alpha virt. eigenvalues --    0.16078   0.16856   0.18052   0.18250   0.19968

 Mulliken charges:
               1
     1  C   -0.384318
     2  C   -0.175121
     3  C   -0.342166
     4  C    0.294651
     5  C   -0.264066
     6  C   -0.077891
     7  O   -0.342195
     8  C    0.443031
     9  O   -0.318704
    10  H    0.117057
    11  H    0.116796
    12  H    0.121261
    13  H    0.101905
    14  H    0.123517
    15  H    0.123837
    16  H    0.113947
    17  H    0.119557
    18  H    0.113470
    19  H    0.115432
 Sum of Mulliken charges =   0.00000

 Dipole moment (field-independent basis, Debye):
    X=              1.0707    Y=             -1.9774    Z=              1.6062  Tot=              2.7634
 Quadrupole moment (field-independent basis, Debye-Ang):
   XX=            -50.1120   YY=            -59.1529   ZZ=            -53.6339
   XY=              2.7106   XZ=             -2.8251   YZ=             -1.6146

  Exact polarizability:  89.330   1.049  75.144  -1.636  -1.218  65.306
 Approx polarizability: 111.407   1.068 124.036  -0.391   2.977 105.507

                      1                      2                      3
                      A                      A                      A
 Frequencies --     52.3636                76.5213               119.1562
 Red. masses --      2.7066                 2.0381                 3.6725
 Frc consts  --      0.0044                 0.0070                 0.0307
 IR Inten    --      1.1693                 0.3154                 0.2940

                      4                      5                      6
                      A                      A                      A
 Frequencies --    181.7194               227.8422               250.8634
 Red. masses --      5.8394                 2.5820                 1.1996
 Frc consts  --      0.1136                 0.0790                 0.0445
 IR Inten    --      5.6475                 1.7323                 0.2463

                      7                      8                      9
                      A                      A                      A
 Frequencies --    314.8093               371.2504               475.9418
 Red. masses --      2.8912                 4.6662                 3.2426
 Frc consts  --      0.1688                 0.3789                 0.4328
 IR Inten    --      0.2898                 6.4239                 2.0715

                     10                     11                     12
                      A                      A                      A
 Frequencies --    520.4124               660.2227               718.8987
 Red. masses --      2.6517                 3.6247                 2.2667
 Frc consts  --      0.4231                 0.9309                 0.6902
 IR Inten    --      4.4653                 0.7559                 1.8433

                     13                     14                     15
                      A                      A                      A
 Frequencies --    753.1795               768.0223               806.9766
 Red. masses --      1.4509                 4.4239                 4.4730
 Frc consts  --      0.4849                 1.5375                 1.7162
 IR Inten    --      5.5061                26.0852                 8.3217

                     16                     17                     18
                      A                      A                      A
 Frequencies --    824.5020               882.5125               901.2719
 Red. masses --      4.0139                 1.7486                 2.0927
 Frc consts  --      1.6077                 0.8024                 1.0015
 IR Inten    --     32.2709                 4.7198                 9.9287

                     19                     20                     21
                      A                      A                      A
 Frequencies --    921.4287               936.1761               991.4659
 Red. masses --      2.7116                 1.8552                 2.0992
 Frc consts  --      1.3565                 0.9580                 1.2158
 IR Inten    --     19.3310                 1.5336                 1.0629

                     22                     23                     24
                      A                      A                      A
 Frequencies --   1037.1415              1047.2253              1066.6685
 Red. masses --      2.0611                 2.1701                 1.5727
 Frc consts  --      1.3062                 1.4022                 1.0543
 IR Inten    --      8.7455                 1.3917                 3.7597

                     25                     26                     27
                      A                      A                      A
 Frequencies --   1120.4867              1153.3920              1190.1777
 Red. masses --      2.1342                 1.5196                 1.5674
 Frc consts  --      1.5787                 1.1910                 1.3081
 IR Inten    --      3.7722                 8.5577                 0.7289

                     28                     29                     30
                      A                      A                      A
 Frequencies --   1205.5736              1211.3465              1272.2802
 Red. masses --      1.6538                 1.7073                 1.3773
 Frc consts  --      1.4161                 1.4760                 1.3135
 IR Inten    --      2.5158                 2.5062                 1.8812

                     31                     32                     33
                      A                      A                      A
 Frequencies --   1298.4719              1328.8686              1361.2431
 Red. masses --      1.3996                 1.0915                 2.5754
 Frc consts  --      1.3904                 1.1357                 2.8117
 IR Inten    --      5.8019                 0.1870                 5.8064

                     34                     35                     36
                      A                      A                      A
 Frequencies --   1396.3798              1414.1883              1476.2168
 Red. masses --      1.9546                 1.2341                 1.2183
 Frc consts  --      2.2455                 1.4542                 1.5642
 IR Inten    --      8.6468                 0.6738                 2.4645

                     37                     38                     39
                      A                      A                      A
 Frequencies --   1482.6187              1493.4398              1499.9992
 Red. masses --      1.1059                 1.0573                 1.0403
 Frc consts  --      1.4322                 1.3894                 1.3790
 IR Inten    --      1.1235                 1.1137                 5.9039

                     40                     41                     42
                      A                      A                      A
 Frequencies --   1509.9652              1927.4220              3022.4768
 Red. masses --      1.0851                12.5645                 1.0589
 Frc consts  --      1.4577                27.5011                 5.6997
 IR Inten    --      3.7984               326.9280                 1.3829

                     43                     44                     45
                      A                      A                      A
 Frequencies --   3029.9889              3033.9592              3054.5287
 Red. masses --      1.0534                 1.0436                 1.0978
 Frc consts  --      5.6982                 5.6598                 6.0348
 IR Inten    --     13.4287                47.9882                 1.6484

                     46                     47                     48
                      A                      A                      A
 Frequencies --   3061.8902              3075.7259              3101.9243
 Red. masses --      1.0560                 1.1035                 1.1026
 Frc consts  --      5.8333                 6.1506                 6.2507
 IR Inten    --     17.5921                11.7868                47.5719

                     49                     50                     51
                      A                      A                      A
 Frequencies --   3107.9892              3144.9851              3160.9695
 Red. masses --      1.1011                 1.1101                 1.0948
 Frc consts  --      6.2666                 6.4691                 6.4448
 IR Inten    --     29.8497                10.7117                26.3417

 - Thermochemistry -
 -------------------
 Temperature   298.150 Kelvin.  Pressure   1.00000 Atm.
 Atom     1 has atomic number  6 and mass  12.00000

 Molecular mass:   126.06808 amu.
 Principal axes and moments of inertia in atomic units:
                           1         2         3
     Eigenvalues --   595.965091724.609981971.23425
           X            0.99984   0.01471  -0.00976
           Y           -0.01503   0.99932  -0.03368
           Z            0.00926   0.03382   0.99939
 This molecule is an asymmetric top.
 Rotational symmetry number  1.
 Warning -- assumption of classical behavior for rotation
           may cause significant error
 Rotational temperatures (Kelvin)      0.14533     0.05022     0.04394
 Rotational constants (GHZ):           3.02827     1.04646     0.91554
 Zero-point vibrational energy     412969.3 (Joules/Mol)
                                   98.70204 (Kcal/Mol)
 Warning -- explicit consideration of  10 degrees of freedom as
           vibrations may cause significant error
 Vibrational temperatures:     75.34   110.10   171.44   261.45   327.81
          (Kelvin)            360.94   452.94   534.15   684.77   748.76
                              949.91  1034.33  1083.66  1105.01  1161.06
                             1186.27  1269.74  1296.73  1325.73  1346.95
                             1426.50  1492.21  1506.72  1534.70  1612.13
                             1659.47  1712.40  1734.55  1742.86  1830.53
                             1868.21  1911.94  1958.52  2009.08  2034.70
                             2123.94  2133.15  2148.72  2158.16  2172.50
                             2773.13  4348.66  4359.47  4365.19  4394.78
                             4405.37  4425.28  4462.97  4471.70  4524.93
                             4547.92

 Zero-point correction=                           0.157292 (Hartree/Particle)
 Thermal correction to Energy=                    0.166297
 Thermal correction to Enthalpy=                  0.167241
 Thermal correction to Gibbs Free Energy=         0.122671
 Sum of electronic and zero-point Energies=           -422.979236
 Sum of electronic and thermal Energies=              -422.970231
 Sum of electronic and thermal Enthalpies=            -422.969287
 Sum of electronic and thermal Free Energies=         -423.013857

                     E (Thermal)             CV                S
                      KCal/Mol        Cal/Mol-Kelvin    Cal/Mol-Kelvin
 Total                  104.353             32.929             93.806
 Electronic               0.000              0.000              0.000
 Translational            0.889              2.981             40.409
 Rotational               0.889              2.981             29.095
 Vibrational            102.576             26.968             24.302
 Vibration     1          0.596              1.977              4.726
 Vibration     2          0.599              1.965              3.978
 Vibration     3          0.609              1.933              3.114
 Vibration     4          0.630              1.865              2.311
 Vibration     5          0.651              1.799              1.896
 Vibration     6          0.663              1.761              1.725
 Vibration     7          0.702              1.645              1.337
 Vibration     8          0.743              1.531              1.075
 Vibration     9          0.833              1.303              0.721
 Vibration    10          0.875              1.205              0.609

 Normal termination of Gaussian 09 at Tue Jan 28 12:52:42 2020.
