 Gaussian 09, Revision D.01,
 Gaussian 09:  ES64L-G09RevD.01 24-Apr-2013

 -----------------------------
 # b3lyp 6-31G(2df,p) opt Freq
 -----------------------------

 -----
 titel
 -----
 Symbolic Z-matrix:
 Charge =  0 Multiplicity = 1

 SCF Done:  E(RB3LYP) =  -423.149120758     A.U. after   13 cycles
 Optimization completed.
    -- Stationary point found.
 Normal termination of Gaussian 09 at Mon Jan 27 22:14:10 2020.

 ----------------------------------------------------------------------
 #N Geom=AllCheck Guess=TCheck SCRF=Check GenChk RB3LYP/6-31G(2df,p) Fr
 eq
 ----------------------------------------------------------------------

 Structure from the checkpoint file:  "/scratch/puck/g09_23bc06bb-57f0-46a8-a579-252787a270de/Gau-29165.chk"
 -----
 titel
 -----
 Charge =  0 Multiplicity = 1

                         Standard orientation:
 ---------------------------------------------------------------------
 Center     Atomic      Atomic             Coordinates (Angstroms)
 Number     Number       Type             X           Y           Z
 ---------------------------------------------------------------------
      1          8           0        3.147206   -0.000013   -0.269916
      2          6           0        1.900802   -0.000007    0.366281
      3          6           0        0.772627    0.773175   -0.252320
      4          6           0        0.772621   -0.773173   -0.252337
      5          6           0       -0.444991   -0.791773    0.670068
      6          6           0       -1.773435   -1.134311   -0.014446
      7          8           0       -2.129876    0.000007   -0.791104
      8          6           0       -1.773430    1.134314   -0.014432
      9          6           0       -0.444990    0.791761    0.670081
     10          1           0        3.007687    0.000152   -1.222968
     11          1           0        2.051362   -0.000019    1.444213
     12          1           0        0.952758    1.463522   -1.070501
     13          1           0        0.952755   -1.463500   -1.070533
     14          1           0       -0.321616   -1.314332    1.623435
     15          1           0       -1.715127   -1.995285   -0.686869
     16          1           0       -2.542475   -1.340939    0.748695
     17          1           0       -1.715118    1.995296   -0.686845
     18          1           0       -2.542471    1.340936    0.748709
     19          1           0       -0.321616    1.314305    1.623457
 ---------------------------------------------------------------------

 SCF Done:  E(RB3LYP) =  -423.149120758     A.U. after    1 cycles

 The electronic state is 1-A.
 Alpha  occ. eigenvalues --  -19.14438 -19.13621 -10.23743 -10.22604 -10.22602
 Alpha  occ. eigenvalues --  -10.19538 -10.19523 -10.19048 -10.19028  -1.03626
 Alpha  occ. eigenvalues --   -1.03004  -0.88829  -0.74375  -0.74110  -0.63041
 Alpha  occ. eigenvalues --   -0.61917  -0.59309  -0.53788  -0.52100  -0.49639
 Alpha  occ. eigenvalues --   -0.48513  -0.44529  -0.44246  -0.43457  -0.40559
 Alpha  occ. eigenvalues --   -0.37362  -0.36407  -0.35132  -0.33823  -0.32440
 Alpha  occ. eigenvalues --   -0.31223  -0.26104  -0.25229  -0.23871
 Alpha virt. eigenvalues --    0.07161   0.09462   0.10059   0.10289   0.12807
 Alpha virt. eigenvalues --    0.12812   0.13932   0.15069   0.15680   0.16102
 Alpha virt. eigenvalues --    0.18224   0.18717   0.19677   0.20086   0.23083

 Mulliken charges:
               1
     1  O   -0.443624
     2  C    0.128063
     3  C   -0.102036
     4  C   -0.102026
     5  C   -0.061542
     6  C   -0.095779
     7  O   -0.243824
     8  C   -0.095778
     9  C   -0.061544
    10  H    0.283979
    11  H    0.098533
    12  H    0.083180
    13  H    0.083183
    14  H    0.071522
    15  H    0.106956
    16  H    0.086129
    17  H    0.106955
    18  H    0.086129
    19  H    0.071522
 Sum of Mulliken charges =   0.00000

 Dipole moment (field-independent basis, Debye):
    X=             -0.4432    Y=              0.0002    Z=              0.2234  Tot=              0.4963
 Quadrupole moment (field-independent basis, Debye-Ang):
   XX=            -62.0897   YY=            -50.7561   ZZ=            -50.6525
   XY=              0.0008   XZ=             -6.2581   YZ=             -0.0004

  Exact polarizability:  84.277   0.000  72.922  -3.645   0.000  66.517
 Approx polarizability: 109.936   0.000 111.363  -2.535  -0.001 104.907

                      1                      2                      3
                      A                      A                      A
 Frequencies --    147.3015               150.9322               172.8612
 Red. masses --      5.7599                 1.5951                 1.4019
 Frc consts  --      0.0736                 0.0214                 0.0247
 IR Inten    --      6.9127                33.0286                50.3792

                      4                      5                      6
                      A                      A                      A
 Frequencies --    257.1650               267.9344               386.6658
 Red. masses --      3.9887                 3.1645                 2.3769
 Frc consts  --      0.1554                 0.1338                 0.2094
 IR Inten    --      5.3580                 1.4889                 5.9006

                      7                      8                      9
                      A                      A                      A
 Frequencies --    386.9888               455.6961               595.2585
 Red. masses --      2.8176                 3.5904                 4.1431
 Frc consts  --      0.2486                 0.4393                 0.8649
 IR Inten    --      3.3018                 2.5714                 0.2069

                     10                     11                     12
                      A                      A                      A
 Frequencies --    714.0044               794.1235               850.8304
 Red. masses --      5.2713                 1.7766                 2.2460
 Frc consts  --      1.5833                 0.6601                 0.9579
 IR Inten    --     19.8981                 1.2011                 2.8829

                     13                     14                     15
                      A                      A                      A
 Frequencies --    865.4937               876.3988               899.3488
 Red. masses --      3.3784                 2.1327                 3.2403
 Frc consts  --      1.4910                 0.9651                 1.5442
 IR Inten    --      3.3108                27.7937                 1.4242

                     16                     17                     18
                      A                      A                      A
 Frequencies --    918.5486               928.6343               955.7607
 Red. masses --      2.6136                 2.6748                 3.8168
 Frc consts  --      1.2993                 1.3590                 2.0542
 IR Inten    --      5.4567                12.5242                20.8976

                     19                     20                     21
                      A                      A                      A
 Frequencies --    990.0852              1025.8195              1039.2917
 Red. masses --      1.2652                 1.9930                 1.6921
 Frc consts  --      0.7307                 1.2357                 1.0768
 IR Inten    --      0.8898                 8.2481                 4.2594

                     22                     23                     24
                      A                      A                      A
 Frequencies --   1082.5790              1086.3203              1114.4830
 Red. masses --      1.6992                 1.6006                 1.3815
 Frc consts  --      1.1733                 1.1129                 1.0110
 IR Inten    --      0.8958                21.3316                 0.2198

                     25                     26                     27
                      A                      A                      A
 Frequencies --   1120.1460              1129.6382              1146.5864
 Red. masses --      5.0419                 2.1005                 2.0162
 Frc consts  --      3.7273                 1.5793                 1.5617
 IR Inten    --     60.6800                79.7460                 2.9826

                     28                     29                     30
                      A                      A                      A
 Frequencies --   1190.7393              1208.0334              1229.7240
 Red. masses --      2.1393                 1.1277                 1.3952
 Frc consts  --      1.7871                 0.9696                 1.2431
 IR Inten    --     33.5961                11.1702                 1.7464

                     31                     32                     33
                      A                      A                      A
 Frequencies --   1255.6422              1269.3488              1291.0346
 Red. masses --      1.4287                 1.4054                 1.3344
 Frc consts  --      1.3272                 1.3341                 1.3105
 IR Inten    --      0.2286                 8.3437                 0.2241

                     34                     35                     36
                      A                      A                      A
 Frequencies --   1317.7700              1342.2366              1347.9328
 Red. masses --      1.4932                 1.9449                 1.7722
 Frc consts  --      1.5277                 2.0645                 1.8971
 IR Inten    --      3.3243                 0.2312                 3.7848

                     37                     38                     39
                      A                      A                      A
 Frequencies --   1355.6151              1407.0278              1450.2944
 Red. masses --      1.2694                 1.3664                 1.8266
 Frc consts  --      1.3745                 1.5938                 2.2636
 IR Inten    --      0.1210                 8.1672               108.9863

                     40                     41                     42
                      A                      A                      A
 Frequencies --   1501.3753              1515.2310              2960.7711
 Red. masses --      1.0828                 1.1044                 1.0704
 Frc consts  --      1.4381                 1.4940                 5.5284
 IR Inten    --      0.0006                 1.1157                41.5947

                     43                     44                     45
                      A                      A                      A
 Frequencies --   2967.4931              3055.9764              3067.4274
 Red. masses --      1.0719                 1.0850                 1.0877
 Frc consts  --      5.5615                 5.9702                 6.0299
 IR Inten    --    103.1730                35.1668                64.4638

                     46                     47                     48
                      A                      A                      A
 Frequencies --   3082.3084              3085.3096              3124.7850
 Red. masses --      1.0911                 1.0932                 1.0896
 Frc consts  --      6.1076                 6.1313                 6.2685
 IR Inten    --     32.8557                15.2075                25.5774

                     49                     50                     51
                      A                      A                      A
 Frequencies --   3153.1389              3164.5192              3810.7166
 Red. masses --      1.0876                 1.0957                 1.0658
 Frc consts  --      6.3712                 6.4651                 9.1186
 IR Inten    --     18.6482                18.2852                18.6603

 - Thermochemistry -
 -------------------
 Temperature   298.150 Kelvin.  Pressure   1.00000 Atm.
 Atom     1 has atomic number  8 and mass  15.99491

 Molecular mass:   126.06808 amu.
 Principal axes and moments of inertia in atomic units:
                           1         2         3
     Eigenvalues --   421.516801577.027721724.88686
           X            0.99990   0.00000  -0.01433
           Y            0.00000   1.00000   0.00000
           Z            0.01433   0.00000   0.99990
 This molecule is an asymmetric top.
 Rotational symmetry number  1.
 Rotational temperatures (Kelvin)      0.20548     0.05492     0.05021
 Rotational constants (GHZ):           4.28154     1.14439     1.04630
 Zero-point vibrational energy     421763.5 (Joules/Mol)
                                  100.80389 (Kcal/Mol)
 Warning -- explicit consideration of   9 degrees of freedom as
           vibrations may cause significant error
 Vibrational temperatures:    211.93   217.16   248.71   370.00   385.50
          (Kelvin)            556.33   556.79   655.64   856.44  1027.29
                             1142.57  1224.15  1245.25  1260.94  1293.96
                             1321.58  1336.10  1375.12  1424.51  1475.92
                             1495.31  1557.59  1562.97  1603.49  1611.64
                             1625.30  1649.68  1713.21  1738.09  1769.30
                             1806.59  1826.31  1857.51  1895.97  1931.18
                             1939.37  1950.43  2024.40  2086.65  2160.14
                             2180.08  4259.88  4269.56  4396.86  4413.34
                             4434.75  4439.07  4495.86  4536.66  4553.03
                             5482.76

 Zero-point correction=                           0.160641 (Hartree/Particle)
 Thermal correction to Energy=                    0.168335
 Thermal correction to Enthalpy=                  0.169279
 Thermal correction to Gibbs Free Energy=         0.128546
 Sum of electronic and zero-point Energies=           -422.988480
 Sum of electronic and thermal Energies=              -422.980786
 Sum of electronic and thermal Enthalpies=            -422.979842
 Sum of electronic and thermal Free Energies=         -423.020574

                     E (Thermal)             CV                S
                      KCal/Mol        Cal/Mol-Kelvin    Cal/Mol-Kelvin
 Total                  105.632             30.128             85.729
 Electronic               0.000              0.000              0.000
 Translational            0.889              2.981             40.409
 Rotational               0.889              2.981             28.530
 Vibrational            103.854             24.166             16.790
 Vibration     1          0.617              1.906              2.707
 Vibration     2          0.618              1.902              2.660
 Vibration     3          0.626              1.876              2.404
 Vibration     4          0.667              1.751              1.681
 Vibration     5          0.673              1.732              1.610
 Vibration     6          0.755              1.499              1.013
 Vibration     7          0.755              1.498              1.012
 Vibration     8          0.814              1.348              0.779
 Vibration     9          0.953              1.042              0.458

 Optimization completed.
    -- Stationary point found.
 Normal termination of Gaussian 09 at Tue Jan 28 00:31:06 2020.
