 Gaussian 09, Revision D.01,
 Gaussian 09:  ES64L-G09RevD.01 24-Apr-2013

 -----------------------------
 # b3lyp 6-31G(2df,p) opt Freq
 -----------------------------

 -----
 titel
 -----
 Symbolic Z-matrix:
 Charge =  0 Multiplicity = 1

 SCF Done:  E(RB3LYP) =  -423.128716525     A.U. after   14 cycles
 SCF Done:  E(RB3LYP) =  -423.128716534     A.U. after    6 cycles
 SCF Done:  E(RB3LYP) =  -423.128716199     A.U. after    7 cycles
 SCF Done:  E(RB3LYP) =  -423.128716593     A.U. after    7 cycles
 Optimization completed.
    -- Stationary point found.
 Normal termination of Gaussian 09 at Mon Jan 27 15:39:08 2020.

 ----------------------------------------------------------------------
 #N Geom=AllCheck Guess=TCheck SCRF=Check GenChk RB3LYP/6-31G(2df,p) Fr
 eq
 ----------------------------------------------------------------------

 Structure from the checkpoint file:  "/scratch/puck/g09_482db4ba-a574-4d0a-8f43-07716970aa33/Gau-80821.chk"
 -----
 titel
 -----
 Charge =  0 Multiplicity = 1

                         Standard orientation:
 ---------------------------------------------------------------------
 Center     Atomic      Atomic             Coordinates (Angstroms)
 Number     Number       Type             X           Y           Z
 ---------------------------------------------------------------------
      1          6           0        1.041390    1.797105    0.886098
      2          6           0        0.727221    0.849970   -0.266956
      3          8           0        1.915469    0.668766   -1.015222
      4          6           0        0.192415   -0.504076    0.208819
      5          6           0       -1.195292   -0.533641    0.843618
      6          6           0       -2.238061    0.077263    0.024690
      7          6           0       -3.099516    0.580833   -0.644753
      8          6           0        1.143288   -1.571065    0.540860
      9          8           0        0.448693   -1.568689   -0.720174
     10          1           0        1.476466    2.718132    0.490027
     11          1           0        0.137165    2.059543    1.442419
     12          1           0        1.763454    1.345285    1.573147
     13          1           0       -0.054560    1.301217   -0.898215
     14          1           0        1.745692   -0.081217   -1.601211
     15          1           0       -1.452442   -1.579960    1.043037
     16          1           0       -1.152845   -0.030339    1.818131
     17          1           0       -3.862378    1.020614   -1.238256
     18          1           0        2.208601   -1.366760    0.475380
     19          1           0        0.848876   -2.365463    1.224449
 ---------------------------------------------------------------------

 SCF Done:  E(RB3LYP) =  -423.128716593     A.U. after    1 cycles

 The electronic state is 1-A.
 Alpha  occ. eigenvalues --  -19.16241 -19.13182 -10.25219 -10.23860 -10.23577
 Alpha  occ. eigenvalues --  -10.22156 -10.18825 -10.17897 -10.17741  -1.08274
 Alpha  occ. eigenvalues --   -1.01377  -0.80836  -0.75701  -0.71769  -0.67208
 Alpha  occ. eigenvalues --   -0.64532  -0.57138  -0.53913  -0.52131  -0.50612
 Alpha  occ. eigenvalues --   -0.46899  -0.46312  -0.44412  -0.42075  -0.41245
 Alpha  occ. eigenvalues --   -0.38699  -0.38088  -0.36786  -0.33109  -0.31543
 Alpha  occ. eigenvalues --   -0.28942  -0.27928  -0.26969  -0.25611
 Alpha virt. eigenvalues --    0.04296   0.04943   0.08624   0.09184   0.09944
 Alpha virt. eigenvalues --    0.12370   0.12566   0.13144   0.15285   0.15697
 Alpha virt. eigenvalues --    0.16892   0.17608   0.18074   0.20203   0.21713

 Mulliken charges:
               1
     1  C   -0.393418
     2  C    0.057547
     3  O   -0.439943
     4  C    0.384583
     5  C   -0.435369
     6  C    0.312512
     7  C   -0.447243
     8  C   -0.231518
     9  O   -0.289799
    10  H    0.132983
    11  H    0.120018
    12  H    0.119502
    13  H    0.088407
    14  H    0.291047
    15  H    0.142183
    16  H    0.140138
    17  H    0.201142
    18  H    0.132144
    19  H    0.115085
 Sum of Mulliken charges =   0.00000

 Dipole moment (field-independent basis, Debye):
    X=             -0.6338    Y=             -0.1686    Z=              1.6739  Tot=              1.7978
 Quadrupole moment (field-independent basis, Debye-Ang):
   XX=            -54.0081   YY=            -53.3294   ZZ=            -51.1639
   XY=             -3.9624   XZ=              2.8141   YZ=             -2.6360

  Exact polarizability:  87.776  -9.380  74.257   8.399  -6.067  66.896
 Approx polarizability: 122.530 -17.642 106.543  17.748 -10.507 107.861

                      1                      2                      3
                      A                      A                      A
 Frequencies --     40.5367                99.2409               130.5636
 Red. masses --      3.4017                 4.0721                 4.3035
 Frc consts  --      0.0033                 0.0236                 0.0432
 IR Inten    --      0.4451                 1.7436                 0.9284

                      4                      5                      6
                      A                      A                      A
 Frequencies --    210.9358               234.1722               283.9809
 Red. masses --      1.2343                 2.3255                 3.2524
 Frc consts  --      0.0324                 0.0751                 0.1545
 IR Inten    --      0.4428                 1.9020                 5.1452

                      7                      8                      9
                      A                      A                      A
 Frequencies --    324.8206               336.9972               361.9130
 Red. masses --      4.5510                 3.0940                 2.4342
 Frc consts  --      0.2829                 0.2070                 0.1878
 IR Inten    --     16.8431                 2.7573                14.7729

                     10                     11                     12
                      A                      A                      A
 Frequencies --    392.7249               464.5989               499.7791
 Red. masses --      2.9953                 3.8554                 2.6995
 Frc consts  --      0.2722                 0.4903                 0.3973
 IR Inten    --      4.5471                 1.6715                17.7163

                     13                     14                     15
                      A                      A                      A
 Frequencies --    515.8025               623.9538               631.7124
 Red. masses --      1.3737                 1.2156                 3.0179
 Frc consts  --      0.2153                 0.2788                 0.7096
 IR Inten    --     88.2831                41.8746                 1.9036

                     16                     17                     18
                      A                      A                      A
 Frequencies --    649.8962               704.9624               816.1458
 Red. masses --      1.3241                 3.2378                 3.2995
 Frc consts  --      0.3295                 0.9481                 1.2949
 IR Inten    --     56.2268                 9.7617                14.4163

                     19                     20                     21
                      A                      A                      A
 Frequencies --    897.8419               914.1548               940.7535
 Red. masses --      1.7755                 2.2476                 2.7668
 Frc consts  --      0.8433                 1.1067                 1.4427
 IR Inten    --      2.8327                15.3309                14.2340

                     22                     23                     24
                      A                      A                      A
 Frequencies --    962.6343               989.5990              1044.9240
 Red. masses --      2.3006                 2.7186                 2.1478
 Frc consts  --      1.2561                 1.5686                 1.3817
 IR Inten    --      6.9761                 2.1663                40.5376

                     25                     26                     27
                      A                      A                      A
 Frequencies --   1104.0714              1130.5623              1148.4255
 Red. masses --      1.8431                 1.3331                 2.5608
 Frc consts  --      1.3237                 1.0040                 1.9899
 IR Inten    --     13.8552                 0.0102                39.8840

                     28                     29                     30
                      A                      A                      A
 Frequencies --   1174.2377              1209.8537              1261.3695
 Red. masses --      1.3845                 1.6108                 1.6372
 Frc consts  --      1.1247                 1.3892                 1.5348
 IR Inten    --      7.2487                 0.6402                 5.3142

                     31                     32                     33
                      A                      A                      A
 Frequencies --   1302.7784              1316.8348              1378.3258
 Red. masses --      1.1584                 1.5321                 1.4374
 Frc consts  --      1.1583                 1.5653                 1.6090
 IR Inten    --     57.0490                10.7036                 6.6437

                     34                     35                     36
                      A                      A                      A
 Frequencies --   1398.8950              1419.5903              1437.7432
 Red. masses --      1.2770                 1.8713                 1.5649
 Frc consts  --      1.4723                 2.2219                 1.9059
 IR Inten    --     10.8115                 8.7027                45.4475

                     37                     38                     39
                      A                      A                      A
 Frequencies --   1454.3719              1488.3818              1498.8587
 Red. masses --      1.0853                 1.0711                 1.0542
 Frc consts  --      1.3526                 1.3981                 1.3954
 IR Inten    --      8.1012                 3.2766                 1.6932

                     40                     41                     42
                      A                      A                      A
 Frequencies --   1516.3916              2240.1448              2982.6059
 Red. masses --      1.4160                 5.9152                 1.0820
 Frc consts  --      1.9184                17.4893                 5.6711
 IR Inten    --      5.1089                 0.6477                34.0605

                     43                     44                     45
                      A                      A                      A
 Frequencies --   3027.8656              3044.8977              3068.7310
 Red. masses --      1.0606                 1.0352                 1.0990
 Frc consts  --      5.7290                 5.6547                 6.0979
 IR Inten    --      9.3694                14.3031                 6.8774

                     46                     47                     48
                      A                      A                      A
 Frequencies --   3097.8090              3119.1292              3125.4449
 Red. masses --      1.0519                 1.1019                 1.1015
 Frc consts  --      5.9474                 6.3161                 6.3394
 IR Inten    --     22.0392                23.2006                17.2945

                     49                     50                     51
                      A                      A                      A
 Frequencies --   3194.4836              3505.6044              3759.5880
 Red. masses --      1.1182                 1.1626                 1.0648
 Frc consts  --      6.7233                 8.4182                 8.8674
 IR Inten    --     10.0668                67.3955                36.0193

 - Thermochemistry -
 -------------------
 Temperature   298.150 Kelvin.  Pressure   1.00000 Atm.
 Atom     1 has atomic number  6 and mass  12.00000

 Molecular mass:   126.06808 amu.
 Principal axes and moments of inertia in atomic units:
                           1         2         3
     Eigenvalues --   816.963841395.892351724.74112
           X            0.99986  -0.00057   0.01662
           Y            0.00076   0.99994  -0.01110
           Z           -0.01661   0.01111   0.99980
 This molecule is an asymmetric top.
 Rotational symmetry number  1.
 Warning -- assumption of classical behavior for rotation
           may cause significant error
 Rotational temperatures (Kelvin)      0.10602     0.06205     0.05022
 Rotational constants (GHZ):           2.20908     1.29289     1.04638
 Zero-point vibrational energy     409599.2 (Joules/Mol)
                                   97.89656 (Kcal/Mol)
 Warning -- explicit consideration of  13 degrees of freedom as
           vibrations may cause significant error
 Vibrational temperatures:     58.32   142.79   187.85   303.49   336.92
          (Kelvin)            408.58   467.34   484.86   520.71   565.04
                              668.45   719.07   742.12   897.73   908.89
                              935.05  1014.28  1174.25  1291.79  1315.26
                             1353.53  1385.01  1423.81  1503.41  1588.51
                             1626.62  1652.33  1689.46  1740.71  1814.83
                             1874.41  1894.63  1983.10  2012.70  2042.47
                             2068.59  2092.51  2141.45  2156.52  2181.75
                             3223.06  4291.30  4356.42  4380.92  4415.21
                             4457.05  4487.73  4496.81  4596.14  5043.78
                             5409.20

 Zero-point correction=                           0.156008 (Hartree/Particle)
 Thermal correction to Energy=                    0.165782
 Thermal correction to Enthalpy=                  0.166726
 Thermal correction to Gibbs Free Energy=         0.121132
 Sum of electronic and zero-point Energies=           -422.972708
 Sum of electronic and thermal Energies=              -422.962935
 Sum of electronic and thermal Enthalpies=            -422.961991
 Sum of electronic and thermal Free Energies=         -423.007585

                     E (Thermal)             CV                S
                      KCal/Mol        Cal/Mol-Kelvin    Cal/Mol-Kelvin
 Total                  104.030             36.456             95.960
 Electronic               0.000              0.000              0.000
 Translational            0.889              2.981             40.409
 Rotational               0.889              2.981             29.066
 Vibrational            102.252             30.494             26.486
 Vibration     1          0.594              1.981              5.233
 Vibration     2          0.604              1.950              3.469
 Vibration     3          0.612              1.923              2.938
 Vibration     4          0.643              1.824              2.036
 Vibration     5          0.654              1.789              1.847
 Vibration     6          0.682              1.703              1.510
 Vibration     7          0.709              1.626              1.286
 Vibration     8          0.718              1.602              1.226
 Vibration     9          0.736              1.551              1.114
 Vibration    10          0.760              1.486              0.990
 Vibration    11          0.822              1.329              0.753
 Vibration    12          0.855              1.251              0.659
 Vibration    13          0.871              1.215              0.620

 Optimization completed.
    -- Stationary point found.
 Normal termination of Gaussian 09 at Mon Jan 27 16:17:15 2020.
