 Gaussian 09, Revision D.01,
 Gaussian 09:  ES64L-G09RevD.01 24-Apr-2013

 -----------------------------
 # b3lyp 6-31G(2df,p) opt Freq
 -----------------------------

 -----
 titel
 -----
 Symbolic Z-matrix:
 Charge =  0 Multiplicity = 1

 SCF Done:  E(RB3LYP) =  -423.059337122     A.U. after   13 cycles
 SCF Done:  E(RB3LYP) =  -423.059337487     A.U. after    6 cycles
 Optimization completed.
    -- Stationary point found.
 Normal termination of Gaussian 09 at Tue Jan 28 02:59:53 2020.

 ----------------------------------------------------------------------
 #N Geom=AllCheck Guess=TCheck SCRF=Check GenChk RB3LYP/6-31G(2df,p) Fr
 eq
 ----------------------------------------------------------------------

 Structure from the checkpoint file:  "/scratch/puck/g09_6363f171-3583-4728-8463-493193c0a664/Gau-11265.chk"
 -----
 titel
 -----
 Charge =  0 Multiplicity = 1

                         Standard orientation:
 ---------------------------------------------------------------------
 Center     Atomic      Atomic             Coordinates (Angstroms)
 Number     Number       Type             X           Y           Z
 ---------------------------------------------------------------------
      1          6           0        2.863239    0.192680   -0.407311
      2          6           0        1.647163    0.170659    0.495559
      3          6           0        0.657002   -1.079986    0.430535
      4          8           0        0.227473   -0.629160   -0.898979
      5          6           0        0.238508    0.602708   -0.013680
      6          6           0       -1.014656    1.420162   -0.325321
      7          6           0       -1.818960    0.220214    0.373502
      8          8           0       -2.476981   -0.667478   -0.472083
      9          6           0       -0.458410   -0.225353    1.072578
     10          1           0        2.608635   -0.181412   -1.400772
     11          1           0        3.252153    1.211491   -0.506723
     12          1           0        3.665674   -0.425963    0.008767
     13          1           0        1.863873    0.523414    1.508910
     14          1           0        0.916769   -2.137056    0.539985
     15          1           0       -1.078106    2.340945    0.260311
     16          1           0       -1.231783    1.621673   -1.376897
     17          1           0       -2.550826    0.569281    1.105848
     18          1           0       -1.781995   -1.021749   -1.045035
     19          1           0       -0.351646    0.065981    2.118932
 ---------------------------------------------------------------------

 SCF Done:  E(RB3LYP) =  -423.059337487     A.U. after    1 cycles

 The electronic state is 1-A.
 Alpha  occ. eigenvalues --  -19.14083 -19.12487 -10.25990 -10.25180 -10.24350
 Alpha  occ. eigenvalues --  -10.21472 -10.19579 -10.18633 -10.17840  -1.06757
 Alpha  occ. eigenvalues --   -1.01144  -0.82506  -0.78128  -0.72147  -0.65249
 Alpha  occ. eigenvalues --   -0.61306  -0.59816  -0.53331  -0.50028  -0.47756
 Alpha  occ. eigenvalues --   -0.46685  -0.44627  -0.42256  -0.41125  -0.40588
 Alpha  occ. eigenvalues --   -0.38333  -0.37290  -0.36693  -0.34149  -0.32638
 Alpha  occ. eigenvalues --   -0.30536  -0.26992  -0.25200  -0.23739
 Alpha virt. eigenvalues --    0.06185   0.08480   0.08941   0.11358   0.11814
 Alpha virt. eigenvalues --    0.12769   0.13149   0.14579   0.14900   0.15719
 Alpha virt. eigenvalues --    0.17203   0.17549   0.18213   0.19564   0.20353

 Mulliken charges:
               1
     1  C   -0.427146
     2  C   -0.068721
     3  C    0.006582
     4  O   -0.356769
     5  C    0.360483
     6  C   -0.368955
     7  C    0.116445
     8  O   -0.425227
     9  C   -0.076295
    10  H    0.139073
    11  H    0.121451
    12  H    0.117554
    13  H    0.079859
    14  H    0.093928
    15  H    0.113130
    16  H    0.118859
    17  H    0.091946
    18  H    0.286985
    19  H    0.076818
 Sum of Mulliken charges =   0.00000

 Dipole moment (field-independent basis, Debye):
    X=              2.0154    Y=              1.0635    Z=              1.5084  Tot=              2.7328
 Quadrupole moment (field-independent basis, Debye-Ang):
   XX=            -57.8887   YY=            -51.2688   ZZ=            -52.6215
   XY=             -3.0058   XZ=             -0.1465   YZ=              0.0536

  Exact polarizability:  91.395  -4.032  71.532  -0.110  -0.094  67.797
 Approx polarizability: 120.017  -4.267 111.745   1.700   1.987 111.199

                      1                      2                      3
                      A                      A                      A
 Frequencies --    169.9749               188.2520               225.7946
 Red. masses --      3.8276                 2.9723                 1.1493
 Frc consts  --      0.0652                 0.0621                 0.0345
 IR Inten    --      1.9302                 0.3075                 0.0718

                      4                      5                      6
                      A                      A                      A
 Frequencies --    282.7428               290.3486               402.7237
 Red. masses --      2.8775                 3.5993                 2.6902
 Frc consts  --      0.1355                 0.1788                 0.2571
 IR Inten    --      5.7582                 2.5938                 5.3979

                      7                      8                      9
                      A                      A                      A
 Frequencies --    431.4027               492.6729               588.7503
 Red. masses --      3.0887                 3.0829                 2.0279
 Frc consts  --      0.3387                 0.4409                 0.4142
 IR Inten    --      3.1676                 2.0201                11.0595

                     10                     11                     12
                      A                      A                      A
 Frequencies --    620.3239               666.0812               689.5195
 Red. masses --      1.9594                 2.6868                 4.8688
 Frc consts  --      0.4442                 0.7023                 1.3639
 IR Inten    --     41.5553                35.0594                10.3627

                     13                     14                     15
                      A                      A                      A
 Frequencies --    729.3873               757.6484               785.2519
 Red. masses --      3.6406                 2.5586                 2.3604
 Frc consts  --      1.1412                 0.8653                 0.8575
 IR Inten    --     10.4481                 2.7458                10.2726

                     16                     17                     18
                      A                      A                      A
 Frequencies --    831.9168               881.9449               912.6887
 Red. masses --      3.5879                 3.4032                 2.7368
 Frc consts  --      1.4630                 1.5596                 1.3432
 IR Inten    --     12.9760                 8.0011                 7.7988

                     19                     20                     21
                      A                      A                      A
 Frequencies --    922.1251               969.3774              1025.3836
 Red. masses --      2.6994                 2.0677                 1.3738
 Frc consts  --      1.3524                 1.1448                 0.8510
 IR Inten    --     15.1428                16.1298                20.9723

                     22                     23                     24
                      A                      A                      A
 Frequencies --   1037.5313              1058.5985              1087.7366
 Red. masses --      1.8205                 2.0249                 1.7651
 Frc consts  --      1.1546                 1.3369                 1.2305
 IR Inten    --     11.5125                23.8844                 5.4032

                     25                     26                     27
                      A                      A                      A
 Frequencies --   1113.6320              1139.1466              1159.5318
 Red. masses --      1.8004                 2.0641                 1.8482
 Frc consts  --      1.3156                 1.5781                 1.4641
 IR Inten    --     13.1812                33.8881               122.5802

                     28                     29                     30
                      A                      A                      A
 Frequencies --   1180.2543              1187.7992              1191.2816
 Red. masses --      1.7201                 1.4953                 1.4728
 Frc consts  --      1.4117                 1.2430                 1.2315
 IR Inten    --      2.3002                 8.6618                17.2836

                     31                     32                     33
                      A                      A                      A
 Frequencies --   1221.9999              1230.1934              1271.9982
 Red. masses --      1.7282                 1.5564                 1.6983
 Frc consts  --      1.5205                 1.3878                 1.6190
 IR Inten    --      3.6138                 9.1346                 1.2647

                     34                     35                     36
                      A                      A                      A
 Frequencies --   1293.1448              1344.3353              1388.4923
 Red. masses --      1.7251                 1.6440                 1.3318
 Frc consts  --      1.6997                 1.7505                 1.5128
 IR Inten    --      3.9504                 0.7269                 1.3902

                     37                     38                     39
                      A                      A                      A
 Frequencies --   1410.3774              1450.8733              1463.8096
 Red. masses --      1.5036                 1.1418                 1.1876
 Frc consts  --      1.7622                 1.4162                 1.4993
 IR Inten    --     14.1678                42.7024                73.5157

                     40                     41                     42
                      A                      A                      A
 Frequencies --   1491.1735              1503.0108              3038.2023
 Red. masses --      1.0520                 1.0476                 1.0380
 Frc consts  --      1.3782                 1.3943                 5.6453
 IR Inten    --      6.2564                 3.5977                26.1957

                     43                     44                     45
                      A                      A                      A
 Frequencies --   3063.0918              3064.1168              3069.4552
 Red. masses --      1.0606                 1.0829                 1.0882
 Frc consts  --      5.8631                 5.9904                 6.0405
 IR Inten    --     41.6356                27.3363                47.6343

                     46                     47                     48
                      A                      A                      A
 Frequencies --   3080.4882              3096.8257              3100.9369
 Red. masses --      1.0873                 1.1005                 1.0884
 Frc consts  --      6.0791                 6.2185                 6.1663
 IR Inten    --     34.2429                19.3976                44.2838

                     49                     50                     51
                      A                      A                      A
 Frequencies --   3130.6260              3137.7908              3736.2676
 Red. masses --      1.1092                 1.0993                 1.0641
 Frc consts  --      6.4048                 6.3771                 8.7520
 IR Inten    --     15.2160                14.0600                55.2837

 - Thermochemistry -
 -------------------
 Temperature   298.150 Kelvin.  Pressure   1.00000 Atm.
 Atom     1 has atomic number  6 and mass  12.00000

 Molecular mass:   126.06808 amu.
 Principal axes and moments of inertia in atomic units:
                           1         2         3
     Eigenvalues --   457.392091400.550401472.06716
           X            0.99990  -0.01198  -0.00741
           Y            0.01181   0.99967  -0.02285
           Z            0.00769   0.02276   0.99971
 This molecule is an asymmetric top.
 Rotational symmetry number  1.
 Warning -- assumption of classical behavior for rotation
           may cause significant error
 Rotational temperatures (Kelvin)      0.18936     0.06184     0.05884
 Rotational constants (GHZ):           3.94572     1.28859     1.22599
 Zero-point vibrational energy     416342.5 (Joules/Mol)
                                   99.50825 (Kcal/Mol)
 Warning -- explicit consideration of  10 degrees of freedom as
           vibrations may cause significant error
 Vibrational temperatures:    244.56   270.85   324.87   406.80   417.75
          (Kelvin)            579.43   620.69   708.85   847.08   892.51
                              958.34   992.06  1049.42  1090.09  1129.80
                             1196.94  1268.92  1313.15  1326.73  1394.72
                             1475.30  1492.77  1523.09  1565.01  1602.27
                             1638.98  1668.31  1698.12  1708.98  1713.99
                             1758.18  1769.97  1830.12  1860.54  1934.20
                             1997.73  2029.22  2087.48  2106.09  2145.46
                             2162.49  4371.29  4407.10  4408.58  4416.26
                             4432.13  4455.64  4461.55  4504.27  4514.58
                             5375.65

 Zero-point correction=                           0.158576 (Hartree/Particle)
 Thermal correction to Energy=                    0.166254
 Thermal correction to Enthalpy=                  0.167198
 Thermal correction to Gibbs Free Energy=         0.126983
 Sum of electronic and zero-point Energies=           -422.900761
 Sum of electronic and thermal Energies=              -422.893084
 Sum of electronic and thermal Enthalpies=            -422.892139
 Sum of electronic and thermal Free Energies=         -422.932354

                     E (Thermal)             CV                S
                      KCal/Mol        Cal/Mol-Kelvin    Cal/Mol-Kelvin
 Total                  104.326             31.525             84.639
 Electronic               0.000              0.000              0.000
 Translational            0.889              2.981             40.409
 Rotational               0.889              2.981             28.335
 Vibrational            102.548             25.564             15.895
 Vibration     1          0.625              1.879              2.436
 Vibration     2          0.633              1.856              2.245
 Vibration     3          0.650              1.802              1.912
 Vibration     4          0.682              1.706              1.517
 Vibration     5          0.686              1.692              1.472
 Vibration     6          0.768              1.464              0.953
 Vibration     7          0.792              1.402              0.854
 Vibration     8          0.848              1.266              0.677
 Vibration     9          0.946              1.056              0.469
 Vibration    10          0.980              0.989              0.416

 Optimization completed.
    -- Stationary point found.
 Normal termination of Gaussian 09 at Tue Jan 28 03:48:42 2020.
