 Gaussian 09, Revision D.01,
 Gaussian 09:  ES64L-G09RevD.01 24-Apr-2013

 -----------------------------
 # b3lyp 6-31G(2df,p) opt Freq
 -----------------------------

 -----
 titel
 -----
 Symbolic Z-matrix:
 Charge =  0 Multiplicity = 1

 SCF Done:  E(RB3LYP) =  -423.208683622     A.U. after   14 cycles
 Optimization completed.
    -- Stationary point found.
 Normal termination of Gaussian 09 at Tue Jan 28 00:42:48 2020.

 ----------------------------------------------------------------------
 #N Geom=AllCheck Guess=TCheck SCRF=Check GenChk RB3LYP/6-31G(2df,p) Fr
 eq
 ----------------------------------------------------------------------

 Structure from the checkpoint file:  "/scratch/puck/g09_fc8a68bf-b861-40fe-a57d-0ba68413e8bf/Gau-189701.chk"
 -----
 titel
 -----
 Charge =  0 Multiplicity = 1

                         Standard orientation:
 ---------------------------------------------------------------------
 Center     Atomic      Atomic             Coordinates (Angstroms)
 Number     Number       Type             X           Y           Z
 ---------------------------------------------------------------------
      1          6           0        2.592712   -1.168509   -0.344269
      2          6           0        1.544791   -0.391367    0.457522
      3          8           0        1.343345    0.906007   -0.113724
      4          6           0       -0.033942    1.123793   -0.440480
      5          6           0       -0.563014    2.349988    0.305928
      6          6           0       -0.714500   -0.177154   -0.069074
      7          6           0       -2.145007   -0.468714   -0.267422
      8          8           0       -2.683390   -1.504118    0.055047
      9          6           0        0.182440   -1.016172    0.456311
     10          1           0        2.245860   -1.339861   -1.367213
     11          1           0        3.524083   -0.597401   -0.382514
     12          1           0        2.798678   -2.135971    0.125062
     13          1           0        1.914672   -0.273402    1.490290
     14          1           0       -0.108315    1.312357   -1.523785
     15          1           0       -1.597045    2.567599    0.017159
     16          1           0       -0.528751    2.186524    1.387052
     17          1           0        0.049346    3.223191    0.065179
     18          1           0       -2.728697    0.343854   -0.754127
     19          1           0       -0.030357   -2.013190    0.821207
 ---------------------------------------------------------------------

 SCF Done:  E(RB3LYP) =  -423.208683622     A.U. after    1 cycles

 The electronic state is 1-A.
 Alpha  occ. eigenvalues --  -19.14146 -19.13869 -10.27435 -10.24756 -10.24606
 Alpha  occ. eigenvalues --  -10.20945 -10.20019 -10.18447 -10.18299  -1.04510
 Alpha  occ. eigenvalues --   -1.04042  -0.81383  -0.79261  -0.72536  -0.66999
 Alpha  occ. eigenvalues --   -0.63109  -0.58299  -0.54851  -0.51111  -0.49078
 Alpha  occ. eigenvalues --   -0.45561  -0.44379  -0.43113  -0.41147  -0.40882
 Alpha  occ. eigenvalues --   -0.39762  -0.38928  -0.37925  -0.37225  -0.35140
 Alpha  occ. eigenvalues --   -0.32906  -0.28526  -0.25674  -0.24637
 Alpha virt. eigenvalues --   -0.06699   0.06075   0.09547   0.09722   0.11955
 Alpha virt. eigenvalues --    0.12859   0.14004   0.14953   0.15352   0.16392
 Alpha virt. eigenvalues --    0.16915   0.17996   0.19190   0.19677   0.22005

 Mulliken charges:
               1
     1  C   -0.391438
     2  C    0.090482
     3  O   -0.296256
     4  C    0.029468
     5  C   -0.396211
     6  C    0.200914
     7  C    0.070843
     8  O   -0.261084
     9  C   -0.182073
    10  H    0.124190
    11  H    0.132442
    12  H    0.117723
    13  H    0.093373
    14  H    0.088601
    15  H    0.115893
    16  H    0.122552
    17  H    0.131458
    18  H    0.072247
    19  H    0.136875
 Sum of Mulliken charges =   0.00000

 Dipole moment (field-independent basis, Debye):
    X=              1.4048    Y=              0.8541    Z=             -0.0601  Tot=              1.6452
 Quadrupole moment (field-independent basis, Debye-Ang):
   XX=            -59.0477   YY=            -54.7611   ZZ=            -51.8879
   XY=             -9.0819   XZ=              2.3321   YZ=             -0.8240

  Exact polarizability:  99.496  -7.233  83.296   6.236  -6.482  59.970
 Approx polarizability: 142.470  -6.429 121.087  13.518 -15.158  94.383

                      1                      2                      3
                      A                      A                      A
 Frequencies --     63.9037               102.1424               148.2786
 Red. masses --      3.5121                 4.4315                 2.3950
 Frc consts  --      0.0085                 0.0272                 0.0310
 IR Inten    --      3.0387                 6.4870                 2.1722

                      4                      5                      6
                      A                      A                      A
 Frequencies --    180.4834               225.2450               235.9217
 Red. masses --      3.7515                 2.0547                 1.0286
 Frc consts  --      0.0720                 0.0614                 0.0337
 IR Inten    --      5.2352                 1.5683                 0.1855

                      7                      8                      9
                      A                      A                      A
 Frequencies --    251.3885               318.7479               382.9911
 Red. masses --      1.2710                 2.6310                 3.7840
 Frc consts  --      0.0473                 0.1575                 0.3270
 IR Inten    --      0.9370                 1.3126                 3.9579

                     10                     11                     12
                      A                      A                      A
 Frequencies --    455.0459               497.1121               560.2360
 Red. masses --      3.7755                 3.4917                 3.3715
 Frc consts  --      0.4606                 0.5084                 0.6235
 IR Inten    --      0.7025                 3.8577                 4.1147

                     13                     14                     15
                      A                      A                      A
 Frequencies --    709.3939               730.7051               828.4753
 Red. masses --      3.6804                 2.8403                 3.9905
 Frc consts  --      1.0912                 0.8935                 1.6138
 IR Inten    --     39.0049                 1.9764                23.9185

                     16                     17                     18
                      A                      A                      A
 Frequencies --    866.0162               885.8076               901.9787
 Red. masses --      2.5147                 1.4286                 1.8234
 Frc consts  --      1.1112                 0.6604                 0.8740
 IR Inten    --      7.7105                10.7197                 3.8815

                     19                     20                     21
                      A                      A                      A
 Frequencies --    963.4339              1029.5962              1036.6835
 Red. masses --      1.6772                 2.4465                 1.7717
 Frc consts  --      0.9172                 1.5280                 1.1218
 IR Inten    --     14.0977                 6.5744                 4.3944

                     22                     23                     24
                      A                      A                      A
 Frequencies --   1075.0268              1088.7352              1099.0732
 Red. masses --      1.7045                 2.3006                 2.5567
 Frc consts  --      1.1606                 1.6067                 1.8196
 IR Inten    --      5.6337                12.1009                29.6090

                     25                     26                     27
                      A                      A                      A
 Frequencies --   1116.3196              1136.1730              1201.2848
 Red. masses --      2.2671                 2.0686                 2.7196
 Frc consts  --      1.6646                 1.5733                 2.3124
 IR Inten    --     10.4255                38.1948                84.9453

                     28                     29                     30
                      A                      A                      A
 Frequencies --   1262.7227              1327.2815              1352.7888
 Red. masses --      1.4061                 1.5963                 1.4849
 Frc consts  --      1.3210                 1.6568                 1.6010
 IR Inten    --      4.6577                 2.6300                31.0115

                     31                     32                     33
                      A                      A                      A
 Frequencies --   1360.9155              1381.8680              1399.2042
 Red. masses --      1.6527                 1.2594                 1.2389
 Frc consts  --      1.8035                 1.4170                 1.4291
 IR Inten    --     18.9999                 0.7325                 1.6802

                     34                     35                     36
                      A                      A                      A
 Frequencies --   1401.7999              1446.9970              1485.5946
 Red. masses --      1.2539                 1.2969                 1.0540
 Frc consts  --      1.4518                 1.5999                 1.3705
 IR Inten    --      7.1211                 8.5813                 3.3854

                     37                     38                     39
                      A                      A                      A
 Frequencies --   1486.3656              1494.7139              1495.4621
 Red. masses --      1.0571                 1.0541                 1.0523
 Frc consts  --      1.3761                 1.3875                 1.3866
 IR Inten    --      1.0100                 3.7716                 0.8768

                     40                     41                     42
                      A                      A                      A
 Frequencies --   1678.4327              1790.6150              2883.9010
 Red. masses --      8.6836                 9.6140                 1.0814
 Frc consts  --     14.4131                18.1618                 5.2989
 IR Inten    --    115.6708               142.6986               120.7569

                     43                     44                     45
                      A                      A                      A
 Frequencies --   2955.1012              2967.6441              3036.7794
 Red. masses --      1.0817                 1.0829                 1.0350
 Frc consts  --      5.5654                 5.6192                 5.6237
 IR Inten    --     51.9410                42.5040                19.2379

                     46                     47                     48
                      A                      A                      A
 Frequencies --   3040.4481              3109.7007              3116.0624
 Red. masses --      1.0343                 1.1005                 1.1015
 Frc consts  --      5.6333                 6.2701                 6.3014
 IR Inten    --     17.8217                20.7303                18.8092

                     49                     50                     51
                      A                      A                      A
 Frequencies --   3123.7452              3126.2455              3224.7581
 Red. masses --      1.1030                 1.1031                 1.0949
 Frc consts  --      6.3413                 6.3520                 6.7084
 IR Inten    --     19.7398                18.5807                 0.3837

 - Thermochemistry -
 -------------------
 Temperature   298.150 Kelvin.  Pressure   1.00000 Atm.
 Atom     1 has atomic number  6 and mass  12.00000

 Molecular mass:   126.06808 amu.
 Principal axes and moments of inertia in atomic units:
                           1         2         3
     Eigenvalues --   778.456121360.484361989.85915
           X            0.99420  -0.10755   0.00043
           Y            0.10754   0.99419   0.00417
           Z           -0.00087  -0.00410   0.99999
 This molecule is an asymmetric top.
 Rotational symmetry number  1.
 Warning -- assumption of classical behavior for rotation
           may cause significant error
 Rotational temperatures (Kelvin)      0.11126     0.06366     0.04353
 Rotational constants (GHZ):           2.31836     1.32654     0.90697
 Zero-point vibrational energy     412947.0 (Joules/Mol)
                                   98.69670 (Kcal/Mol)
 Warning -- explicit consideration of  12 degrees of freedom as
           vibrations may cause significant error
 Vibrational temperatures:     91.94   146.96   213.34   259.67   324.08
          (Kelvin)            339.44   361.69   458.61   551.04   654.71
                              715.23   806.05  1020.66  1051.32  1191.99
                             1246.00  1274.48  1297.74  1386.16  1481.36
                             1491.55  1546.72  1566.45  1581.32  1606.13
                             1634.70  1728.38  1816.77  1909.66  1946.36
                             1958.05  1988.20  2013.14  2016.87  2081.90
                             2137.44  2138.55  2150.56  2151.63  2414.89
                             2576.29  4149.29  4251.73  4269.77  4369.24
                             4374.52  4474.16  4483.31  4494.37  4497.96
                             4639.70

 Zero-point correction=                           0.157283 (Hartree/Particle)
 Thermal correction to Energy=                    0.166590
 Thermal correction to Enthalpy=                  0.167535
 Thermal correction to Gibbs Free Energy=         0.122806
 Sum of electronic and zero-point Energies=           -423.051400
 Sum of electronic and thermal Energies=              -423.042093
 Sum of electronic and thermal Enthalpies=            -423.041149
 Sum of electronic and thermal Free Energies=         -423.085877

                     E (Thermal)             CV                S
                      KCal/Mol        Cal/Mol-Kelvin    Cal/Mol-Kelvin
 Total                  104.537             33.657             94.138
 Electronic               0.000              0.000              0.000
 Translational            0.889              2.981             40.409
 Rotational               0.889              2.981             29.134
 Vibrational            102.760             27.695             24.595
 Vibration     1          0.597              1.972              4.333
 Vibration     2          0.604              1.947              3.413
 Vibration     3          0.618              1.905              2.694
 Vibration     4          0.629              1.866              2.323
 Vibration     5          0.650              1.803              1.917
 Vibration     6          0.655              1.786              1.833
 Vibration     7          0.663              1.760              1.721
 Vibration     8          0.705              1.638              1.317
 Vibration     9          0.752              1.506              1.027
 Vibration    10          0.813              1.350              0.781
 Vibration    11          0.853              1.256              0.665
 Vibration    12          0.916              1.117              0.523

 Normal termination of Gaussian 09 at Tue Jan 28 01:22:37 2020.
