 Gaussian 09, Revision D.01,
 Gaussian 09:  ES64L-G09RevD.01 24-Apr-2013

 -----------------------------
 # b3lyp 6-31G(2df,p) opt Freq
 -----------------------------

 -----
 titel
 -----
 Symbolic Z-matrix:
 Charge =  0 Multiplicity = 1

 SCF Done:  E(RB3LYP) =  -423.132690360     A.U. after   12 cycles
 Optimization completed.
    -- Stationary point found.
 Normal termination of Gaussian 09 at Mon Jan 27 18:12:29 2020.

 ----------------------------------------------------------------------
 #N Geom=AllCheck Guess=TCheck SCRF=Check GenChk RB3LYP/6-31G(2df,p) Fr
 eq
 ----------------------------------------------------------------------

 Structure from the checkpoint file:  "/scratch/puck/g09_cd79e97b-e493-4a47-bcc1-02849208b5a1/Gau-42154.chk"
 -----
 titel
 -----
 Charge =  0 Multiplicity = 1

                         Standard orientation:
 ---------------------------------------------------------------------
 Center     Atomic      Atomic             Coordinates (Angstroms)
 Number     Number       Type             X           Y           Z
 ---------------------------------------------------------------------
      1          6           0       -0.268961    2.274370   -0.134594
      2          6           0        0.182835    0.856362   -0.036247
      3          6           0        1.596210    0.139770    0.091887
      4          6           0        1.228053   -0.759389   -1.129951
      5          6           0       -0.205392   -0.419428   -0.772137
      6          8           0       -1.334636   -0.678464   -1.514894
      7          6           0       -0.300086   -0.351914    0.758952
      8          8           0       -1.558249   -0.614945    1.276519
      9          6           0        1.074313   -0.647916    1.333733
     10          1           0        0.164698    2.776661   -1.007008
     11          1           0       -1.358325    2.314361   -0.247112
     12          1           0       -0.002038    2.861997    0.752435
     13          1           0        2.549884    0.659572    0.131198
     14          1           0        1.528043   -0.300678   -2.076439
     15          1           0        1.550581   -1.807135   -1.104434
     16          1           0       -2.026687   -0.937870   -0.891519
     17          1           0       -1.757617    0.022235    1.970629
     18          1           0        1.258337   -0.102469    2.265619
     19          1           0        1.394362   -1.690533    1.443770
 ---------------------------------------------------------------------

 SCF Done:  E(RB3LYP) =  -423.132690360     A.U. after    1 cycles

 The electronic state is 1-A.
 Alpha  occ. eigenvalues --  -19.16196 -19.13855 -10.23288 -10.22880 -10.19567
 Alpha  occ. eigenvalues --  -10.18375 -10.18347 -10.18245 -10.17781  -1.05063
 Alpha  occ. eigenvalues --   -1.02000  -0.91491  -0.73582  -0.71351  -0.69154
 Alpha  occ. eigenvalues --   -0.61062  -0.57211  -0.53867  -0.50209  -0.48050
 Alpha  occ. eigenvalues --   -0.46607  -0.43048  -0.42057  -0.40294  -0.40128
 Alpha  occ. eigenvalues --   -0.38830  -0.38347  -0.35679  -0.34746  -0.31046
 Alpha  occ. eigenvalues --   -0.30597  -0.29523  -0.24080  -0.21257
 Alpha virt. eigenvalues --    0.05716   0.10549   0.11879   0.12132   0.13327
 Alpha virt. eigenvalues --    0.13597   0.14388   0.14985   0.16677   0.16983
 Alpha virt. eigenvalues --    0.17421   0.19405   0.20590   0.22729   0.23269

 Mulliken charges:
               1
     1  C   -0.535902
     2  C    0.184504
     3  C   -0.122476
     4  C   -0.285415
     5  C    0.355952
     6  O   -0.481216
     7  C    0.251392
     8  O   -0.476206
     9  C   -0.291589
    10  H    0.127692
    11  H    0.126136
    12  H    0.114480
    13  H    0.077061
    14  H    0.102885
    15  H    0.087715
    16  H    0.291970
    17  H    0.292188
    18  H    0.088821
    19  H    0.092008
 Sum of Mulliken charges =   0.00000

 Dipole moment (field-independent basis, Debye):
    X=              0.2817    Y=              1.2594    Z=              1.9964  Tot=              2.3772
 Quadrupole moment (field-independent basis, Debye-Ang):
   XX=            -50.8473   YY=            -53.1454   ZZ=            -53.5343
   XY=             -1.2158   XZ=             -3.3392   YZ=              0.9104

  Exact polarizability:  76.116  -2.011  75.591  -1.114   0.752  74.473
 Approx polarizability: 111.393   2.111 109.471  -1.385   1.815 110.804

                      1                      2                      3
                      A                      A                      A
 Frequencies --    143.9938               178.4458               183.9995
 Red. masses --      3.1525                 2.2287                 1.2421
 Frc consts  --      0.0385                 0.0418                 0.0248
 IR Inten    --      3.2982                 1.3169                 1.0735

                      4                      5                      6
                      A                      A                      A
 Frequencies --    249.1041               253.0169               309.2275
 Red. masses --      3.5911                 2.8003                 1.2403
 Frc consts  --      0.1313                 0.1056                 0.0699
 IR Inten    --      0.9941                 5.8441                49.0988

                      7                      8                      9
                      A                      A                      A
 Frequencies --    349.7109               382.5663               445.9788
 Red. masses --      1.1423                 2.2757                 3.2190
 Frc consts  --      0.0823                 0.1962                 0.3772
 IR Inten    --     89.5010                18.8190                 7.7446

                     10                     11                     12
                      A                      A                      A
 Frequencies --    459.7426               555.6671               644.2634
 Red. masses --      2.3052                 3.5929                 3.8227
 Frc consts  --      0.2871                 0.6536                 0.9349
 IR Inten    --      5.0884                 1.7616                 8.1226

                     13                     14                     15
                      A                      A                      A
 Frequencies --    672.0955               685.0573               690.2831
 Red. masses --      3.9029                 3.8280                 4.1330
 Frc consts  --      1.0387                 1.0585                 1.1603
 IR Inten    --      1.1636                 0.8597                24.5127

                     16                     17                     18
                      A                      A                      A
 Frequencies --    768.1257               821.4147               899.6085
 Red. masses --      3.4384                 2.8275                 2.3439
 Frc consts  --      1.1953                 1.1240                 1.1176
 IR Inten    --      2.1553                 1.1636                 2.1803

                     19                     20                     21
                      A                      A                      A
 Frequencies --    907.3411               974.8494              1052.9438
 Red. masses --      2.2800                 1.3653                 1.6077
 Frc consts  --      1.1059                 0.7644                 1.0502
 IR Inten    --      0.2400                 4.0549                 2.7570

                     22                     23                     24
                      A                      A                      A
 Frequencies --   1059.0795              1089.5722              1094.3613
 Red. masses --      3.2522                 1.3763                 1.4926
 Frc consts  --      2.1493                 0.9627                 1.0532
 IR Inten    --      5.3161                 7.9426                 1.1821

                     25                     26                     27
                      A                      A                      A
 Frequencies --   1113.5823              1127.0235              1131.8711
 Red. masses --      1.5234                 2.1476                 1.4592
 Frc consts  --      1.1130                 1.6072                 1.1015
 IR Inten    --     35.4646                11.8837                 9.2974

                     28                     29                     30
                      A                      A                      A
 Frequencies --   1181.7127              1205.7545              1241.7311
 Red. masses --      1.8741                 1.6314                 1.8101
 Frc consts  --      1.5419                 1.3974                 1.6444
 IR Inten    --     11.9478                 0.8557                60.2618

                     31                     32                     33
                      A                      A                      A
 Frequencies --   1254.3722              1275.8394              1334.5366
 Red. masses --      1.8478                 1.7307                 2.2250
 Frc consts  --      1.7130                 1.6598                 2.3347
 IR Inten    --     13.3688               150.9451                94.8495

                     34                     35                     36
                      A                      A                      A
 Frequencies --   1360.9262              1408.1178              1420.3870
 Red. masses --      2.4063                 1.4031                 1.6899
 Frc consts  --      2.6258                 1.6392                 2.0088
 IR Inten    --      4.3040                 4.5429                 0.9225

                     37                     38                     39
                      A                      A                      A
 Frequencies --   1466.0304              1484.2215              1497.5205
 Red. masses --      3.3474                 1.0480                 1.1338
 Frc consts  --      4.2389                 1.3603                 1.4981
 IR Inten    --     35.4200                 4.3344                 1.9305

                     40                     41                     42
                      A                      A                      A
 Frequencies --   1499.1813              1521.4173              3014.9157
 Red. masses --      1.1454                 1.3916                 1.0360
 Frc consts  --      1.5167                 1.8979                 5.5485
 IR Inten    --      5.4177                24.6725                60.7601

                     43                     44                     45
                      A                      A                      A
 Frequencies --   3025.6354              3032.0293              3071.0416
 Red. masses --      1.0579                 1.0589                 1.1002
 Frc consts  --      5.7060                 5.7357                 6.1134
 IR Inten    --     48.7631                58.9272                21.8904

                     46                     47                     48
                      A                      A                      A
 Frequencies --   3081.3813              3086.7571              3095.3224
 Red. masses --      1.1076                 1.0995                 1.1040
 Frc consts  --      6.1961                 6.1723                 6.2319
 IR Inten    --     35.8771                17.0194                28.0156

                     49                     50                     51
                      A                      A                      A
 Frequencies --   3149.8493              3753.4220              3801.3799
 Red. masses --      1.0917                 1.0655                 1.0664
 Frc consts  --      6.3817                 8.8438                 9.0791
 IR Inten    --     26.4107                45.6732                28.4462

 - Thermochemistry -
 -------------------
 Temperature   298.150 Kelvin.  Pressure   1.00000 Atm.
 Atom     1 has atomic number  6 and mass  12.00000

 Molecular mass:   126.06808 amu.
 Principal axes and moments of inertia in atomic units:
                           1         2         3
     Eigenvalues --   932.752421020.198441037.40476
           X            0.98521  -0.04924  -0.16410
           Y            0.16462   0.00655   0.98634
           Z            0.04749   0.99877  -0.01456
 This molecule is an asymmetric top.
 Rotational symmetry number  1.
 Warning -- assumption of classical behavior for rotation
           may cause significant error
 Rotational temperatures (Kelvin)      0.09286     0.08490     0.08349
 Rotational constants (GHZ):           1.93486     1.76901     1.73967
 Zero-point vibrational energy     415740.6 (Joules/Mol)
                                   99.36440 (Kcal/Mol)
 Warning -- explicit consideration of  11 degrees of freedom as
           vibrations may cause significant error
 Vibrational temperatures:    207.17   256.74   264.73   358.40   364.03
          (Kelvin)            444.91   503.16   550.43   641.66   661.47
                              799.48   926.95   966.99   985.64   993.16
                             1105.16  1181.83  1294.33  1305.46  1402.59
                             1514.95  1523.78  1567.65  1574.54  1602.19
                             1621.53  1628.51  1700.22  1734.81  1786.57
                             1804.76  1835.65  1920.10  1958.07  2025.96
                             2043.62  2109.29  2135.46  2154.60  2156.98
                             2188.98  4337.79  4353.21  4362.41  4418.54
                             4433.41  4441.15  4453.47  4531.92  5400.33
                             5469.33

 Zero-point correction=                           0.158347 (Hartree/Particle)
 Thermal correction to Energy=                    0.166907
 Thermal correction to Enthalpy=                  0.167851
 Thermal correction to Gibbs Free Energy=         0.125932
 Sum of electronic and zero-point Energies=           -422.974343
 Sum of electronic and thermal Energies=              -422.965783
 Sum of electronic and thermal Enthalpies=            -422.964839
 Sum of electronic and thermal Free Energies=         -423.006758

                     E (Thermal)             CV                S
                      KCal/Mol        Cal/Mol-Kelvin    Cal/Mol-Kelvin
 Total                  104.736             33.708             88.225
 Electronic               0.000              0.000              0.000
 Translational            0.889              2.981             40.409
 Rotational               0.889              2.981             28.381
 Vibrational            102.958             27.746             19.436
 Vibration     1          0.616              1.909              2.750
 Vibration     2          0.629              1.869              2.345
 Vibration     3          0.631              1.862              2.287
 Vibration     4          0.662              1.764              1.737
 Vibration     5          0.664              1.758              1.709
 Vibration     6          0.699              1.656              1.366
 Vibration     7          0.727              1.576              1.167
 Vibration     8          0.752              1.507              1.029
 Vibration     9          0.805              1.370              0.808
 Vibration    10          0.818              1.339              0.767
 Vibration    11          0.911              1.127              0.533

 Optimization completed.
    -- Stationary point found.
 Normal termination of Gaussian 09 at Mon Jan 27 19:01:03 2020.
