 Gaussian 09, Revision D.01,
 Gaussian 09:  ES64L-G09RevD.01 24-Apr-2013

 -----------------------------
 # b3lyp 6-31G(2df,p) opt Freq
 -----------------------------

 -----
 titel
 -----
 Symbolic Z-matrix:
 Charge =  0 Multiplicity = 1

 SCF Done:  E(RB3LYP) =  -423.172429804     A.U. after   14 cycles
 Optimization completed.
    -- Stationary point found.
 Normal termination of Gaussian 09 at Tue Jan 28 12:40:08 2020.

 ----------------------------------------------------------------------
 #N Geom=AllCheck Guess=TCheck SCRF=Check GenChk RB3LYP/6-31G(2df,p) Fr
 eq
 ----------------------------------------------------------------------

 Structure from the checkpoint file:  "/scratch/puck/g09_d7d43f78-7fba-457b-8f04-d35455ec0177/Gau-29020.chk"
 -----
 titel
 -----
 Charge =  0 Multiplicity = 1

                         Standard orientation:
 ---------------------------------------------------------------------
 Center     Atomic      Atomic             Coordinates (Angstroms)
 Number     Number       Type             X           Y           Z
 ---------------------------------------------------------------------
      1          6           0       -2.925659   -0.069687   -0.231610
      2          6           0       -1.838070   -0.850439    0.530384
      3          6           0       -0.434049   -0.513409    0.117870
      4          6           0        0.446812   -1.324996   -0.486216
      5          6           0        1.784917   -0.679860   -0.608705
      6          8           0        2.369865   -0.342565    0.676934
      7          6           0        1.655081    0.665658   -0.029541
      8          6           0        0.201349    0.846171    0.411034
      9          8           0       -0.421555    1.935066   -0.265421
     10          1           0       -3.920751   -0.355236    0.122871
     11          1           0       -2.803447    1.007019   -0.096716
     12          1           0       -2.876838   -0.284351   -1.304557
     13          1           0       -1.947552   -0.649175    1.604857
     14          1           0       -1.999775   -1.926283    0.399579
     15          1           0        0.249365   -2.348099   -0.785847
     16          1           0        2.500819   -0.948327   -1.378962
     17          1           0        2.219933    1.536746   -0.353018
     18          1           0        0.139142    1.094132    1.476506
     19          1           0       -0.489656    1.692946   -1.196109
 ---------------------------------------------------------------------

 SCF Done:  E(RB3LYP) =  -423.172429804     A.U. after    1 cycles

 The electronic state is 1-A.
 Alpha  occ. eigenvalues --  -19.14895 -19.14704 -10.23932 -10.23778 -10.23184
 Alpha  occ. eigenvalues --  -10.19502 -10.19161 -10.18829 -10.17677  -1.06996
 Alpha  occ. eigenvalues --   -1.02590  -0.82702  -0.75971  -0.70715  -0.66828
 Alpha  occ. eigenvalues --   -0.61560  -0.59023  -0.55506  -0.51656  -0.48084
 Alpha  occ. eigenvalues --   -0.46074  -0.44415  -0.43332  -0.41671  -0.40651
 Alpha  occ. eigenvalues --   -0.38438  -0.37353  -0.35990  -0.34744  -0.33462
 Alpha  occ. eigenvalues --   -0.31392  -0.29044  -0.25737  -0.24363
 Alpha virt. eigenvalues --   -0.00864   0.07738   0.10275   0.11151   0.12012
 Alpha virt. eigenvalues --    0.13594   0.14481   0.15393   0.16360   0.16524
 Alpha virt. eigenvalues --    0.17312   0.17970   0.18056   0.21641   0.22147

 Mulliken charges:
               1
     1  C   -0.383687
     2  C   -0.287819
     3  C    0.271497
     4  C   -0.206783
     5  C    0.006122
     6  O   -0.254135
     7  C   -0.003632
     8  C    0.003530
     9  O   -0.417889
    10  H    0.112929
    11  H    0.141584
    12  H    0.110641
    13  H    0.111498
    14  H    0.103429
    15  H    0.102691
    16  H    0.099434
    17  H    0.100602
    18  H    0.108553
    19  H    0.281434
 Sum of Mulliken charges =   0.00000

 Dipole moment (field-independent basis, Debye):
    X=             -1.0781    Y=             -0.7034    Z=             -1.8132  Tot=              2.2237
 Quadrupole moment (field-independent basis, Debye-Ang):
   XX=            -55.7914   YY=            -54.5415   ZZ=            -50.9846
   XY=              2.5838   XZ=             -4.0762   YZ=              0.4317

  Exact polarizability:  91.743  -2.345  76.225  -5.553   4.958  62.508
 Approx polarizability: 122.572 -11.344 119.446  -7.382  11.256 102.319

                      1                      2                      3
                      A                      A                      A
 Frequencies --     60.8749               127.7157               185.9508
 Red. masses --      2.5789                 3.3591                 3.4387
 Frc consts  --      0.0056                 0.0323                 0.0701
 IR Inten    --      0.2600                 0.9054                 1.5029

                      4                      5                      6
                      A                      A                      A
 Frequencies --    222.6231               255.8040               300.0559
 Red. masses --      1.3649                 2.7935                 2.9807
 Frc consts  --      0.0399                 0.1077                 0.1581
 IR Inten    --      2.7956                 0.8688                 6.3543

                      7                      8                      9
                      A                      A                      A
 Frequencies --    347.8757               396.0533               428.8246
 Red. masses --      1.3307                 1.9101                 4.2212
 Frc consts  --      0.0949                 0.1765                 0.4574
 IR Inten    --     32.5449                72.9436                 0.5653

                     10                     11                     12
                      A                      A                      A
 Frequencies --    527.7463               585.1379               670.3893
 Red. masses --      5.0852                 3.7060                 3.6749
 Frc consts  --      0.8345                 0.7476                 0.9731
 IR Inten    --      6.1702                 3.7383                 3.9221

                     13                     14                     15
                      A                      A                      A
 Frequencies --    750.7913               780.1271               816.9921
 Red. masses --      6.1852                 1.4211                 2.8800
 Frc consts  --      2.0542                 0.5096                 1.1326
 IR Inten    --      8.8038                 8.2177                 7.9595

                     16                     17                     18
                      A                      A                      A
 Frequencies --    859.3881               866.5203               889.3847
 Red. masses --      3.2563                 2.0426                 1.6451
 Frc consts  --      1.4169                 0.9036                 0.7667
 IR Inten    --     27.5525                19.3627                30.2631

                     19                     20                     21
                      A                      A                      A
 Frequencies --    949.6041               973.3560              1011.6845
 Red. masses --      1.9921                 2.2035                 2.0490
 Frc consts  --      1.0584                 1.2300                 1.2356
 IR Inten    --     11.6408                 2.7715                 3.6968

                     22                     23                     24
                      A                      A                      A
 Frequencies --   1042.7658              1067.8896              1083.1816
 Red. masses --      2.0155                 2.0238                 2.9176
 Frc consts  --      1.2912                 1.3598                 2.0169
 IR Inten    --      4.3147                36.3636                61.3376

                     25                     26                     27
                      A                      A                      A
 Frequencies --   1089.6516              1119.4297              1185.8896
 Red. masses --      1.6539                 1.3976                 1.8901
 Frc consts  --      1.1570                 1.0319                 1.5661
 IR Inten    --      2.0588                 3.1922                 2.3565

                     28                     29                     30
                      A                      A                      A
 Frequencies --   1232.3131              1252.9421              1257.4271
 Red. masses --      1.2503                 1.4609                 1.3943
 Frc consts  --      1.1187                 1.3512                 1.2989
 IR Inten    --     12.8084                 0.5005                 1.3225

                     31                     32                     33
                      A                      A                      A
 Frequencies --   1290.0478              1304.9774              1348.9167
 Red. masses --      1.4327                 1.5433                 1.7544
 Frc consts  --      1.4048                 1.5485                 1.8809
 IR Inten    --      0.9115                 1.3903                 2.2280

                     34                     35                     36
                      A                      A                      A
 Frequencies --   1358.9874              1397.6365              1407.1717
 Red. masses --      1.5754                 1.7671                 1.2343
 Frc consts  --      1.7142                 2.0337                 1.4400
 IR Inten    --     15.4349                41.9903                10.7648

                     37                     38                     39
                      A                      A                      A
 Frequencies --   1417.8189              1480.0937              1496.3959
 Red. masses --      1.8370                 1.0791                 1.0404
 Frc consts  --      2.1757                 1.3928                 1.3725
 IR Inten    --     18.8757                 3.7421                 5.4526

                     40                     41                     42
                      A                      A                      A
 Frequencies --   1514.8473              1680.2474              3015.3950
 Red. masses --      1.0604                 7.4807                 1.0632
 Frc consts  --      1.4337                12.4433                 5.6959
 IR Inten    --      2.8276                 7.8540                20.0106

                     43                     44                     45
                      A                      A                      A
 Frequencies --   3038.3484              3059.2049              3062.2224
 Red. masses --      1.0370                 1.0848                 1.0962
 Frc consts  --      5.6406                 5.9817                 6.0562
 IR Inten    --     30.8731                14.8526                23.0550

                     46                     47                     48
                      A                      A                      A
 Frequencies --   3103.5862              3134.3395              3146.3776
 Red. masses --      1.1016                 1.1007                 1.0896
 Frc consts  --      6.2515                 6.3713                 6.3552
 IR Inten    --     35.5965                15.4979                15.6679

                     49                     50                     51
                      A                      A                      A
 Frequencies --   3169.8571              3197.2749              3798.1430
 Red. masses --      1.0923                 1.0953                 1.0661
 Frc consts  --      6.4668                 6.5967                 9.0614
 IR Inten    --     30.3689                11.7641                15.3424

 - Thermochemistry -
 -------------------
 Temperature   298.150 Kelvin.  Pressure   1.00000 Atm.
 Atom     1 has atomic number  6 and mass  12.00000

 Molecular mass:   126.06808 amu.
 Principal axes and moments of inertia in atomic units:
                           1         2         3
     Eigenvalues --   589.704921412.637381768.81797
           X            0.99975   0.01885  -0.01166
           Y           -0.01879   0.99981   0.00575
           Z            0.01177  -0.00553   0.99992
 This molecule is an asymmetric top.
 Rotational symmetry number  1.
 Warning -- assumption of classical behavior for rotation
           may cause significant error
 Rotational temperatures (Kelvin)      0.14688     0.06131     0.04897
 Rotational constants (GHZ):           3.06041     1.27757     1.02031
 Zero-point vibrational energy     417259.1 (Joules/Mol)
                                   99.72733 (Kcal/Mol)
 Warning -- explicit consideration of  11 degrees of freedom as
           vibrations may cause significant error
 Vibrational temperatures:     87.59   183.75   267.54   320.30   368.04
          (Kelvin)            431.71   500.51   569.83   616.98   759.31
                              841.88   964.54  1080.22  1122.43  1175.47
                             1236.47  1246.73  1279.62  1366.27  1400.44
                             1455.59  1500.31  1536.45  1558.45  1567.76
                             1610.61  1706.23  1773.02  1802.70  1809.15
                             1856.09  1877.57  1940.79  1955.28  2010.88
                             2024.60  2039.92  2129.52  2152.98  2179.52
                             2417.50  4338.48  4371.50  4401.51  4405.85
                             4465.36  4509.61  4526.93  4560.71  4600.16
                             5464.67

 Zero-point correction=                           0.158926 (Hartree/Particle)
 Thermal correction to Energy=                    0.167545
 Thermal correction to Enthalpy=                  0.168489
 Thermal correction to Gibbs Free Energy=         0.125509
 Sum of electronic and zero-point Energies=           -423.013504
 Sum of electronic and thermal Energies=              -423.004885
 Sum of electronic and thermal Enthalpies=            -423.003941
 Sum of electronic and thermal Free Energies=         -423.046921

                     E (Thermal)             CV                S
                      KCal/Mol        Cal/Mol-Kelvin    Cal/Mol-Kelvin
 Total                  105.136             32.781             90.459
 Electronic               0.000              0.000              0.000
 Translational            0.889              2.981             40.409
 Rotational               0.889              2.981             28.779
 Vibrational            103.359             26.819             21.272
 Vibration     1          0.597              1.973              4.429
 Vibration     2          0.611              1.925              2.980
 Vibration     3          0.632              1.859              2.268
 Vibration     4          0.648              1.807              1.938
 Vibration     5          0.666              1.753              1.690
 Vibration     6          0.693              1.674              1.417
 Vibration     7          0.726              1.580              1.176
 Vibration     8          0.763              1.479              0.977
 Vibration     9          0.790              1.407              0.863
 Vibration    10          0.883              1.189              0.592
 Vibration    11          0.942              1.064              0.476

 Optimization completed.
    -- Stationary point found.
 Normal termination of Gaussian 09 at Tue Jan 28 13:23:02 2020.
