 Gaussian 09, Revision D.01,
 Gaussian 09:  ES64L-G09RevD.01 24-Apr-2013

 -----------------------------
 # b3lyp 6-31G(2df,p) opt Freq
 -----------------------------

 -----
 titel
 -----
 Symbolic Z-matrix:
 Charge =  0 Multiplicity = 1

 SCF Done:  E(RB3LYP) =  -423.057103820     A.U. after   13 cycles
 Optimization completed.
    -- Stationary point found.
 Normal termination of Gaussian 09 at Tue Jan 28 02:54:59 2020.

 ----------------------------------------------------------------------
 #N Geom=AllCheck Guess=TCheck SCRF=Check GenChk RB3LYP/6-31G(2df,p) Fr
 eq
 ----------------------------------------------------------------------

 Structure from the checkpoint file:  "/scratch/puck/g09_5f1422fc-2fe9-495d-a018-bf61afca9055/Gau-11293.chk"
 -----
 titel
 -----
 Charge =  0 Multiplicity = 1

                         Standard orientation:
 ---------------------------------------------------------------------
 Center     Atomic      Atomic             Coordinates (Angstroms)
 Number     Number       Type             X           Y           Z
 ---------------------------------------------------------------------
      1          8           0       -2.913308   -0.053288   -0.452185
      2          6           0       -1.564078   -0.394549   -0.326489
      3          6           0       -0.996229   -0.747524    1.124598
      4          6           0        0.272841    0.005109    0.681417
      5          6           0        1.267594    1.213539    0.756652
      6          6           0        1.007034    0.951121   -0.795456
      7          6           0        1.159159   -0.556114   -0.496814
      8          8           0        2.405569   -1.143798   -0.253063
      9          6           0       -0.503236    0.781157   -0.376144
     10          1           0       -3.099020    0.673582    0.152409
     11          1           0       -1.400731   -1.206827   -1.034470
     12          1           0       -1.571185   -0.214796    1.890491
     13          1           0       -0.910951   -1.800881    1.404424
     14          1           0        0.857178    2.142954    1.158938
     15          1           0        2.286381    1.067204    1.133491
     16          1           0        1.442512    1.518902   -1.622285
     17          1           0        0.665647   -1.224905   -1.201544
     18          1           0        2.902417   -0.599920    0.365756
     19          1           0       -0.968852    1.704930   -0.011810
 ---------------------------------------------------------------------

 SCF Done:  E(RB3LYP) =  -423.057103820     A.U. after    1 cycles

 The electronic state is 1-A.
 Alpha  occ. eigenvalues --  -19.14408 -19.13878 -10.24505 -10.23514 -10.21070
 Alpha  occ. eigenvalues --  -10.20769 -10.20008 -10.19371 -10.18640  -1.02955
 Alpha  occ. eigenvalues --   -1.02569  -0.91873  -0.77723  -0.67635  -0.65577
 Alpha  occ. eigenvalues --   -0.62231  -0.59510  -0.56386  -0.50903  -0.47865
 Alpha  occ. eigenvalues --   -0.46482  -0.44573  -0.43999  -0.39845  -0.38428
 Alpha  occ. eigenvalues --   -0.38353  -0.37675  -0.36490  -0.34044  -0.31296
 Alpha  occ. eigenvalues --   -0.30457  -0.26328  -0.25387  -0.24334
 Alpha virt. eigenvalues --    0.06659   0.07454   0.08591   0.09396   0.10956
 Alpha virt. eigenvalues --    0.12444   0.12608   0.14591   0.15667   0.16125
 Alpha virt. eigenvalues --    0.17706   0.18594   0.20139   0.21503   0.22319

 Mulliken charges:
               1
     1  O   -0.431631
     2  C    0.107332
     3  C   -0.377894
     4  C    0.233580
     5  C   -0.347552
     6  C   -0.136875
     7  C    0.178036
     8  O   -0.457183
     9  C   -0.050372
    10  H    0.278555
    11  H    0.109167
    12  H    0.098463
    13  H    0.109690
    14  H    0.103934
    15  H    0.081105
    16  H    0.074773
    17  H    0.085631
    18  H    0.281874
    19  H    0.059369
 Sum of Mulliken charges =   0.00000

 Dipole moment (field-independent basis, Debye):
    X=              0.2774    Y=              1.8073    Z=              1.6549  Tot=              2.4662
 Quadrupole moment (field-independent basis, Debye-Ang):
   XX=            -56.0827   YY=            -53.6931   ZZ=            -53.6680
   XY=              0.6949   XZ=             -1.2872   YZ=              0.7383

  Exact polarizability:  90.026   2.995  73.497  -1.434   1.110  66.462
 Approx polarizability: 127.337   1.766 113.982  -0.392   2.276 104.762

                      1                      2                      3
                      A                      A                      A
 Frequencies --    159.9575               195.3261               243.7673
 Red. masses --      3.9306                 1.8510                 1.5552
 Frc consts  --      0.0593                 0.0416                 0.0544
 IR Inten    --      1.3431                24.1712                30.2552

                      4                      5                      6
                      A                      A                      A
 Frequencies --    285.9451               318.1269               353.7919
 Red. masses --      2.3799                 2.4723                 1.7391
 Frc consts  --      0.1147                 0.1474                 0.1283
 IR Inten    --     15.1748                16.1651                77.3086

                      7                      8                      9
                      A                      A                      A
 Frequencies --    409.4797               433.7369               493.9083
 Red. masses --      3.1946                 3.7033                 2.4042
 Frc consts  --      0.3156                 0.4105                 0.3456
 IR Inten    --      2.5078                 2.0890                19.8359

                     10                     11                     12
                      A                      A                      A
 Frequencies --    542.4579               617.6914               662.8735
 Red. masses --      2.7577                 3.1299                 3.3875
 Frc consts  --      0.4781                 0.7036                 0.8770
 IR Inten    --      3.7035                 2.8979                 1.3308

                     13                     14                     15
                      A                      A                      A
 Frequencies --    760.8820               795.5359               854.9452
 Red. masses --      2.6598                 3.4443                 3.2464
 Frc consts  --      0.9073                 1.2843                 1.3981
 IR Inten    --      1.3723                 7.5112                 8.9732

                     16                     17                     18
                      A                      A                      A
 Frequencies --    867.2484               878.2368               912.4077
 Red. masses --      2.9617                 2.5025                 2.8260
 Frc consts  --      1.3124                 1.1372                 1.3861
 IR Inten    --      7.7694                 0.7814                 6.7994

                     19                     20                     21
                      A                      A                      A
 Frequencies --    966.4635               980.0493              1009.9050
 Red. masses --      2.4189                 1.4447                 1.6712
 Frc consts  --      1.3312                 0.8176                 1.0042
 IR Inten    --      0.4372                 1.8074                 7.6105

                     22                     23                     24
                      A                      A                      A
 Frequencies --   1035.9971              1065.1286              1078.6891
 Red. masses --      1.6676                 1.3538                 1.7405
 Frc consts  --      1.0545                 0.9049                 1.1932
 IR Inten    --     16.5156                29.9865                 3.2045

                     25                     26                     27
                      A                      A                      A
 Frequencies --   1099.9881              1121.6094              1154.7202
 Red. masses --      1.7857                 2.3756                 2.2308
 Frc consts  --      1.2730                 1.7608                 1.7525
 IR Inten    --     57.5521               254.9978                17.4433

                     28                     29                     30
                      A                      A                      A
 Frequencies --   1178.6177              1190.6215              1198.2957
 Red. masses --      1.6259                 1.6166                 1.7520
 Frc consts  --      1.3308                 1.3502                 1.4822
 IR Inten    --     15.8303                14.3990                 0.7851

                     31                     32                     33
                      A                      A                      A
 Frequencies --   1200.9161              1220.5949              1237.1917
 Red. masses --      1.4161                 1.4264                 1.9065
 Frc consts  --      1.2033                 1.2521                 1.7193
 IR Inten    --      9.9754                11.0745                34.3797

                     34                     35                     36
                      A                      A                      A
 Frequencies --   1255.2433              1275.0021              1289.6612
 Red. masses --      2.6097                 1.4305                 1.5842
 Frc consts  --      2.4227                 1.3701                 1.5524
 IR Inten    --     14.0191                 0.0632                20.8558

                     37                     38                     39
                      A                      A                      A
 Frequencies --   1369.9499              1432.1922              1472.8919
 Red. masses --      1.3638                 1.2285                 1.1148
 Frc consts  --      1.5080                 1.4847                 1.4250
 IR Inten    --      1.9898               120.6471                 1.4274

                     40                     41                     42
                      A                      A                      A
 Frequencies --   1479.3781              1530.9109              3027.5397
 Red. masses --      1.1865                 1.1195                 1.0826
 Frc consts  --      1.5300                 1.5458                 5.8464
 IR Inten    --     23.8960                 1.0602                36.9395

                     43                     44                     45
                      A                      A                      A
 Frequencies --   3029.9301              3041.6680              3074.0094
 Red. masses --      1.0611                 1.0603                 1.0904
 Frc consts  --      5.7394                 5.7798                 6.0706
 IR Inten    --     70.5845                54.0020                77.4731

                     46                     47                     48
                      A                      A                      A
 Frequencies --   3099.9208              3104.4922              3110.3699
 Red. masses --      1.0983                 1.1019                 1.0952
 Frc consts  --      6.2183                 6.2569                 6.2424
 IR Inten    --     10.2116                19.8119                26.1181

                     49                     50                     51
                      A                      A                      A
 Frequencies --   3131.6486              3799.4772              3823.0961
 Red. masses --      1.0872                 1.0657                 1.0648
 Frc consts  --      6.2820                 9.0639                 9.1697
 IR Inten    --     48.8071                13.1906                12.0950

 - Thermochemistry -
 -------------------
 Temperature   298.150 Kelvin.  Pressure   1.00000 Atm.
 Atom     1 has atomic number  8 and mass  15.99491

 Molecular mass:   126.06808 amu.
 Principal axes and moments of inertia in atomic units:
                           1         2         3
     Eigenvalues --   521.888961475.102881575.95444
           X            0.99988   0.01444  -0.00547
           Y           -0.01426   0.99941   0.03136
           Z            0.00592  -0.03128   0.99949
 This molecule is an asymmetric top.
 Rotational symmetry number  1.
 Warning -- assumption of classical behavior for rotation
           may cause significant error
 Rotational temperatures (Kelvin)      0.16596     0.05872     0.05496
 Rotational constants (GHZ):           3.45809     1.22347     1.14517
 Zero-point vibrational energy     417930.3 (Joules/Mol)
                                   99.88774 (Kcal/Mol)
 Warning -- explicit consideration of  11 degrees of freedom as
           vibrations may cause significant error
 Vibrational temperatures:    230.14   281.03   350.73   411.41   457.71
          (Kelvin)            509.03   589.15   624.05   710.62   780.48
                              888.72   953.73  1094.74  1144.60  1230.07
                             1247.78  1263.59  1312.75  1390.52  1410.07
                             1453.03  1490.57  1532.48  1551.99  1582.64
                             1613.74  1661.38  1695.77  1713.04  1724.08
                             1727.85  1756.16  1780.04  1806.01  1834.44
                             1855.53  1971.05  2060.60  2119.16  2128.49
                             2202.64  4355.95  4359.39  4376.28  4422.81
                             4460.09  4466.67  4475.12  4505.74  5466.59
                             5500.58

 Zero-point correction=                           0.159181 (Hartree/Particle)
 Thermal correction to Energy=                    0.167022
 Thermal correction to Enthalpy=                  0.167966
 Thermal correction to Gibbs Free Energy=         0.127387
 Sum of electronic and zero-point Energies=           -422.897923
 Sum of electronic and thermal Energies=              -422.890082
 Sum of electronic and thermal Enthalpies=            -422.889138
 Sum of electronic and thermal Free Energies=         -422.929717

                     E (Thermal)             CV                S
                      KCal/Mol        Cal/Mol-Kelvin    Cal/Mol-Kelvin
 Total                  104.808             32.093             85.406
 Electronic               0.000              0.000              0.000
 Translational            0.889              2.981             40.409
 Rotational               0.889              2.981             28.586
 Vibrational            103.030             26.132             16.412
 Vibration     1          0.622              1.891              2.550
 Vibration     2          0.636              1.846              2.177
 Vibration     3          0.659              1.773              1.775
 Vibration     4          0.684              1.700              1.498
 Vibration     5          0.705              1.639              1.320
 Vibration     6          0.730              1.567              1.149
 Vibration     7          0.774              1.450              0.928
 Vibration     8          0.794              1.397              0.847
 Vibration     9          0.850              1.264              0.674
 Vibration    10          0.898              1.156              0.560
 Vibration    11          0.977              0.995              0.420

 Optimization completed.
    -- Stationary point found.
 Normal termination of Gaussian 09 at Tue Jan 28 03:45:33 2020.
