 Gaussian 09, Revision D.01,
 Gaussian 09:  ES64L-G09RevD.01 24-Apr-2013

 -----------------------------
 # b3lyp 6-31G(2df,p) opt Freq
 -----------------------------

 -----
 titel
 -----
 Symbolic Z-matrix:
 Charge =  0 Multiplicity = 1

 SCF Done:  E(RB3LYP) =  -423.205065964     A.U. after   14 cycles
 Optimization completed.
    -- Stationary point found.
 Normal termination of Gaussian 09 at Tue Jan 28 03:54:51 2020.

 ----------------------------------------------------------------------
 #N Geom=AllCheck Guess=TCheck SCRF=Check GenChk RB3LYP/6-31G(2df,p) Fr
 eq
 ----------------------------------------------------------------------

 Structure from the checkpoint file:  "/scratch/puck/g09_8d953b1c-5800-44e2-b7c5-0c84d981ab76/Gau-116364.chk"
 -----
 titel
 -----
 Charge =  0 Multiplicity = 1

                         Standard orientation:
 ---------------------------------------------------------------------
 Center     Atomic      Atomic             Coordinates (Angstroms)
 Number     Number       Type             X           Y           Z
 ---------------------------------------------------------------------
      1          6           0       -2.690165   -0.249604   -0.623059
      2          6           0       -1.438309   -0.123974    0.254848
      3          6           0       -0.583198   -1.406122    0.189969
      4          6           0        0.857670   -1.211781    0.704871
      5          6           0        1.559598   -0.195379   -0.175625
      6          8           0        2.593229   -0.402186   -0.768936
      7          6           0        0.826586    1.108279   -0.320888
      8          8           0        0.245207    1.616321    0.890296
      9          6           0       -0.643753    1.128198   -0.105844
     10          1           0       -3.268239   -1.137606   -0.350151
     11          1           0       -3.343681    0.621999   -0.515360
     12          1           0       -2.421511   -0.340745   -1.681670
     13          1           0       -1.758116    0.023527    1.295338
     14          1           0       -1.076544   -2.203718    0.755317
     15          1           0       -0.537424   -1.750309   -0.852005
     16          1           0        0.839817   -0.840411    1.735854
     17          1           0        1.424879   -2.144388    0.675648
     18          1           0        1.304075    1.845440   -0.963264
     19          1           0       -1.201326    1.915428   -0.616217
 ---------------------------------------------------------------------

 SCF Done:  E(RB3LYP) =  -423.205065964     A.U. after    1 cycles

 The electronic state is 1-A.
 Alpha  occ. eigenvalues --  -19.16832 -19.13253 -10.26986 -10.25312 -10.24590
 Alpha  occ. eigenvalues --  -10.20664 -10.19988 -10.19229 -10.18967  -1.08962
 Alpha  occ. eigenvalues --   -1.04100  -0.82854  -0.76689  -0.70259  -0.67381
 Alpha  occ. eigenvalues --   -0.64271  -0.59712  -0.53259  -0.50969  -0.47844
 Alpha  occ. eigenvalues --   -0.47149  -0.44610  -0.43280  -0.42824  -0.41352
 Alpha  occ. eigenvalues --   -0.38966  -0.38402  -0.37814  -0.36518  -0.34315
 Alpha  occ. eigenvalues --   -0.33757  -0.30594  -0.28518  -0.24403
 Alpha virt. eigenvalues --   -0.02668   0.07079   0.10137   0.10404   0.11941
 Alpha virt. eigenvalues --    0.12692   0.13628   0.15366   0.15939   0.16117
 Alpha virt. eigenvalues --    0.17203   0.17715   0.17882   0.19701   0.22586

 Mulliken charges:
               1
     1  C   -0.412216
     2  C    0.006399
     3  C   -0.219784
     4  C   -0.329603
     5  C    0.404215
     6  O   -0.317395
     7  C   -0.072665
     8  O   -0.247887
     9  C    0.047954
    10  H    0.121885
    11  H    0.120266
    12  H    0.122962
    13  H    0.097640
    14  H    0.107744
    15  H    0.109678
    16  H    0.132884
    17  H    0.120383
    18  H    0.107212
    19  H    0.100329
 Sum of Mulliken charges =   0.00000

 Dipole moment (field-independent basis, Debye):
    X=             -3.1910    Y=             -0.5133    Z=             -0.0026  Tot=              3.2320
 Quadrupole moment (field-independent basis, Debye-Ang):
   XX=            -59.2370   YY=            -52.7072   ZZ=            -54.1515
   XY=              1.0655   XZ=              2.7952   YZ=             -3.9126

  Exact polarizability:  89.706  -2.141  73.217  -3.291  -3.237  63.068
 Approx polarizability: 126.931  -5.383 103.505 -11.584   1.502 104.172

                      1                      2                      3
                      A                      A                      A
 Frequencies --     70.2355               167.9324               218.3696
 Red. masses --      4.2348                 3.5408                 1.2873
 Frc consts  --      0.0123                 0.0588                 0.0362
 IR Inten    --      2.2361                 2.4078                 0.4069

                      4                      5                      6
                      A                      A                      A
 Frequencies --    257.6365               290.6476               307.1957
 Red. masses --      1.9623                 2.8635                 2.6293
 Frc consts  --      0.0767                 0.1425                 0.1462
 IR Inten    --      3.1880                 5.9853                 0.4859

                      7                      8                      9
                      A                      A                      A
 Frequencies --    407.9319               455.5721               478.7612
 Red. masses --      3.5437                 6.1313                 5.1494
 Frc consts  --      0.3474                 0.7497                 0.6954
 IR Inten    --      1.8401                 6.0578                10.7687

                     10                     11                     12
                      A                      A                      A
 Frequencies --    503.5597               562.4959               727.4385
 Red. masses --      2.5935                 3.1442                 3.3999
 Frc consts  --      0.3875                 0.5861                 1.0600
 IR Inten    --      0.5011                 4.6667                 2.3613

                     13                     14                     15
                      A                      A                      A
 Frequencies --    748.7212               789.1664               859.0745
 Red. masses --      2.7346                 2.3996                 2.5113
 Frc consts  --      0.9032                 0.8805                 1.0920
 IR Inten    --      6.5254                 8.7647                12.0866

                     16                     17                     18
                      A                      A                      A
 Frequencies --    885.2624               929.4540               946.7348
 Red. masses --      5.3407                 1.8135                 2.4730
 Frc consts  --      2.4660                 0.9230                 1.3060
 IR Inten    --     11.3608                 9.8523                 1.8597

                     19                     20                     21
                      A                      A                      A
 Frequencies --    975.9712              1018.6473              1041.0641
 Red. masses --      1.6501                 2.1045                 1.4151
 Frc consts  --      0.9260                 1.2866                 0.9036
 IR Inten    --      1.3044                 0.9250                12.8791

                     22                     23                     24
                      A                      A                      A
 Frequencies --   1066.4926              1097.1176              1129.1982
 Red. masses --      2.3554                 1.6394                 1.3477
 Frc consts  --      1.5785                 1.1626                 1.0125
 IR Inten    --      9.7408                 1.6241                 0.6964

                     25                     26                     27
                      A                      A                      A
 Frequencies --   1160.4075              1213.1351              1216.6856
 Red. masses --      1.8736                 1.5304                 1.7577
 Frc consts  --      1.4865                 1.3270                 1.5330
 IR Inten    --      4.3767                11.2516                 2.0042

                     28                     29                     30
                      A                      A                      A
 Frequencies --   1264.0186              1268.4617              1321.9211
 Red. masses --      1.7132                 1.3780                 1.2847
 Frc consts  --      1.6128                 1.3064                 1.3227
 IR Inten    --      8.2415                11.0936                 5.7009

                     31                     32                     33
                      A                      A                      A
 Frequencies --   1337.1109              1356.8601              1362.3384
 Red. masses --      1.4173                 1.6802                 1.4037
 Frc consts  --      1.4930                 1.8226                 1.5350
 IR Inten    --      1.3325                13.5027                 1.6390

                     34                     35                     36
                      A                      A                      A
 Frequencies --   1378.1689              1411.7906              1436.0295
 Red. masses --      1.6044                 1.3206                 2.2097
 Frc consts  --      1.7954                 1.5508                 2.6848
 IR Inten    --      1.9236                 0.0854                15.5177

                     37                     38                     39
                      A                      A                      A
 Frequencies --   1465.2819              1493.7614              1500.1807
 Red. masses --      1.1125                 1.0899                 1.0501
 Frc consts  --      1.4073                 1.4329                 1.3924
 IR Inten    --      7.5894                 1.2990                 7.3489

                     40                     41                     42
                      A                      A                      A
 Frequencies --   1500.8271              1814.1092              3012.5499
 Red. masses --      1.0605                11.4281                 1.0793
 Frc consts  --      1.4074                22.1590                 5.7714
 IR Inten    --      5.0423               198.0198                 4.6784

                     43                     44                     45
                      A                      A                      A
 Frequencies --   3022.6200              3032.0042              3049.1863
 Red. masses --      1.0663                 1.0373                 1.0627
 Frc consts  --      5.7397                 5.6186                 5.8214
 IR Inten    --     22.5542                27.1791                 7.7787

                     46                     47                     48
                      A                      A                      A
 Frequencies --   3073.6193              3094.8716              3099.6920
 Red. masses --      1.0972                 1.0882                 1.1005
 Frc consts  --      6.1072                 6.1411                 6.2298
 IR Inten    --     25.7146                21.0053                33.6033

                     49                     50                     51
                      A                      A                      A
 Frequencies --   3108.7101              3118.8561              3143.9782
 Red. masses --      1.1012                 1.1014                 1.0908
 Frc consts  --      6.2701                 6.3120                 6.3526
 IR Inten    --     26.8897                12.5456                19.3622

 - Thermochemistry -
 -------------------
 Temperature   298.150 Kelvin.  Pressure   1.00000 Atm.
 Atom     1 has atomic number  6 and mass  12.00000

 Molecular mass:   126.06808 amu.
 Principal axes and moments of inertia in atomic units:
                           1         2         3
     Eigenvalues --   663.679261284.228161617.07603
           X            0.99962   0.01564   0.02268
           Y           -0.01435   0.99831  -0.05624
           Z           -0.02352   0.05589   0.99816
 This molecule is an asymmetric top.
 Rotational symmetry number  1.
 Warning -- assumption of classical behavior for rotation
           may cause significant error
 Rotational temperatures (Kelvin)      0.13051     0.06744     0.05356
 Rotational constants (GHZ):           2.71930     1.40531     1.11605
 Zero-point vibrational energy     419840.5 (Joules/Mol)
                                  100.34430 (Kcal/Mol)
 Warning -- explicit consideration of  11 degrees of freedom as
           vibrations may cause significant error
 Vibrational temperatures:    101.05   241.62   314.18   370.68   418.18
          (Kelvin)            441.99   586.92   655.47   688.83   724.51
                              809.31  1046.62  1077.24  1135.43  1236.02
                             1273.69  1337.28  1362.14  1404.20  1465.60
                             1497.86  1534.44  1578.51  1624.66  1669.57
                             1745.43  1750.54  1818.64  1825.03  1901.95
                             1923.80  1952.22  1960.10  1982.88  2031.25
                             2066.12  2108.21  2149.19  2158.42  2159.35
                             2610.10  4334.38  4348.87  4362.37  4387.09
                             4422.25  4452.82  4459.76  4472.73  4487.33
                             4523.48

 Zero-point correction=                           0.159909 (Hartree/Particle)
 Thermal correction to Energy=                    0.168035
 Thermal correction to Enthalpy=                  0.168979
 Thermal correction to Gibbs Free Energy=         0.127187
 Sum of electronic and zero-point Energies=           -423.045157
 Sum of electronic and thermal Energies=              -423.037031
 Sum of electronic and thermal Enthalpies=            -423.036087
 Sum of electronic and thermal Free Energies=         -423.077879

                     E (Thermal)             CV                S
                      KCal/Mol        Cal/Mol-Kelvin    Cal/Mol-Kelvin
 Total                  105.443             31.398             87.960
 Electronic               0.000              0.000              0.000
 Translational            0.889              2.981             40.409
 Rotational               0.889              2.981             28.712
 Vibrational            103.666             25.437             18.839
 Vibration     1          0.598              1.968              4.147
 Vibration     2          0.625              1.882              2.459
 Vibration     3          0.646              1.813              1.973
 Vibration     4          0.667              1.750              1.678
 Vibration     5          0.687              1.691              1.470
 Vibration     6          0.697              1.660              1.377
 Vibration     7          0.773              1.453              0.934
 Vibration     8          0.814              1.349              0.779
 Vibration     9          0.835              1.297              0.713
 Vibration    10          0.859              1.242              0.649
 Vibration    11          0.918              1.112              0.519

 Optimization completed.
    -- Stationary point found.
 Normal termination of Gaussian 09 at Tue Jan 28 04:36:21 2020.
