 Gaussian 09, Revision D.01,
 Gaussian 09:  ES64L-G09RevD.01 24-Apr-2013

 -----------------------------
 # b3lyp 6-31G(2df,p) opt Freq
 -----------------------------

 -----
 titel
 -----
 Symbolic Z-matrix:
 Charge =  0 Multiplicity = 1

 SCF Done:  E(RB3LYP) =  -423.167615529     A.U. after   13 cycles
 Optimization completed.
    -- Stationary point found.
 Normal termination of Gaussian 09 at Tue Jan 28 12:40:40 2020.

 ----------------------------------------------------------------------
 #N Geom=AllCheck Guess=TCheck SCRF=Check GenChk RB3LYP/6-31G(2df,p) Fr
 eq
 ----------------------------------------------------------------------

 Structure from the checkpoint file:  "/scratch/puck/g09_1db05e91-bcbc-40a0-b587-7d7c0ed6c276/Gau-30086.chk"
 -----
 titel
 -----
 Charge =  0 Multiplicity = 1

                         Standard orientation:
 ---------------------------------------------------------------------
 Center     Atomic      Atomic             Coordinates (Angstroms)
 Number     Number       Type             X           Y           Z
 ---------------------------------------------------------------------
      1          8           0        2.840697   -0.453657   -0.465217
      2          6           0        2.135871    0.324556    0.499061
      3          6           0        0.661002    0.344552    0.234312
      4          6           0       -0.071922    1.446091    0.050607
      5          6           0       -1.556880    1.309323   -0.213979
      6          6           0       -1.928187   -0.181844   -0.199557
      7          6           0       -1.351829   -0.913235    1.033782
      8          6           0       -0.101310   -0.968368    0.125853
      9          8           0       -0.978359   -0.897071   -1.042363
     10          1           0        2.606059   -0.109760   -1.334083
     11          1           0        2.354609   -0.156598    1.460952
     12          1           0        2.522574    1.353845    0.554604
     13          1           0        0.369010    2.439778    0.080831
     14          1           0       -2.142487    1.858154    0.536360
     15          1           0       -1.813523    1.747502   -1.187535
     16          1           0       -2.964903   -0.366886   -0.492853
     17          1           0       -1.281276   -0.382707    1.985372
     18          1           0       -1.810660   -1.894567    1.165103
     19          1           0        0.541423   -1.849394    0.111415
 ---------------------------------------------------------------------

 SCF Done:  E(RB3LYP) =  -423.167615529     A.U. after    1 cycles

 The electronic state is 1-A.
 Alpha  occ. eigenvalues --  -19.13605 -19.12690 -10.23647 -10.23342 -10.23110
 Alpha  occ. eigenvalues --  -10.19024 -10.18750 -10.18650 -10.18378  -1.03747
 Alpha  occ. eigenvalues --   -1.01533  -0.81396  -0.75398  -0.73047  -0.67482
 Alpha  occ. eigenvalues --   -0.61964  -0.58400  -0.52477  -0.50435  -0.49058
 Alpha  occ. eigenvalues --   -0.45035  -0.44358  -0.44050  -0.42279  -0.40413
 Alpha  occ. eigenvalues --   -0.39919  -0.38657  -0.35367  -0.33476  -0.31479
 Alpha  occ. eigenvalues --   -0.30710  -0.27784  -0.24526  -0.23580
 Alpha virt. eigenvalues --    0.00007   0.09045   0.09549   0.11393   0.12363
 Alpha virt. eigenvalues --    0.12764   0.13937   0.15248   0.16333   0.16655
 Alpha virt. eigenvalues --    0.17633   0.18252   0.19172   0.20041   0.22316

 Mulliken charges:
               1
     1  O   -0.411163
     2  C   -0.183329
     3  C    0.320922
     4  C   -0.179311
     5  C   -0.259667
     6  C    0.090622
     7  C   -0.244220
     8  C   -0.010015
     9  O   -0.297703
    10  H    0.285822
    11  H    0.112732
    12  H    0.091222
    13  H    0.088449
    14  H    0.107438
    15  H    0.116313
    16  H    0.075668
    17  H    0.098711
    18  H    0.108671
    19  H    0.088839
 Sum of Mulliken charges =   0.00000

 Dipole moment (field-independent basis, Debye):
    X=             -1.1577    Y=              1.6644    Z=              1.0941  Tot=              2.3038
 Quadrupole moment (field-independent basis, Debye-Ang):
   XX=            -55.0420   YY=            -52.2860   ZZ=            -52.7906
   XY=              1.6319   XZ=             -1.8825   YZ=             -2.6472

  Exact polarizability:  88.747  -5.170  78.605   2.316  -2.750  62.221
 Approx polarizability: 120.248 -16.221 122.026   3.885  -1.984  98.620

                      1                      2                      3
                      A                      A                      A
 Frequencies --     85.8429               121.0498               235.4875
 Red. masses --      3.7319                 3.8745                 2.8658
 Frc consts  --      0.0162                 0.0334                 0.0936
 IR Inten    --      2.7478                 0.3992                 5.6862

                      4                      5                      6
                      A                      A                      A
 Frequencies --    313.5520               329.6515               371.3705
 Red. masses --      1.9009                 2.0478                 1.5607
 Frc consts  --      0.1101                 0.1311                 0.1268
 IR Inten    --      2.8937                29.4279                41.6291

                      7                      8                      9
                      A                      A                      A
 Frequencies --    409.1282               448.1347               516.8069
 Red. masses --      2.2493                 3.5266                 4.7238
 Frc consts  --      0.2218                 0.4173                 0.7434
 IR Inten    --     51.7295                 2.3337                16.1458

                     10                     11                     12
                      A                      A                      A
 Frequencies --    638.9985               676.4759               780.7943
 Red. masses --      4.4530                 3.4321                 3.0454
 Frc consts  --      1.0713                 0.9254                 1.0939
 IR Inten    --      2.2156                 2.2735                 1.6377

                     13                     14                     15
                      A                      A                      A
 Frequencies --    826.6153               834.5185               871.0132
 Red. masses --      1.7612                 1.8738                 2.2520
 Frc consts  --      0.7090                 0.7689                 1.0066
 IR Inten    --      2.1970                 6.3909                36.5441

                     16                     17                     18
                      A                      A                      A
 Frequencies --    900.1115               942.2249               946.7571
 Red. masses --      3.1250                 1.7582                 4.1513
 Frc consts  --      1.4917                 0.9197                 2.1923
 IR Inten    --     20.6461                 0.3379                37.5369

                     19                     20                     21
                      A                      A                      A
 Frequencies --    960.5565               982.8077              1015.5782
 Red. masses --      3.5069                 1.8754                 2.0163
 Frc consts  --      1.9064                 1.0673                 1.2252
 IR Inten    --     18.3059                15.2099                37.9871

                     22                     23                     24
                      A                      A                      A
 Frequencies --   1050.0147              1073.6273              1086.6174
 Red. masses --      3.1066                 1.9293                 1.9050
 Frc consts  --      2.0180                 1.3102                 1.3253
 IR Inten    --     28.6409                17.4860                 7.6427

                     25                     26                     27
                      A                      A                      A
 Frequencies --   1112.5960              1173.1394              1185.7841
 Red. masses --      1.5960                 1.1410                 2.4124
 Frc consts  --      1.1640                 0.9252                 1.9985
 IR Inten    --      3.0408                 5.6043                12.4845

                     28                     29                     30
                      A                      A                      A
 Frequencies --   1199.5759              1225.0683              1253.4215
 Red. masses --      1.1033                 1.5390                 1.3312
 Frc consts  --      0.9354                 1.3608                 1.2322
 IR Inten    --      7.7885                 6.1491                 2.4856

                     31                     32                     33
                      A                      A                      A
 Frequencies --   1285.4561              1326.6322              1337.6911
 Red. masses --      1.3701                 1.6411                 1.4740
 Frc consts  --      1.3339                 1.7017                 1.5540
 IR Inten    --      3.5805                 2.5790                 0.3085

                     34                     35                     36
                      A                      A                      A
 Frequencies --   1350.9418              1369.5999              1383.6183
 Red. masses --      1.6291                 1.4769                 1.5114
 Frc consts  --      1.7518                 1.6322                 1.7047
 IR Inten    --      8.3213                 2.0091                 1.5311

                     37                     38                     39
                      A                      A                      A
 Frequencies --   1419.0793              1464.2402              1485.2274
 Red. masses --      1.2445                 1.0960                 1.1254
 Frc consts  --      1.4765                 1.3845                 1.4627
 IR Inten    --     74.6334                 3.1014                 1.9725

                     40                     41                     42
                      A                      A                      A
 Frequencies --   1498.3836              1721.4606              2984.7961
 Red. masses --      1.0885                 7.1668                 1.0657
 Frc consts  --      1.4399                12.5133                 5.5940
 IR Inten    --      1.0330                 3.9841                59.5983

                     43                     44                     45
                      A                      A                      A
 Frequencies --   3013.4809              3042.9144              3043.5378
 Red. masses --      1.0596                 1.0959                 1.1012
 Frc consts  --      5.6694                 5.9787                 6.0099
 IR Inten    --     30.3338                27.5839                16.2642

                     46                     47                     48
                      A                      A                      A
 Frequencies --   3068.6900              3078.7274              3111.2089
 Red. masses --      1.0636                 1.0818                 1.0898
 Frc consts  --      5.9013                 6.0413                 6.2154
 IR Inten    --     33.2369                62.7039                25.3511

                     49                     50                     51
                      A                      A                      A
 Frequencies --   3136.0776              3153.1275              3806.0138
 Red. masses --      1.1098                 1.0909                 1.0662
 Frc consts  --      6.4307                 6.3905                 9.0998
 IR Inten    --     26.6410                20.6081                17.6156

 - Thermochemistry -
 -------------------
 Temperature   298.150 Kelvin.  Pressure   1.00000 Atm.
 Atom     1 has atomic number  8 and mass  15.99491

 Molecular mass:   126.06808 amu.
 Principal axes and moments of inertia in atomic units:
                           1         2         3
     Eigenvalues --   564.135031396.648131604.41008
           X            0.99999   0.00187  -0.00272
           Y           -0.00202   0.99856  -0.05365
           Z            0.00261   0.05365   0.99856
 This molecule is an asymmetric top.
 Rotational symmetry number  1.
 Warning -- assumption of classical behavior for rotation
           may cause significant error
 Rotational temperatures (Kelvin)      0.15353     0.06202     0.05398
 Rotational constants (GHZ):           3.19913     1.29219     1.12486
 Zero-point vibrational energy     422570.2 (Joules/Mol)
                                  100.99671 (Kcal/Mol)
 Warning -- explicit consideration of   9 degrees of freedom as
           vibrations may cause significant error
 Vibrational temperatures:    123.51   174.16   338.81   451.13   474.29
          (Kelvin)            534.32   588.64   644.77   743.57   919.38
                              973.30  1123.39  1189.31  1200.68  1253.19
                             1295.06  1355.65  1362.17  1382.02  1414.04
                             1461.19  1510.74  1544.71  1563.40  1600.78
                             1687.88  1706.08  1725.92  1762.60  1803.39
                             1849.48  1908.73  1924.64  1943.70  1970.55
                             1990.72  2041.74  2106.71  2136.91  2155.84
                             2476.79  4294.45  4335.72  4378.07  4378.97
                             4415.15  4429.60  4476.33  4512.11  4536.64
                             5476.00

 Zero-point correction=                           0.160948 (Hartree/Particle)
 Thermal correction to Energy=                    0.168730
 Thermal correction to Enthalpy=                  0.169674
 Thermal correction to Gibbs Free Energy=         0.128552
 Sum of electronic and zero-point Energies=           -423.006667
 Sum of electronic and thermal Energies=              -422.998886
 Sum of electronic and thermal Enthalpies=            -422.997942
 Sum of electronic and thermal Free Energies=         -423.039063

                     E (Thermal)             CV                S
                      KCal/Mol        Cal/Mol-Kelvin    Cal/Mol-Kelvin
 Total                  105.880             30.621             86.548
 Electronic               0.000              0.000              0.000
 Translational            0.889              2.981             40.409
 Rotational               0.889              2.981             28.626
 Vibrational            104.102             24.659             17.513
 Vibration     1          0.601              1.959              3.753
 Vibration     2          0.609              1.932              3.084
 Vibration     3          0.655              1.786              1.837
 Vibration     4          0.701              1.648              1.344
 Vibration     5          0.712              1.616              1.262
 Vibration     6          0.743              1.531              1.074
 Vibration     7          0.773              1.450              0.930
 Vibration     8          0.807              1.365              0.801
 Vibration     9          0.872              1.213              0.617

 Optimization completed.
    -- Stationary point found.
 Normal termination of Gaussian 09 at Tue Jan 28 13:25:05 2020.
