 Gaussian 09, Revision D.01,
 Gaussian 09:  ES64L-G09RevD.01 24-Apr-2013

 -----------------------------
 # b3lyp 6-31G(2df,p) opt Freq
 -----------------------------

 -----
 titel
 -----
 Symbolic Z-matrix:
 Charge =  0 Multiplicity = 1

 SCF Done:  E(RB3LYP) =  -423.181866692     A.U. after   14 cycles
 Optimization completed.
    -- Stationary point found.
 Normal termination of Gaussian 09 at Mon Jan 27 14:03:20 2020.

 ----------------------------------------------------------------------
 #N Geom=AllCheck Guess=TCheck SCRF=Check GenChk RB3LYP/6-31G(2df,p) Fr
 eq
 ----------------------------------------------------------------------

 Structure from the checkpoint file:  "/scratch/puck/g09_604ecd10-f8d0-4bb8-a9f1-cb0cd05b64a3/Gau-23708.chk"
 -----
 titel
 -----
 Charge =  0 Multiplicity = 1

                         Standard orientation:
 ---------------------------------------------------------------------
 Center     Atomic      Atomic             Coordinates (Angstroms)
 Number     Number       Type             X           Y           Z
 ---------------------------------------------------------------------
      1          6           0       -2.342012   -1.051234    0.296347
      2          6           0       -1.553200    0.191920   -0.077603
      3          8           0       -2.098547    1.229554   -0.381569
      4          6           0       -0.052805    0.083571   -0.035447
      5          6           0        0.729776    0.040857    1.334323
      6          6           0        1.892395    0.408384    0.383463
      7          6           0        0.884798    1.269910   -0.412234
      8          8           0        2.038776   -0.770829   -0.427864
      9          6           0        0.667695   -1.072243   -0.760443
     10          1           0       -1.958422   -1.501471    1.217966
     11          1           0       -3.396003   -0.796265    0.412752
     12          1           0       -2.242288   -1.805872   -0.493150
     13          1           0        0.433270    0.850192    2.002910
     14          1           0        0.795977   -0.912672    1.863417
     15          1           0        2.870632    0.748311    0.717719
     16          1           0        0.593229    2.194964    0.084583
     17          1           0        1.098208    1.440398   -1.469284
     18          1           0        0.526817   -1.048571   -1.847382
     19          1           0        0.396863   -2.065804   -0.384508
 ---------------------------------------------------------------------

 SCF Done:  E(RB3LYP) =  -423.181866692     A.U. after    1 cycles

 The electronic state is 1-A.
 Alpha  occ. eigenvalues --  -19.14013 -19.13133 -10.27310 -10.24299 -10.23709
 Alpha  occ. eigenvalues --  -10.21237 -10.19917 -10.19315 -10.18824  -1.04798
 Alpha  occ. eigenvalues --   -1.04015  -0.84681  -0.76132  -0.72357  -0.67559
 Alpha  occ. eigenvalues --   -0.61934  -0.57766  -0.55018  -0.49266  -0.48414
 Alpha  occ. eigenvalues --   -0.47266  -0.44473  -0.43418  -0.42053  -0.40789
 Alpha  occ. eigenvalues --   -0.39223  -0.37369  -0.36680  -0.36346  -0.35765
 Alpha  occ. eigenvalues --   -0.32378  -0.30855  -0.25063  -0.24429
 Alpha virt. eigenvalues --   -0.02001   0.07286   0.09341   0.11507   0.12404
 Alpha virt. eigenvalues --    0.13237   0.13465   0.14688   0.15445   0.16620
 Alpha virt. eigenvalues --    0.17857   0.18964   0.19595   0.19817   0.21181

 Mulliken charges:
               1
     1  C   -0.492091
     2  C    0.256471
     3  O   -0.292740
     4  C    0.205608
     5  C   -0.273743
     6  C    0.094507
     7  C   -0.269054
     8  O   -0.276827
     9  C   -0.124304
    10  H    0.138203
    11  H    0.144367
    12  H    0.145966
    13  H    0.115895
    14  H    0.104599
    15  H    0.086185
    16  H    0.117840
    17  H    0.106710
    18  H    0.110050
    19  H    0.102359
 Sum of Mulliken charges =   0.00000

 Dipole moment (field-independent basis, Debye):
    X=              0.0788    Y=             -1.3558    Z=              1.1623  Tot=              1.7875
 Quadrupole moment (field-independent basis, Debye-Ang):
   XX=            -59.3256   YY=            -54.3235   ZZ=            -51.2590
   XY=              8.4049   XZ=              0.3061   YZ=              1.3037

  Exact polarizability:  82.323   2.616  75.820   1.632  -0.912  67.269
 Approx polarizability: 113.738  -5.082 118.630   4.003  -2.986 102.911

                      1                      2                      3
                      A                      A                      A
 Frequencies --     42.2022               127.5209               168.7442
 Red. masses --      3.7638                 1.0980                 3.3358
 Frc consts  --      0.0039                 0.0105                 0.0560
 IR Inten    --      3.6033                 0.3194                 3.2982

                      4                      5                      6
                      A                      A                      A
 Frequencies --    175.7515               327.8207               360.3264
 Red. masses --      3.5364                 2.6726                 3.4086
 Frc consts  --      0.0644                 0.1692                 0.2607
 IR Inten    --      5.0639                 4.5063                 2.1946

                      7                      8                      9
                      A                      A                      A
 Frequencies --    437.7074               481.1085               520.4408
 Red. masses --      3.3309                 2.2956                 2.0474
 Frc consts  --      0.3760                 0.3131                 0.3267
 IR Inten    --      1.4158                 1.5034                 0.2417

                     10                     11                     12
                      A                      A                      A
 Frequencies --    591.1032               611.0008               673.9874
 Red. masses --      2.4649                 3.5899                 3.3909
 Frc consts  --      0.5074                 0.7896                 0.9076
 IR Inten    --      0.0675                16.7103                 0.7113

                     13                     14                     15
                      A                      A                      A
 Frequencies --    824.8587               855.0593               885.4163
 Red. masses --      2.3885                 4.0247                 2.4496
 Frc consts  --      0.9575                 1.7337                 1.1315
 IR Inten    --      2.2834                 8.2199                 2.7352

                     16                     17                     18
                      A                      A                      A
 Frequencies --    903.0138               932.7151               955.2758
 Red. masses --      3.1221                 2.4736                 1.4970
 Frc consts  --      1.5000                 1.2679                 0.8049
 IR Inten    --     26.5396                29.2144                 1.2391

                     19                     20                     21
                      A                      A                      A
 Frequencies --    961.2806               989.8302              1008.7779
 Red. masses --      1.9391                 3.8892                 2.1889
 Frc consts  --      1.0557                 2.2451                 1.3124
 IR Inten    --      5.5803                31.0473                13.4755

                     22                     23                     24
                      A                      A                      A
 Frequencies --   1021.9965              1045.7217              1094.2802
 Red. masses --      1.2574                 1.8170                 2.0509
 Frc consts  --      0.7738                 1.1707                 1.4470
 IR Inten    --      4.2277                 5.1470                18.1398

                     25                     26                     27
                      A                      A                      A
 Frequencies --   1119.1050              1130.0910              1171.4789
 Red. masses --      1.6494                 2.1226                 1.5532
 Frc consts  --      1.2171                 1.5972                 1.2559
 IR Inten    --      7.3562                 5.3551                 0.2455

                     28                     29                     30
                      A                      A                      A
 Frequencies --   1203.6594              1211.6269              1234.7950
 Red. masses --      1.4008                 1.5809                 1.6821
 Frc consts  --      1.1957                 1.3674                 1.5111
 IR Inten    --     12.5545                 3.9056                 1.1685

                     31                     32                     33
                      A                      A                      A
 Frequencies --   1239.3182              1285.0364              1316.8157
 Red. masses --      1.6558                 1.5750                 2.3602
 Frc consts  --      1.4984                 1.5324                 2.4113
 IR Inten    --     24.8078                43.5041                16.5168

                     34                     35                     36
                      A                      A                      A
 Frequencies --   1370.7270              1386.6218              1462.3666
 Red. masses --      1.4601                 1.4947                 1.0536
 Frc consts  --      1.6164                 1.6932                 1.3275
 IR Inten    --      8.8248                47.7667                 9.0885

                     37                     38                     39
                      A                      A                      A
 Frequencies --   1474.4276              1475.7368              1505.5616
 Red. masses --      1.0925                 1.0584                 1.1291
 Frc consts  --      1.3994                 1.3581                 1.5079
 IR Inten    --      0.8605                 9.9889                 5.2617

                     40                     41                     42
                      A                      A                      A
 Frequencies --   1531.6379              1799.7624              3022.2535
 Red. masses --      1.1040                11.2747                 1.0550
 Frc consts  --      1.5259                21.5171                 5.6777
 IR Inten    --      1.0330               153.2521                51.1897

                     43                     44                     45
                      A                      A                      A
 Frequencies --   3035.1938              3064.1772              3070.2873
 Red. masses --      1.0380                 1.1078                 1.0588
 Frc consts  --      5.6343                 6.1285                 5.8807
 IR Inten    --      3.7895                17.0708                41.3724

                     46                     47                     48
                      A                      A                      A
 Frequencies --   3082.8803              3096.8266              3142.0919
 Red. masses --      1.0590                 1.0970                 1.1098
 Frc consts  --      5.9301                 6.1988                 6.4556
 IR Inten    --     12.8635                 7.3574                13.8397

                     49                     50                     51
                      A                      A                      A
 Frequencies --   3145.6390              3151.9121              3155.4904
 Red. masses --      1.0933                 1.1019                 1.1076
 Frc consts  --      6.3739                 6.4500                 6.4976
 IR Inten    --     40.4787                 9.7566                19.8703

 - Thermochemistry -
 -------------------
 Temperature   298.150 Kelvin.  Pressure   1.00000 Atm.
 Atom     1 has atomic number  6 and mass  12.00000

 Molecular mass:   126.06808 amu.
 Principal axes and moments of inertia in atomic units:
                           1         2         3
     Eigenvalues --   559.716611365.871231538.38960
           X            0.99836   0.05720  -0.00356
           Y           -0.05721   0.99836  -0.00044
           Z            0.00353   0.00064   0.99999
 This molecule is an asymmetric top.
 Rotational symmetry number  1.
 Warning -- assumption of classical behavior for rotation
           may cause significant error
 Rotational temperatures (Kelvin)      0.15475     0.06341     0.05630
 Rotational constants (GHZ):           3.22438     1.32131     1.17314
 Zero-point vibrational energy     417984.0 (Joules/Mol)
                                   99.90056 (Kcal/Mol)
 Warning -- explicit consideration of  11 degrees of freedom as
           vibrations may cause significant error
 Vibrational temperatures:     60.72   183.47   242.78   252.87   471.66
          (Kelvin)            518.43   629.76   692.21   748.80   850.46
                              879.09   969.72  1186.79  1230.24  1273.91
                             1299.23  1341.97  1374.43  1383.07  1424.14
                             1451.40  1470.42  1504.56  1574.42  1610.14
                             1625.95  1685.49  1731.80  1743.26  1776.59
                             1783.10  1848.88  1894.60  1972.17  1995.04
                             2104.02  2121.37  2123.25  2166.16  2203.68
                             2589.45  4348.34  4366.96  4408.66  4417.45
                             4435.57  4455.64  4520.76  4525.87  4534.89
                             4540.04

 Zero-point correction=                           0.159202 (Hartree/Particle)
 Thermal correction to Energy=                    0.167417
 Thermal correction to Enthalpy=                  0.168361
 Thermal correction to Gibbs Free Energy=         0.125805
 Sum of electronic and zero-point Energies=           -423.022665
 Sum of electronic and thermal Energies=              -423.014450
 Sum of electronic and thermal Enthalpies=            -423.013506
 Sum of electronic and thermal Free Energies=         -423.056062

                     E (Thermal)             CV                S
                      KCal/Mol        Cal/Mol-Kelvin    Cal/Mol-Kelvin
 Total                  105.056             31.288             89.567
 Electronic               0.000              0.000              0.000
 Translational            0.889              2.981             40.409
 Rotational               0.889              2.981             28.555
 Vibrational            103.278             25.326             20.604
 Vibration     1          0.595              1.980              5.153
 Vibration     2          0.611              1.926              2.983
 Vibration     3          0.625              1.881              2.449
 Vibration     4          0.628              1.872              2.373
 Vibration     5          0.711              1.620              1.271
 Vibration     6          0.735              1.554              1.121
 Vibration     7          0.798              1.388              0.834
 Vibration     8          0.837              1.292              0.707
 Vibration     9          0.875              1.205              0.609
 Vibration    10          0.949              1.051              0.465
 Vibration    11          0.970              1.009              0.431

 Optimization completed.
    -- Stationary point found.
 Normal termination of Gaussian 09 at Mon Jan 27 14:50:04 2020.
