 Gaussian 09, Revision D.01,
 Gaussian 09:  ES64L-G09RevD.01 24-Apr-2013

 -----------------------------
 # b3lyp 6-31G(2df,p) opt Freq
 -----------------------------

 -----
 titel
 -----
 Symbolic Z-matrix:
 Charge =  0 Multiplicity = 1

 SCF Done:  E(RB3LYP) =  -423.128820445     A.U. after   13 cycles
 Optimization completed.
    -- Stationary point found.
 Normal termination of Gaussian 09 at Tue Jan 28 01:55:36 2020.

 ----------------------------------------------------------------------
 #N Geom=AllCheck Guess=TCheck SCRF=Check GenChk RB3LYP/6-31G(2df,p) Fr
 eq
 ----------------------------------------------------------------------

 Structure from the checkpoint file:  "/scratch/puck/g09_77aade7a-af8a-446a-8149-f6a9dbed388e/Gau-57402.chk"
 -----
 titel
 -----
 Charge =  0 Multiplicity = 1

                         Standard orientation:
 ---------------------------------------------------------------------
 Center     Atomic      Atomic             Coordinates (Angstroms)
 Number     Number       Type             X           Y           Z
 ---------------------------------------------------------------------
      1          6           0        2.857857   -0.197289   -0.524956
      2          6           0        1.492458   -0.738338   -0.192551
      3          8           0        1.049820   -0.600171    1.177060
      4          6           0        0.367481    0.119749    0.173643
      5          6           0        0.181768    1.635370    0.137304
      6          8           0       -1.211725    1.459618   -0.221961
      7          6           0       -1.112620    0.036536   -0.098607
      8          6           0       -2.139844   -0.797099    0.591276
      9          6           0       -1.926085   -0.911996   -0.912127
     10          1           0        2.980623   -0.113266   -1.610176
     11          1           0        3.008516    0.789485   -0.079050
     12          1           0        3.639090   -0.865569   -0.148807
     13          1           0        1.258016   -1.713806   -0.622755
     14          1           0        0.301069    2.127138    1.109628
     15          1           0        0.736371    2.185326   -0.631169
     16          1           0       -1.787039   -1.597283    1.233500
     17          1           0       -3.037439   -0.291797    0.930457
     18          1           0       -1.448693   -1.802104   -1.309545
     19          1           0       -2.681367   -0.475307   -1.556758
 ---------------------------------------------------------------------

 SCF Done:  E(RB3LYP) =  -423.128820445     A.U. after    1 cycles

 The electronic state is 1-A.
 Alpha  occ. eigenvalues --  -19.15496 -19.14030 -10.24596 -10.24379 -10.24069
 Alpha  occ. eigenvalues --  -10.23426 -10.19027 -10.18814 -10.18509  -1.08018
 Alpha  occ. eigenvalues --   -1.04222  -0.84983  -0.75321  -0.71749  -0.64903
 Alpha  occ. eigenvalues --   -0.61638  -0.60296  -0.53159  -0.51805  -0.49783
 Alpha  occ. eigenvalues --   -0.47201  -0.45853  -0.43392  -0.42732  -0.40681
 Alpha  occ. eigenvalues --   -0.38537  -0.37175  -0.36722  -0.35236  -0.32962
 Alpha  occ. eigenvalues --   -0.30345  -0.29671  -0.26488  -0.23189
 Alpha virt. eigenvalues --    0.07114   0.08276   0.09495   0.10065   0.12145
 Alpha virt. eigenvalues --    0.12757   0.13897   0.14382   0.15188   0.16386
 Alpha virt. eigenvalues --    0.17458   0.17734   0.19588   0.22057   0.22625

 Mulliken charges:
               1
     1  C   -0.419382
     2  C   -0.017847
     3  O   -0.285325
     4  C    0.269941
     5  C   -0.159159
     6  O   -0.318789
     7  C    0.389367
     8  C   -0.327351
     9  C   -0.344025
    10  H    0.127146
    11  H    0.128446
    12  H    0.134060
    13  H    0.094125
    14  H    0.118202
    15  H    0.110691
    16  H    0.128573
    17  H    0.126973
    18  H    0.116193
    19  H    0.128160
 Sum of Mulliken charges =   0.00000

 Dipole moment (field-independent basis, Debye):
    X=              1.1946    Y=             -0.5964    Z=             -1.2779  Tot=              1.8482
 Quadrupole moment (field-independent basis, Debye-Ang):
   XX=            -50.9535   YY=            -52.7945   ZZ=            -54.7142
   XY=              2.6096   XZ=             -2.7526   YZ=              2.3695

  Exact polarizability:  89.192   2.699  73.754  -2.402   2.449  65.790
 Approx polarizability: 111.821  -0.186 107.406  -1.391   1.473 103.673

                      1                      2                      3
                      A                      A                      A
 Frequencies --     86.5884               130.8459               161.0590
 Red. masses --      3.4369                 2.8407                 2.8742
 Frc consts  --      0.0152                 0.0287                 0.0439
 IR Inten    --      2.7970                 0.7896                 1.2194

                      4                      5                      6
                      A                      A                      A
 Frequencies --    190.2609               233.3653               258.4177
 Red. masses --      1.1019                 2.7193                 2.4120
 Frc consts  --      0.0235                 0.0873                 0.0949
 IR Inten    --      0.4325                 0.2915                 0.1465

                      7                      8                      9
                      A                      A                      A
 Frequencies --    369.9431               429.3539               461.0339
 Red. masses --      2.8461                 3.3462                 2.8900
 Frc consts  --      0.2295                 0.3634                 0.3619
 IR Inten    --      2.9448                11.3104                 0.5534

                     10                     11                     12
                      A                      A                      A
 Frequencies --    532.7396               565.4295               625.4064
 Red. masses --      3.3916                 5.3492                 3.8164
 Frc consts  --      0.5671                 1.0076                 0.8795
 IR Inten    --      2.5336                 4.1962                 2.8237

                     13                     14                     15
                      A                      A                      A
 Frequencies --    756.2299               794.5390               864.8337
 Red. masses --      1.0694                 2.6222                 2.9398
 Frc consts  --      0.3603                 0.9753                 1.2955
 IR Inten    --      0.9200                 7.4437                19.9258

                     16                     17                     18
                      A                      A                      A
 Frequencies --    871.6230               893.0882               950.7746
 Red. masses --      1.4369                 2.0496                 2.7277
 Frc consts  --      0.6432                 0.9632                 1.4528
 IR Inten    --      8.1873                19.0154                22.0666

                     19                     20                     21
                      A                      A                      A
 Frequencies --    967.5021               978.2174              1001.7288
 Red. masses --      1.8687                 2.4960                 5.0733
 Frc consts  --      1.0306                 1.4072                 2.9994
 IR Inten    --     13.5053                 5.6507                61.4400

                     22                     23                     24
                      A                      A                      A
 Frequencies --   1040.7879              1048.7339              1063.3352
 Red. masses --      2.7961                 1.6190                 1.4761
 Frc consts  --      1.7845                 1.0491                 0.9833
 IR Inten    --     57.6613                19.8402                 0.2161

                     25                     26                     27
                      A                      A                      A
 Frequencies --   1077.9010              1112.2811              1134.4689
 Red. masses --      2.2928                 2.3479                 2.1665
 Frc consts  --      1.5696                 1.7115                 1.6428
 IR Inten    --      7.8486                14.2032                 1.9090

                     28                     29                     30
                      A                      A                      A
 Frequencies --   1151.4533              1187.3737              1191.6646
 Red. masses --      1.1617                 1.2761                 1.6852
 Frc consts  --      0.9075                 1.0600                 1.4100
 IR Inten    --      2.3546                 0.1437                 7.3040

                     31                     32                     33
                      A                      A                      A
 Frequencies --   1231.9052              1312.0433              1356.8519
 Red. masses --      2.5972                 1.4645                 1.6891
 Frc consts  --      2.3222                 1.4854                 1.8321
 IR Inten    --     41.9246                10.2197                 8.3759

                     34                     35                     36
                      A                      A                      A
 Frequencies --   1383.0740              1411.5631              1446.0451
 Red. masses --      1.6995                 1.2801                 1.0906
 Frc consts  --      1.9154                 1.5028                 1.3436
 IR Inten    --      6.4969                 3.9468                 2.4094

                     37                     38                     39
                      A                      A                      A
 Frequencies --   1477.0084              1487.9180              1493.5374
 Red. masses --      1.1256                 1.3292                 1.1359
 Frc consts  --      1.4468                 1.7338                 1.4928
 IR Inten    --      3.6327                12.9174                 3.8196

                     40                     41                     42
                      A                      A                      A
 Frequencies --   1514.2619              1550.9067              3025.7896
 Red. masses --      1.2124                 4.5225                 1.0548
 Frc consts  --      1.6379                 6.4091                 5.6898
 IR Inten    --      0.3558                18.9337                46.7816

                     43                     44                     45
                      A                      A                      A
 Frequencies --   3037.7273              3076.1037              3091.5058
 Red. masses --      1.0357                 1.1113                 1.0874
 Frc consts  --      5.6309                 6.1958                 6.1230
 IR Inten    --     19.3563                28.4482                13.6609

                     46                     47                     48
                      A                      A                      A
 Frequencies --   3103.5422              3123.7519              3127.1906
 Red. masses --      1.1007                 1.1003                 1.0539
 Frc consts  --      6.2466                 6.3261                 6.0726
 IR Inten    --     15.5628                22.6334                13.6443

                     49                     50                     51
                      A                      A                      A
 Frequencies --   3133.2094              3212.4823              3228.7283
 Red. masses --      1.0548                 1.1178                 1.1157
 Frc consts  --      6.1010                 6.7966                 6.8529
 IR Inten    --      4.9880                 1.1513                 6.2701

 - Thermochemistry -
 -------------------
 Temperature   298.150 Kelvin.  Pressure   1.00000 Atm.
 Atom     1 has atomic number  6 and mass  12.00000

 Molecular mass:   126.06808 amu.
 Principal axes and moments of inertia in atomic units:
                           1         2         3
     Eigenvalues --   603.785531394.434861623.04060
           X            0.99937   0.03052  -0.01806
           Y           -0.02964   0.99843   0.04746
           Z            0.01948  -0.04689   0.99871
 This molecule is an asymmetric top.
 Rotational symmetry number  1.
 Warning -- assumption of classical behavior for rotation
           may cause significant error
 Rotational temperatures (Kelvin)      0.14345     0.06211     0.05337
 Rotational constants (GHZ):           2.98904     1.29425     1.11195
 Zero-point vibrational energy     412449.2 (Joules/Mol)
                                   98.57773 (Kcal/Mol)
 Warning -- explicit consideration of  11 degrees of freedom as
           vibrations may cause significant error
 Vibrational temperatures:    124.58   188.26   231.73   273.74   335.76
          (Kelvin)            371.80   532.26   617.74   663.32   766.49
                              813.53   899.82  1088.04  1143.16  1244.30
                             1254.07  1284.95  1367.95  1392.02  1407.43
                             1441.26  1497.46  1508.89  1529.90  1550.86
                             1600.32  1632.25  1656.68  1708.36  1714.54
                             1772.43  1887.74  1952.20  1989.93  2030.92
                             2080.53  2125.08  2140.78  2148.86  2178.68
                             2231.41  4353.43  4370.61  4425.82  4447.98
                             4465.30  4494.38  4499.32  4507.98  4622.04
                             4645.41

 Zero-point correction=                           0.157094 (Hartree/Particle)
 Thermal correction to Energy=                    0.165764
 Thermal correction to Enthalpy=                  0.166708
 Thermal correction to Gibbs Free Energy=         0.123780
 Sum of electronic and zero-point Energies=           -422.971727
 Sum of electronic and thermal Energies=              -422.963057
 Sum of electronic and thermal Enthalpies=            -422.962112
 Sum of electronic and thermal Free Energies=         -423.005040

                     E (Thermal)             CV                S
                      KCal/Mol        Cal/Mol-Kelvin    Cal/Mol-Kelvin
 Total                  104.018             32.856             90.350
 Electronic               0.000              0.000              0.000
 Translational            0.889              2.981             40.409
 Rotational               0.889              2.981             28.704
 Vibrational            102.241             26.894             21.237
 Vibration     1          0.601              1.959              3.736
 Vibration     2          0.612              1.922              2.934
 Vibration     3          0.622              1.890              2.537
 Vibration     4          0.634              1.853              2.225
 Vibration     5          0.654              1.790              1.853
 Vibration     6          0.667              1.749              1.672
 Vibration     7          0.742              1.534              1.080
 Vibration     8          0.791              1.406              0.861
 Vibration     9          0.819              1.336              0.763
 Vibration    10          0.888              1.178              0.581
 Vibration    11          0.921              1.106              0.513

 Normal termination of Gaussian 09 at Tue Jan 28 02:39:51 2020.
