 Gaussian 09, Revision D.01,
 Gaussian 09:  ES64L-G09RevD.01 24-Apr-2013

 -----------------------------
 # b3lyp 6-31G(2df,p) opt Freq
 -----------------------------

 -----
 titel
 -----
 Symbolic Z-matrix:
 Charge =  0 Multiplicity = 1

 SCF Done:  E(RB3LYP) =  -423.129826645     A.U. after   12 cycles
 Optimization completed.
    -- Stationary point found.
 Normal termination of Gaussian 09 at Mon Jan 27 23:09:56 2020.

 ----------------------------------------------------------------------
 #N Geom=AllCheck Guess=TCheck SCRF=Check GenChk RB3LYP/6-31G(2df,p) Fr
 eq
 ----------------------------------------------------------------------

 Structure from the checkpoint file:  "/scratch/puck/g09_53b34e65-b80d-4ba4-9358-9fd4c188840d/Gau-79895.chk"
 -----
 titel
 -----
 Charge =  0 Multiplicity = 1

                         Standard orientation:
 ---------------------------------------------------------------------
 Center     Atomic      Atomic             Coordinates (Angstroms)
 Number     Number       Type             X           Y           Z
 ---------------------------------------------------------------------
      1          6           0       -0.090477    2.154722   -0.147793
      2          6           0       -0.126589    0.659069   -0.065419
      3          6           0        0.181011   -0.260383    1.122064
      4          6           0       -0.522740   -1.393351    0.265056
      5          6           0        0.813106   -1.606000   -0.501326
      6          6           0        1.156565   -0.198215   -0.019554
      7          8           0        2.406281    0.385276    0.038613
      8          6           0       -1.249064   -0.272754   -0.528761
      9          8           0       -2.523574    0.078584   -0.032550
     10          1           0        0.760577    2.557086    0.409543
     11          1           0       -0.002496    2.493750   -1.187739
     12          1           0       -1.007559    2.592811    0.259460
     13          1           0        0.312259   -0.078309    2.178872
     14          1           0       -1.090167   -2.234251    0.657775
     15          1           0        1.450768   -2.350865   -0.016564
     16          1           0        0.753400   -1.808395   -1.577938
     17          1           0        2.602385    0.776563   -0.820370
     18          1           0       -1.389615   -0.434240   -1.603961
     19          1           0       -2.422082    0.276452    0.906812
 ---------------------------------------------------------------------

 SCF Done:  E(RB3LYP) =  -423.129826645     A.U. after    1 cycles

 The electronic state is 1-A.
 Alpha  occ. eigenvalues --  -19.15354 -19.13333 -10.24094 -10.22840 -10.19377
 Alpha  occ. eigenvalues --  -10.19370 -10.18869 -10.18406 -10.18030  -1.04020
 Alpha  occ. eigenvalues --   -1.01830  -0.91793  -0.75028  -0.69406  -0.68527
 Alpha  occ. eigenvalues --   -0.61996  -0.56991  -0.54066  -0.50839  -0.49096
 Alpha  occ. eigenvalues --   -0.45992  -0.44407  -0.43519  -0.40529  -0.39510
 Alpha  occ. eigenvalues --   -0.38483  -0.36694  -0.35842  -0.35303  -0.31121
 Alpha  occ. eigenvalues --   -0.30754  -0.26239  -0.24714  -0.23776
 Alpha virt. eigenvalues --    0.06745   0.08110   0.10935   0.11822   0.12782
 Alpha virt. eigenvalues --    0.13347   0.14425   0.14675   0.15945   0.16321
 Alpha virt. eigenvalues --    0.18057   0.18886   0.19766   0.21372   0.23178

 Mulliken charges:
               1
     1  C   -0.518958
     2  C    0.230201
     3  C   -0.213140
     4  C   -0.110542
     5  C   -0.306908
     6  C    0.346689
     7  O   -0.460019
     8  C    0.105749
     9  O   -0.446639
    10  H    0.129577
    11  H    0.115394
    12  H    0.124012
    13  H    0.096543
    14  H    0.077409
    15  H    0.106232
    16  H    0.085263
    17  H    0.286946
    18  H    0.073930
    19  H    0.278262
 Sum of Mulliken charges =   0.00000

 Dipole moment (field-independent basis, Debye):
    X=              0.8319    Y=              0.3109    Z=             -0.1887  Tot=              0.9080
 Quadrupole moment (field-independent basis, Debye-Ang):
   XX=            -60.0531   YY=            -51.5841   ZZ=            -49.2043
   XY=              0.9612   XZ=             -6.2689   YZ=             -0.6875

  Exact polarizability:  77.414  -1.027  79.016  -1.992  -0.316  68.497
 Approx polarizability: 113.514  -0.864 107.837  -2.453  -1.819 110.776

                      1                      2                      3
                      A                      A                      A
 Frequencies --    161.2988               162.7493               210.7777
 Red. masses --      4.2299                 1.0549                 2.8412
 Frc consts  --      0.0648                 0.0165                 0.0744
 IR Inten    --      6.6279                 2.7864                 0.4864

                      4                      5                      6
                      A                      A                      A
 Frequencies --    249.2939               271.9041               296.9427
 Red. masses --      1.9209                 2.6439                 1.4565
 Frc consts  --      0.0703                 0.1152                 0.0757
 IR Inten    --     26.0432                 0.8429                41.2071

                      7                      8                      9
                      A                      A                      A
 Frequencies --    349.6917               376.4594               419.8582
 Red. masses --      1.5725                 2.0274                 2.3525
 Frc consts  --      0.1133                 0.1693                 0.2443
 IR Inten    --     72.3307                48.3470                11.3741

                     10                     11                     12
                      A                      A                      A
 Frequencies --    462.8830               510.4128               644.1853
 Red. masses --      3.5606                 3.9104                 3.5234
 Frc consts  --      0.4495                 0.6002                 0.8615
 IR Inten    --      2.0579                 1.8141                 3.0728

                     13                     14                     15
                      A                      A                      A
 Frequencies --    670.3333               736.6192               805.8681
 Red. masses --      4.1310                 3.3566                 2.4968
 Frc consts  --      1.0937                 1.0731                 0.9553
 IR Inten    --      5.5500                 0.8357                 9.0256

                     16                     17                     18
                      A                      A                      A
 Frequencies --    822.8594               890.2174               897.9138
 Red. masses --      2.0036                 1.6329                 2.0958
 Frc consts  --      0.7993                 0.7624                 0.9955
 IR Inten    --      3.1982                 4.8011                 7.6513

                     19                     20                     21
                      A                      A                      A
 Frequencies --    905.9700               931.4239               980.1883
 Red. masses --      2.0995                 2.0038                 2.8461
 Frc consts  --      1.0153                 1.0242                 1.6111
 IR Inten    --     12.9292                 2.0822                12.0664

                     22                     23                     24
                      A                      A                      A
 Frequencies --   1033.7288              1055.4229              1071.1325
 Red. masses --      1.6186                 1.7832                 1.8084
 Frc consts  --      1.0191                 1.1703                 1.2225
 IR Inten    --     15.3644                 1.9877                23.4413

                     25                     26                     27
                      A                      A                      A
 Frequencies --   1096.6389              1125.0922              1139.1841
 Red. masses --      2.9157                 1.7371                 1.5815
 Frc consts  --      2.0659                 1.2955                 1.2092
 IR Inten    --    101.0201                 1.6500                25.3620

                     28                     29                     30
                      A                      A                      A
 Frequencies --   1169.3524              1213.3231              1216.6960
 Red. masses --      1.8008                 1.9528                 1.5792
 Frc consts  --      1.4508                 1.6938                 1.3773
 IR Inten    --      1.8322                 0.1860                 0.5980

                     31                     32                     33
                      A                      A                      A
 Frequencies --   1242.8700              1265.5894              1285.4289
 Red. masses --      1.9620                 1.6311                 1.6483
 Frc consts  --      1.7857                 1.5393                 1.6047
 IR Inten    --      8.6827                45.7513                17.4873

                     34                     35                     36
                      A                      A                      A
 Frequencies --   1306.1526              1368.2923              1414.1832
 Red. masses --      1.7463                 2.1557                 1.4472
 Frc consts  --      1.7553                 2.3779                 1.7053
 IR Inten    --    104.6109                 4.7470                 1.9431

                     37                     38                     39
                      A                      A                      A
 Frequencies --   1426.6553              1438.9757              1486.0190
 Red. masses --      2.5256                 1.6907                 1.0466
 Frc consts  --      3.0287                 2.0627                 1.3617
 IR Inten    --     66.1665                41.0920                 5.3042

                     40                     41                     42
                      A                      A                      A
 Frequencies --   1499.3008              1508.4099              3022.3019
 Red. masses --      1.0685                 1.2027                 1.0414
 Frc consts  --      1.4151                 1.6123                 5.6047
 IR Inten    --      5.0491                 6.9970                51.0987

                     43                     44                     45
                      A                      A                      A
 Frequencies --   3024.1879              3044.9944              3081.3714
 Red. masses --      1.0599                 1.0839                 1.0962
 Frc consts  --      5.7112                 5.9215                 6.1324
 IR Inten    --     31.5984                65.4775                19.8566

                     46                     47                     48
                      A                      A                      A
 Frequencies --   3094.5974              3109.7435              3142.7610
 Red. masses --      1.1029                 1.1005                 1.0915
 Frc consts  --      6.2231                 6.2701                 6.3519
 IR Inten    --     25.9932                13.2437                27.4458

                     49                     50                     51
                      A                      A                      A
 Frequencies --   3222.5021              3775.4350              3787.0539
 Red. masses --      1.0966                 1.0650                 1.0660
 Frc consts  --      6.7092                 8.9444                 9.0079
 IR Inten    --      3.8858                 8.4316                20.4587

 - Thermochemistry -
 -------------------
 Temperature   298.150 Kelvin.  Pressure   1.00000 Atm.
 Atom     1 has atomic number  6 and mass  12.00000

 Molecular mass:   126.06808 amu.
 Principal axes and moments of inertia in atomic units:
                           1         2         3
     Eigenvalues --   679.635481062.750091484.43515
           X            0.99985  -0.00988  -0.01453
           Y            0.00992   0.99995   0.00273
           Z            0.01451  -0.00287   0.99989
 This molecule is an asymmetric top.
 Rotational symmetry number  1.
 Warning -- assumption of classical behavior for rotation
           may cause significant error
 Rotational temperatures (Kelvin)      0.12744     0.08150     0.05835
 Rotational constants (GHZ):           2.65545     1.69818     1.21578
 Zero-point vibrational energy     415255.2 (Joules/Mol)
                                   99.24837 (Kcal/Mol)
 Warning -- explicit consideration of  11 degrees of freedom as
           vibrations may cause significant error
 Vibrational temperatures:    232.07   234.16   303.26   358.68   391.21
          (Kelvin)            427.23   503.13   541.64   604.08   665.98
                              734.37   926.84   964.46  1059.83  1159.46
                             1183.91  1280.82  1291.90  1303.49  1340.11
                             1410.27  1487.30  1518.52  1541.12  1577.82
                             1618.75  1639.03  1682.44  1745.70  1750.55
                             1788.21  1820.90  1849.44  1879.26  1968.66
                             2034.69  2052.64  2070.36  2138.05  2157.16
                             2170.26  4348.41  4351.13  4381.06  4433.40
                             4452.43  4474.22  4521.73  4636.46  5432.00
                             5448.72

 Zero-point correction=                           0.158162 (Hartree/Particle)
 Thermal correction to Energy=                    0.166671
 Thermal correction to Enthalpy=                  0.167615
 Thermal correction to Gibbs Free Energy=         0.125805
 Sum of electronic and zero-point Energies=           -422.971664
 Sum of electronic and thermal Energies=              -422.963156
 Sum of electronic and thermal Enthalpies=            -422.962212
 Sum of electronic and thermal Free Energies=         -423.004021

                     E (Thermal)             CV                S
                      KCal/Mol        Cal/Mol-Kelvin    Cal/Mol-Kelvin
 Total                  104.587             33.678             87.995
 Electronic               0.000              0.000              0.000
 Translational            0.889              2.981             40.409
 Rotational               0.889              2.981             28.463
 Vibrational            102.810             27.717             19.124
 Vibration     1          0.622              1.890              2.535
 Vibration     2          0.623              1.888              2.518
 Vibration     3          0.643              1.824              2.037
 Vibration     4          0.662              1.764              1.736
 Vibration     5          0.675              1.725              1.584
 Vibration     6          0.691              1.679              1.434
 Vibration     7          0.727              1.576              1.168
 Vibration     8          0.747              1.520              1.053
 Vibration     9          0.783              1.427              0.892
 Vibration    10          0.821              1.332              0.758
 Vibration    11          0.866              1.227              0.633

 Optimization completed.
    -- Stationary point found.
 Normal termination of Gaussian 09 at Mon Jan 27 23:57:01 2020.
