 Gaussian 09, Revision D.01,
 Gaussian 09:  ES64L-G09RevD.01 24-Apr-2013

 -----------------------------
 # b3lyp 6-31G(2df,p) opt Freq
 -----------------------------

 -----
 titel
 -----
 Symbolic Z-matrix:
 Charge =  0 Multiplicity = 1

 SCF Done:  E(RB3LYP) =  -423.189034588     A.U. after   14 cycles
 Optimization completed.
    -- Stationary point found.
 Normal termination of Gaussian 09 at Tue Jan 28 00:45:40 2020.

 ----------------------------------------------------------------------
 #N Geom=AllCheck Guess=TCheck SCRF=Check GenChk RB3LYP/6-31G(2df,p) Fr
 eq
 ----------------------------------------------------------------------

 Structure from the checkpoint file:  "/scratch/puck/g09_60b2a2f5-7bcd-45a9-af98-75b7eaab4ccf/Gau-1021.chk"
 -----
 titel
 -----
 Charge =  0 Multiplicity = 1

                         Standard orientation:
 ---------------------------------------------------------------------
 Center     Atomic      Atomic             Coordinates (Angstroms)
 Number     Number       Type             X           Y           Z
 ---------------------------------------------------------------------
      1          6           0        1.607141    1.816853   -0.497193
      2          6           0        1.459730    0.533291    0.330197
      3          6           0        0.174061    0.482718    1.208598
      4          6           0       -0.890047   -0.375755    0.450797
      5          6           0       -1.888341    0.475876   -0.307367
      6          8           0       -3.083821    0.361033   -0.226332
      7          6           0       -0.046521   -1.212016   -0.506447
      8          8           0        1.024155   -1.889778    0.157652
      9          6           0        1.324417   -0.686923   -0.561528
     10          1           0        1.674537    2.692728    0.154926
     11          1           0        2.513281    1.787623   -1.111583
     12          1           0        0.756717    1.968841   -1.171147
     13          1           0        2.344808    0.430229    0.968323
     14          1           0        0.389123   -0.004418    2.160496
     15          1           0       -0.197916    1.486186    1.437867
     16          1           0       -1.462871   -1.012733    1.130570
     17          1           0       -1.435519    1.249586   -0.970806
     18          1           0       -0.513885   -1.760711   -1.320507
     19          1           0        1.966414   -0.811639   -1.431033
 ---------------------------------------------------------------------

 SCF Done:  E(RB3LYP) =  -423.189034588     A.U. after    1 cycles

 The electronic state is 1-A.
 Alpha  occ. eigenvalues --  -19.15841 -19.14442 -10.27492 -10.24758 -10.24243
 Alpha  occ. eigenvalues --  -10.20435 -10.20371 -10.19873 -10.18996  -1.08198
 Alpha  occ. eigenvalues --   -1.05108  -0.83315  -0.77170  -0.68668  -0.67561
 Alpha  occ. eigenvalues --   -0.62169  -0.57705  -0.56680  -0.53335  -0.47539
 Alpha  occ. eigenvalues --   -0.47175  -0.44636  -0.43797  -0.42138  -0.40791
 Alpha  occ. eigenvalues --   -0.39873  -0.38245  -0.37391  -0.35844  -0.35058
 Alpha  occ. eigenvalues --   -0.33948  -0.30253  -0.27353  -0.25257
 Alpha virt. eigenvalues --   -0.02957   0.07507   0.09290   0.09638   0.10671
 Alpha virt. eigenvalues --    0.12711   0.13262   0.13911   0.14970   0.16055
 Alpha virt. eigenvalues --    0.16615   0.17787   0.18613   0.19910   0.21557

 Mulliken charges:
               1
     1  C   -0.411430
     2  C   -0.011000
     3  C   -0.271263
     4  C   -0.100570
     5  C    0.146619
     6  O   -0.245152
     7  C    0.024126
     8  O   -0.267335
     9  C    0.057484
    10  H    0.123994
    11  H    0.120917
    12  H    0.122213
    13  H    0.090328
    14  H    0.128409
    15  H    0.108546
    16  H    0.105124
    17  H    0.076054
    18  H    0.106884
    19  H    0.096051
 Sum of Mulliken charges =   0.00000

 Dipole moment (field-independent basis, Debye):
    X=              2.3519    Y=              1.3885    Z=             -0.5411  Tot=              2.7842
 Quadrupole moment (field-independent basis, Debye-Ang):
   XX=            -63.1156   YY=            -55.7472   ZZ=            -50.7743
   XY=              3.8625   XZ=             -1.4426   YZ=              1.9682

  Exact polarizability:  87.736   3.813  71.722  -1.453  -0.702  65.376
 Approx polarizability: 129.576   3.295 104.537  -0.288  -4.049  98.573

                      1                      2                      3
                      A                      A                      A
 Frequencies --     36.7343               104.1017               161.8603
 Red. masses --      4.2613                 3.3898                 2.7401
 Frc consts  --      0.0034                 0.0216                 0.0423
 IR Inten    --      6.4826                 1.1234                 2.2452

                      4                      5                      6
                      A                      A                      A
 Frequencies --    221.3136               275.7807               283.0600
 Red. masses --      1.1032                 2.7595                 2.4146
 Frc consts  --      0.0318                 0.1237                 0.1140
 IR Inten    --      0.3278                 1.0486                 3.2385

                      7                      8                      9
                      A                      A                      A
 Frequencies --    333.9723               400.4625               446.6294
 Red. masses --      2.0513                 5.5079                 4.4174
 Frc consts  --      0.1348                 0.5204                 0.5192
 IR Inten    --      0.5567                 3.0508                13.5005

                     10                     11                     12
                      A                      A                      A
 Frequencies --    488.3069               697.7190               748.5818
 Red. masses --      4.4241                 3.4483                 4.2691
 Frc consts  --      0.6215                 0.9890                 1.4095
 IR Inten    --     12.6783                 0.5356                 2.6221

                     13                     14                     15
                      A                      A                      A
 Frequencies --    787.6831               844.4616               851.5545
 Red. masses --      2.4004                 2.3759                 3.0826
 Frc consts  --      0.8775                 0.9982                 1.3170
 IR Inten    --      7.6718                20.8766                16.9375

                     16                     17                     18
                      A                      A                      A
 Frequencies --    882.9156               922.4417               946.4834
 Red. masses --      2.4656                 2.4521                 2.3952
 Frc consts  --      1.1324                 1.2293                 1.2642
 IR Inten    --      3.0340                 8.7539                 6.4664

                     19                     20                     21
                      A                      A                      A
 Frequencies --    981.0854              1018.4410              1026.8147
 Red. masses --      2.1807                 1.9127                 1.4486
 Frc consts  --      1.2367                 1.1689                 0.8999
 IR Inten    --      3.2622                23.9327                 2.6395

                     22                     23                     24
                      A                      A                      A
 Frequencies --   1052.5108              1088.4833              1117.4238
 Red. masses --      1.5353                 1.6460                 2.0492
 Frc consts  --      1.0021                 1.1490                 1.5076
 IR Inten    --      2.7823                 1.0906                 4.1368

                     25                     26                     27
                      A                      A                      A
 Frequencies --   1145.9887              1156.7205              1219.6758
 Red. masses --      2.6171                 1.6583                 1.3176
 Frc consts  --      2.0250                 1.3073                 1.1548
 IR Inten    --      7.9032                 0.3085                 0.7935

                     28                     29                     30
                      A                      A                      A
 Frequencies --   1242.8755              1252.5501              1282.1792
 Red. masses --      1.3600                 1.3627                 1.3283
 Frc consts  --      1.2378                 1.2596                 1.2866
 IR Inten    --      3.2589                 4.9533                 2.7929

                     31                     32                     33
                      A                      A                      A
 Frequencies --   1309.4980              1321.1105              1344.0146
 Red. masses --      1.6689                 1.3417                 1.3106
 Frc consts  --      1.6862                 1.3797                 1.3948
 IR Inten    --      4.4782                 0.3940                 4.0981

                     34                     35                     36
                      A                      A                      A
 Frequencies --   1367.2063              1410.2690              1433.1728
 Red. masses --      1.6030                 1.2618                 1.3616
 Frc consts  --      1.7655                 1.4786                 1.6477
 IR Inten    --      2.4865                 3.7433                 9.3250

                     37                     38                     39
                      A                      A                      A
 Frequencies --   1435.7242              1483.6072              1497.8693
 Red. masses --      2.2550                 1.0977                 1.0526
 Frc consts  --      2.7386                 1.4235                 1.3915
 IR Inten    --      9.3770                 4.9037                 2.2960

                     40                     41                     42
                      A                      A                      A
 Frequencies --   1499.8845              1830.9720              2857.6610
 Red. masses --      1.0534                10.3506                 1.0809
 Frc consts  --      1.3962                20.4446                 5.2009
 IR Inten    --      4.8575               197.3907                96.2829

                     43                     44                     45
                      A                      A                      A
 Frequencies --   3032.3602              3040.6023              3062.7046
 Red. masses --      1.0362                 1.0829                 1.0663
 Frc consts  --      5.6138                 5.8985                 5.8930
 IR Inten    --     19.9096                15.5805                19.2702

                     46                     47                     48
                      A                      A                      A
 Frequencies --   3078.8422              3098.2445              3107.8442
 Red. masses --      1.0856                 1.1006                 1.1013
 Frc consts  --      6.0633                 6.2244                 6.2670
 IR Inten    --     11.3585                30.7025                23.5581

                     49                     50                     51
                      A                      A                      A
 Frequencies --   3120.5062              3136.0492              3149.7624
 Red. masses --      1.0995                 1.0869                 1.0950
 Frc consts  --      6.3080                 6.2979                 6.4006
 IR Inten    --     12.8626                17.6610                26.2163

 - Thermochemistry -
 -------------------
 Temperature   298.150 Kelvin.  Pressure   1.00000 Atm.
 Atom     1 has atomic number  6 and mass  12.00000

 Molecular mass:   126.06808 amu.
 Principal axes and moments of inertia in atomic units:
                           1         2         3
     Eigenvalues --   731.754771333.230861708.84591
           X            0.99803   0.06174  -0.01099
           Y           -0.06178   0.99808  -0.00307
           Z            0.01078   0.00374   0.99993
 This molecule is an asymmetric top.
 Rotational symmetry number  1.
 Warning -- assumption of classical behavior for rotation
           may cause significant error
 Rotational temperatures (Kelvin)      0.11836     0.06497     0.05069
 Rotational constants (GHZ):           2.46632     1.35366     1.05612
 Zero-point vibrational energy     416520.1 (Joules/Mol)
                                   99.55068 (Kcal/Mol)
 Warning -- explicit consideration of  10 degrees of freedom as
           vibrations may cause significant error
 Vibrational temperatures:     52.85   149.78   232.88   318.42   396.79
          (Kelvin)            407.26   480.51   576.18   642.60   702.56
                             1003.86  1077.04  1133.30  1214.99  1225.20
                             1270.32  1327.19  1361.78  1411.56  1465.31
                             1477.36  1514.33  1566.08  1607.72  1648.82
                             1664.26  1754.84  1788.22  1802.14  1844.77
                             1884.07  1900.78  1933.73  1967.10  2029.06
                             2062.01  2065.68  2134.58  2155.10  2158.00
                             2634.36  4111.53  4362.88  4374.74  4406.54
                             4429.76  4457.68  4471.49  4489.71  4512.07
                             4531.80

 Zero-point correction=                           0.158644 (Hartree/Particle)
 Thermal correction to Energy=                    0.167230
 Thermal correction to Enthalpy=                  0.168174
 Thermal correction to Gibbs Free Energy=         0.124573
 Sum of electronic and zero-point Energies=           -423.030390
 Sum of electronic and thermal Energies=              -423.021804
 Sum of electronic and thermal Enthalpies=            -423.020860
 Sum of electronic and thermal Free Energies=         -423.064461

                     E (Thermal)             CV                S
                      KCal/Mol        Cal/Mol-Kelvin    Cal/Mol-Kelvin
 Total                  104.938             31.793             91.766
 Electronic               0.000              0.000              0.000
 Translational            0.889              2.981             40.409
 Rotational               0.889              2.981             28.901
 Vibrational            103.161             25.831             22.456
 Vibration     1          0.594              1.982              5.428
 Vibration     2          0.605              1.946              3.376
 Vibration     3          0.622              1.889              2.528
 Vibration     4          0.648              1.809              1.948
 Vibration     5          0.677              1.718              1.560
 Vibration     6          0.682              1.705              1.515
 Vibration     7          0.715              1.608              1.241
 Vibration     8          0.766              1.469              0.961
 Vibration     9          0.806              1.368              0.806
 Vibration    10          0.844              1.276              0.688

 Optimization completed.
    -- Stationary point found.
 Normal termination of Gaussian 09 at Tue Jan 28 01:28:32 2020.
