 Gaussian 09, Revision D.01,
 Gaussian 09:  ES64L-G09RevD.01 24-Apr-2013

 -----------------------------
 # b3lyp 6-31G(2df,p) opt Freq
 -----------------------------

 -----
 titel
 -----
 Symbolic Z-matrix:
 Charge =  0 Multiplicity = 1

 SCF Done:  E(RB3LYP) =  -423.127016723     A.U. after   14 cycles
 Optimization completed.
    -- Stationary point found.
 Normal termination of Gaussian 09 at Mon Jan 27 13:52:39 2020.

 ----------------------------------------------------------------------
 #N Geom=AllCheck Guess=TCheck SCRF=Check GenChk RB3LYP/6-31G(2df,p) Fr
 eq
 ----------------------------------------------------------------------

 Structure from the checkpoint file:  "/scratch/puck/g09_00892e94-c858-4d20-a49d-12187093d6f1/Gau-157759.chk"
 -----
 titel
 -----
 Charge =  0 Multiplicity = 1

                         Standard orientation:
 ---------------------------------------------------------------------
 Center     Atomic      Atomic             Coordinates (Angstroms)
 Number     Number       Type             X           Y           Z
 ---------------------------------------------------------------------
      1          8           0        3.866518   -0.246988   -0.263493
      2          6           0        2.895252    0.224585    0.268482
      3          6           0        1.498643   -0.345004    0.190710
      4          6           0        0.484287    0.692638   -0.324540
      5          6           0       -0.932878    0.217512   -0.186755
      6          6           0       -2.263706    0.985642   -0.413132
      7          6           0       -2.564726   -0.360297    0.281930
      8          6           0       -1.616689   -1.082661   -0.699721
      9          8           0       -1.412826   -0.123664    1.184410
     10          1           0        2.972963    1.156615    0.878062
     11          1           0        1.517888   -1.239619   -0.437395
     12          1           0        1.196204   -0.641948    1.204218
     13          1           0        0.588050    1.629451    0.237694
     14          1           0        0.678817    0.927795   -1.377685
     15          1           0       -2.396996    1.870061    0.211339
     16          1           0       -2.608190    1.127300   -1.440747
     17          1           0       -3.489297   -0.713276    0.736891
     18          1           0       -1.188566   -2.014099   -0.327653
     19          1           0       -1.901510   -1.131559   -1.753908
 ---------------------------------------------------------------------

 SCF Done:  E(RB3LYP) =  -423.127016723     A.U. after    1 cycles

 The electronic state is 1-A.
 Alpha  occ. eigenvalues --  -19.13956 -19.13376 -10.27194 -10.25957 -10.25353
 Alpha  occ. eigenvalues --  -10.20581 -10.19776 -10.19702 -10.19698  -1.05826
 Alpha  occ. eigenvalues --   -1.04643  -0.80957  -0.79314  -0.70028  -0.68516
 Alpha  occ. eigenvalues --   -0.61246  -0.57678  -0.54691  -0.49974  -0.48023
 Alpha  occ. eigenvalues --   -0.46292  -0.45674  -0.44376  -0.42754  -0.42082
 Alpha  occ. eigenvalues --   -0.38611  -0.37935  -0.35661  -0.35470  -0.33004
 Alpha  occ. eigenvalues --   -0.32945  -0.31921  -0.25084  -0.24264
 Alpha virt. eigenvalues --   -0.02134   0.08887   0.09313   0.10871   0.11201
 Alpha virt. eigenvalues --    0.12185   0.13401   0.13932   0.14382   0.14761
 Alpha virt. eigenvalues --    0.15563   0.16779   0.17632   0.18726   0.19816

 Mulliken charges:
               1
     1  O   -0.236657
     2  C    0.156043
     3  C   -0.274318
     4  C   -0.363520
     5  C    0.445102
     6  C   -0.268261
     7  C    0.054772
     8  C   -0.255572
     9  O   -0.347299
    10  H    0.071364
    11  H    0.123620
    12  H    0.145545
    13  H    0.118504
    14  H    0.121384
    15  H    0.107467
    16  H    0.096286
    17  H    0.099104
    18  H    0.109670
    19  H    0.096765
 Sum of Mulliken charges =   0.00000

 Dipole moment (field-independent basis, Debye):
    X=             -2.8309    Y=              0.7751    Z=             -0.8753  Tot=              3.0628
 Quadrupole moment (field-independent basis, Debye-Ang):
   XX=            -63.9186   YY=            -51.6587   ZZ=            -54.3448
   XY=              2.9099   XZ=              5.1067   YZ=             -0.0805

  Exact polarizability:  95.236  -0.683  71.664  -0.860   2.918  65.581
 Approx polarizability: 123.353  -3.456 106.770  -5.202   4.811 108.313

                      1                      2                      3
                      A                      A                      A
 Frequencies --     52.6330                64.5076                93.9951
 Red. masses --      4.8941                 3.2160                 2.5348
 Frc consts  --      0.0080                 0.0079                 0.0132
 IR Inten    --      4.8721                 5.4908                 0.6672

                      4                      5                      6
                      A                      A                      A
 Frequencies --    132.5575               287.9521               309.3097
 Red. masses --      3.8035                 3.0191                 2.5078
 Frc consts  --      0.0394                 0.1475                 0.1414
 IR Inten    --      2.0668                 2.7646                 1.9530

                      7                      8                      9
                      A                      A                      A
 Frequencies --    353.5037               513.3764               523.8096
 Red. masses --      3.5263                 1.9823                 2.2172
 Frc consts  --      0.2596                 0.3078                 0.3584
 IR Inten    --      3.9885                 5.5920                12.6533

                     10                     11                     12
                      A                      A                      A
 Frequencies --    598.4740               676.1232               710.5758
 Red. masses --      2.5739                 3.8491                 3.5107
 Frc consts  --      0.5432                 1.0367                 1.0444
 IR Inten    --      6.3891                 6.3496                18.8990

                     13                     14                     15
                      A                      A                      A
 Frequencies --    761.1580               806.4880               841.4871
 Red. masses --      1.5577                 2.2148                 1.8950
 Frc consts  --      0.5317                 0.8488                 0.7906
 IR Inten    --      4.1421                 1.7872                 3.7262

                     16                     17                     18
                      A                      A                      A
 Frequencies --    902.4837               914.7481               945.0910
 Red. masses --      3.3764                 2.3919                 1.9606
 Frc consts  --      1.6202                 1.1792                 1.0318
 IR Inten    --     16.3210                 9.1720                 2.6169

                     19                     20                     21
                      A                      A                      A
 Frequencies --    984.9769               988.9563              1007.3861
 Red. masses --      1.4337                 3.1528                 2.4801
 Frc consts  --      0.8195                 1.8168                 1.4829
 IR Inten    --      4.6447                27.7533                 4.6625

                     22                     23                     24
                      A                      A                      A
 Frequencies --   1048.6262              1065.9539              1098.4195
 Red. masses --      1.4154                 1.5519                 1.6038
 Frc consts  --      0.9170                 1.0390                 1.1401
 IR Inten    --      4.7939                10.0241                 5.5938

                     25                     26                     27
                      A                      A                      A
 Frequencies --   1118.7069              1139.8170              1161.4044
 Red. masses --      1.8783                 1.7715                 1.5785
 Frc consts  --      1.3850                 1.3560                 1.2545
 IR Inten    --      4.0819                 6.7585                 5.2477

                     28                     29                     30
                      A                      A                      A
 Frequencies --   1204.8753              1215.3171              1233.9320
 Red. masses --      1.3203                 1.6545                 1.5479
 Frc consts  --      1.1293                 1.4398                 1.3886
 IR Inten    --     10.4274                23.6760                 0.8861

                     31                     32                     33
                      A                      A                      A
 Frequencies --   1243.4897              1275.2846              1300.1624
 Red. masses --      1.5417                 1.5959                 1.4926
 Frc consts  --      1.4046                 1.5293                 1.4866
 IR Inten    --      3.6605                 3.0364                39.0189

                     34                     35                     36
                      A                      A                      A
 Frequencies --   1333.2803              1388.4252              1430.8788
 Red. masses --      1.5585                 2.0600                 1.1941
 Frc consts  --      1.6323                 2.3397                 1.4404
 IR Inten    --     15.9866                 1.4273                 6.4146

                     37                     38                     39
                      A                      A                      A
 Frequencies --   1461.8340              1466.7884              1478.9892
 Red. masses --      1.0836                 1.1240                 1.1025
 Frc consts  --      1.3643                 1.4248                 1.4209
 IR Inten    --      0.6870                 1.1058                 8.9532

                     40                     41                     42
                      A                      A                      A
 Frequencies --   1512.3551              1837.2772              2847.9853
 Red. masses --      1.2731                10.1023                 1.0815
 Frc consts  --      1.7156                20.0918                 5.1683
 IR Inten    --      2.2688               205.0649               111.6099

                     43                     44                     45
                      A                      A                      A
 Frequencies --   3025.3350              3032.1260              3058.2440
 Red. masses --      1.0599                 1.0630                 1.0568
 Frc consts  --      5.7153                 5.7579                 5.8237
 IR Inten    --      7.2021                13.8219                30.9850

                     46                     47                     48
                      A                      A                      A
 Frequencies --   3066.9555              3069.9405              3107.8721
 Red. masses --      1.0558                 1.0997                 1.0996
 Frc consts  --      5.8510                 6.1065                 6.2576
 IR Inten    --     27.6364                10.2090                15.2340

                     49                     50                     51
                      A                      A                      A
 Frequencies --   3128.8723              3144.0150              3148.7844
 Red. masses --      1.0943                 1.1093                 1.1105
 Frc consts  --      6.3120                 6.4602                 6.4874
 IR Inten    --     55.7471                15.7897                30.7494

 - Thermochemistry -
 -------------------
 Temperature   298.150 Kelvin.  Pressure   1.00000 Atm.
 Atom     1 has atomic number  8 and mass  15.99491

 Molecular mass:   126.06808 amu.
 Principal axes and moments of inertia in atomic units:
                           1         2         3
     Eigenvalues --   357.052032401.718322433.68475
           X            0.99992   0.00229   0.01229
           Y           -0.00336   0.99611   0.08803
           Z           -0.01204  -0.08806   0.99604
 This molecule is an asymmetric top.
 Rotational symmetry number  1.
 Rotational temperatures (Kelvin)      0.24258     0.03606     0.03559
 Rotational constants (GHZ):           5.05456     0.75144     0.74157
 Zero-point vibrational energy     413402.7 (Joules/Mol)
                                   98.80562 (Kcal/Mol)
 Warning -- explicit consideration of  10 degrees of freedom as
           vibrations may cause significant error
 Vibrational temperatures:     75.73    92.81   135.24   190.72   414.30
          (Kelvin)            445.03   508.61   738.63   753.64   861.07
                              972.79  1022.36  1095.14  1160.35  1210.71
                             1298.47  1316.12  1359.77  1417.16  1422.89
                             1449.40  1508.74  1533.67  1580.38  1609.57
                             1639.94  1671.00  1733.54  1748.57  1775.35
                             1789.10  1834.85  1870.64  1918.29  1997.63
                             2058.71  2103.25  2110.38  2127.93  2175.94
                             2643.43  4097.61  4352.78  4362.55  4400.13
                             4412.66  4416.95  4471.53  4501.74  4523.53
                             4530.39

 Zero-point correction=                           0.157457 (Hartree/Particle)
 Thermal correction to Energy=                    0.166136
 Thermal correction to Enthalpy=                  0.167080
 Thermal correction to Gibbs Free Energy=         0.122730
 Sum of electronic and zero-point Energies=           -422.969560
 Sum of electronic and thermal Energies=              -422.960881
 Sum of electronic and thermal Enthalpies=            -422.959937
 Sum of electronic and thermal Free Energies=         -423.004287

                     E (Thermal)             CV                S
                      KCal/Mol        Cal/Mol-Kelvin    Cal/Mol-Kelvin
 Total                  104.252             31.767             93.343
 Electronic               0.000              0.000              0.000
 Translational            0.889              2.981             40.409
 Rotational               0.889              2.981             29.125
 Vibrational            102.474             25.805             23.810
 Vibration     1          0.596              1.977              4.716
 Vibration     2          0.597              1.971              4.314
 Vibration     3          0.603              1.953              3.575
 Vibration     4          0.613              1.921              2.909
 Vibration     5          0.685              1.696              1.486
 Vibration     6          0.699              1.656              1.366
 Vibration     7          0.730              1.568              1.151
 Vibration     8          0.868              1.220              0.626
 Vibration     9          0.879              1.197              0.601
 Vibration    10          0.956              1.035              0.452

 Optimization completed.
    -- Stationary point found.
 Normal termination of Gaussian 09 at Mon Jan 27 14:30:19 2020.
