 Gaussian 09, Revision D.01,
 Gaussian 09:  ES64L-G09RevD.01 24-Apr-2013

 -----------------------------
 # b3lyp 6-31G(2df,p) opt Freq
 -----------------------------

 -----
 titel
 -----
 Symbolic Z-matrix:
 Charge =  0 Multiplicity = 1

 SCF Done:  E(RB3LYP) =  -423.192853230     A.U. after   14 cycles
 Optimization completed.
    -- Stationary point found.
 Normal termination of Gaussian 09 at Mon Jan 27 17:54:26 2020.

 ----------------------------------------------------------------------
 #N Geom=AllCheck Guess=TCheck SCRF=Check GenChk RB3LYP/6-31G(2df,p) Fr
 eq
 ----------------------------------------------------------------------

 Structure from the checkpoint file:  "/scratch/puck/g09_1a614ebd-7bda-4aa4-8363-8dd0829f9225/Gau-16581.chk"
 -----
 titel
 -----
 Charge =  0 Multiplicity = 1

                         Standard orientation:
 ---------------------------------------------------------------------
 Center     Atomic      Atomic             Coordinates (Angstroms)
 Number     Number       Type             X           Y           Z
 ---------------------------------------------------------------------
      1          8           0        2.440829   -1.095669   -0.499887
      2          6           0        1.398209   -0.352476    0.053143
      3          6           0        1.709812    0.808492    0.965166
      4          6           0        1.153003    1.049305   -0.429489
      5          6           0       -0.344915    1.258803   -0.567598
      6          6           0       -0.990209    0.112196    0.266747
      7          6           0        0.047884   -1.039029    0.217009
      8          6           0       -2.326285   -0.306425   -0.298800
      9          8           0       -3.377637   -0.263008    0.284657
     10          1           0        2.814136   -1.650860    0.193334
     11          1           0        1.094487    1.002464    1.838245
     12          1           0        2.762797    1.033599    1.093650
     13          1           0        1.818031    1.489903   -1.163117
     14          1           0       -0.691151    2.239634   -0.227582
     15          1           0       -0.627982    1.163569   -1.624526
     16          1           0       -1.160936    0.435957    1.296010
     17          1           0       -0.020149   -1.685504    1.098588
     18          1           0       -0.112570   -1.668819   -0.667881
     19          1           0       -2.267196   -0.675725   -1.351943
 ---------------------------------------------------------------------

 SCF Done:  E(RB3LYP) =  -423.192853230     A.U. after    1 cycles

 The electronic state is 1-A.
 Alpha  occ. eigenvalues --  -19.14942 -19.13868 -10.26940 -10.24384 -10.20106
 Alpha  occ. eigenvalues --  -10.19834 -10.19592 -10.19502 -10.18939  -1.04586
 Alpha  occ. eigenvalues --   -1.03593  -0.88292  -0.78864  -0.71859  -0.65918
 Alpha  occ. eigenvalues --   -0.60103  -0.56796  -0.56001  -0.52671  -0.47638
 Alpha  occ. eigenvalues --   -0.46936  -0.44901  -0.43199  -0.42230  -0.41767
 Alpha  occ. eigenvalues --   -0.40084  -0.37790  -0.36223  -0.35222  -0.34157
 Alpha  occ. eigenvalues --   -0.32320  -0.27101  -0.26662  -0.24844
 Alpha virt. eigenvalues --   -0.02134   0.07241   0.09396   0.09531   0.11634
 Alpha virt. eigenvalues --    0.12449   0.13709   0.14357   0.15064   0.17097
 Alpha virt. eigenvalues --    0.18087   0.18846   0.19876   0.20869   0.22751

 Mulliken charges:
               1
     1  O   -0.468117
     2  C    0.410374
     3  C   -0.354672
     4  C   -0.071666
     5  C   -0.246922
     6  C   -0.074508
     7  C   -0.311148
     8  C    0.150881
     9  O   -0.249831
    10  H    0.283702
    11  H    0.112675
    12  H    0.115428
    13  H    0.098028
    14  H    0.114726
    15  H    0.106537
    16  H    0.096824
    17  H    0.105982
    18  H    0.111549
    19  H    0.070156
 Sum of Mulliken charges =   0.00000

 Dipole moment (field-independent basis, Debye):
    X=              2.5165    Y=             -0.0467    Z=              0.4389  Tot=              2.5550
 Quadrupole moment (field-independent basis, Debye-Ang):
   XX=            -64.7285   YY=            -50.6913   ZZ=            -52.4840
   XY=             -1.8521   XZ=              6.1585   YZ=             -2.0584

  Exact polarizability:  90.500   0.388  69.841   1.212   0.365  68.381
 Approx polarizability: 122.592  -1.855 103.211  -4.399   1.242 109.237

                      1                      2                      3
                      A                      A                      A
 Frequencies --     68.4906                96.0737               213.4695
 Red. masses --      5.1922                 3.9711                 2.3437
 Frc consts  --      0.0144                 0.0216                 0.0629
 IR Inten    --      5.5872                 3.5155                 6.5503

                      4                      5                      6
                      A                      A                      A
 Frequencies --    288.0172               297.8824               349.6443
 Red. masses --      1.8388                 1.3074                 3.4040
 Frc consts  --      0.0899                 0.0684                 0.2452
 IR Inten    --     13.2196                73.1366                 0.7551

                      7                      8                      9
                      A                      A                      A
 Frequencies --    363.2795               379.9583               413.3147
 Red. masses --      2.1134                 4.4557                 2.8720
 Frc consts  --      0.1643                 0.3790                 0.2891
 IR Inten    --     10.7864                 3.9201                 5.6926

                     10                     11                     12
                      A                      A                      A
 Frequencies --    479.2330               567.3828               659.1970
 Red. masses --      2.6499                 3.2670                 2.8400
 Frc consts  --      0.3586                 0.6197                 0.7271
 IR Inten    --     11.5723                 1.5499                16.2499

                     13                     14                     15
                      A                      A                      A
 Frequencies --    705.3027               836.7783               865.4577
 Red. masses --      3.3135                 1.9246                 2.1676
 Frc consts  --      0.9712                 0.7940                 0.9566
 IR Inten    --      3.1697                 2.5199                 2.0866

                     16                     17                     18
                      A                      A                      A
 Frequencies --    889.2065               902.8307               924.0262
 Red. masses --      1.8071                 3.1953                 1.4863
 Frc consts  --      0.8419                 1.5345                 0.7477
 IR Inten    --      1.3727                 9.3940                 1.3963

                     19                     20                     21
                      A                      A                      A
 Frequencies --    960.0149               975.5723              1041.4755
 Red. masses --      2.1264                 1.6050                 1.3375
 Frc consts  --      1.1547                 0.9000                 0.8547
 IR Inten    --      0.2475                 8.4997                 6.2405

                     22                     23                     24
                      A                      A                      A
 Frequencies --   1045.5241              1052.4206              1081.0116
 Red. masses --      2.6977                 1.3828                 2.3802
 Frc consts  --      1.7375                 0.9024                 1.6388
 IR Inten    --     34.4866                 1.9486                12.5282

                     25                     26                     27
                      A                      A                      A
 Frequencies --   1104.7604              1126.0247              1169.3123
 Red. masses --      2.1200                 1.9186                 1.3700
 Frc consts  --      1.5245                 1.4333                 1.1036
 IR Inten    --      0.7096                12.7259                22.1418

                     28                     29                     30
                      A                      A                      A
 Frequencies --   1218.7191              1248.4986              1263.8638
 Red. masses --      1.5630                 1.6131                 1.5520
 Frc consts  --      1.3677                 1.4814                 1.4607
 IR Inten    --     42.3543                13.8148                32.8167

                     31                     32                     33
                      A                      A                      A
 Frequencies --   1280.6318              1318.6223              1328.6120
 Red. masses --      1.5411                 2.0718                 1.3418
 Frc consts  --      1.4892                 2.1224                 1.3956
 IR Inten    --      0.8979                33.8157                41.4601

                     34                     35                     36
                      A                      A                      A
 Frequencies --   1337.5817              1346.0350              1411.9151
 Red. masses --      1.5586                 1.4427                 1.6372
 Frc consts  --      1.6429                 1.5401                 1.9230
 IR Inten    --      1.6593                 5.6709                 6.7041

                     37                     38                     39
                      A                      A                      A
 Frequencies --   1426.5753              1482.3174              1487.0771
 Red. masses --      1.1904                 1.2744                 1.1307
 Frc consts  --      1.4273                 1.6499                 1.4732
 IR Inten    --      4.1630                 9.2108                 1.6860

                     40                     41                     42
                      A                      A                      A
 Frequencies --   1505.6641              1834.7972              2835.0864
 Red. masses --      1.2478                10.4345                 1.0811
 Frc consts  --      1.6667                20.6965                 5.1199
 IR Inten    --      3.0302               226.3079                94.2701

                     43                     44                     45
                      A                      A                      A
 Frequencies --   3020.8769              3025.8027              3068.7257
 Red. masses --      1.0644                 1.0616                 1.0970
 Frc consts  --      5.7227                 5.7263                 6.0864
 IR Inten    --     36.6266                24.3450                 7.2523

                     46                     47                     48
                      A                      A                      A
 Frequencies --   3076.3694              3092.9328              3127.2478
 Red. masses --      1.0966                 1.0904                 1.0548
 Frc consts  --      6.1145                 6.1458                 6.0777
 IR Inten    --     20.9039                28.0520                12.4090

                     49                     50                     51
                      A                      A                      A
 Frequencies --   3181.5367              3218.0349              3797.8778
 Red. masses --      1.0915                 1.1154                 1.0662
 Frc consts  --      6.5096                 6.8058                 9.0605
 IR Inten    --      7.5270                 9.0688                21.7620

 - Thermochemistry -
 -------------------
 Temperature   298.150 Kelvin.  Pressure   1.00000 Atm.
 Atom     1 has atomic number  8 and mass  15.99491

 Molecular mass:   126.06808 amu.
 Principal axes and moments of inertia in atomic units:
                           1         2         3
     Eigenvalues --   481.377111774.668991978.23500
           X            0.99989   0.00302   0.01478
           Y           -0.00283   0.99992  -0.01242
           Z           -0.01482   0.01237   0.99981
 This molecule is an asymmetric top.
 Rotational symmetry number  1.
 Warning -- assumption of classical behavior for rotation
           may cause significant error
 Rotational temperatures (Kelvin)      0.17993     0.04881     0.04378
 Rotational constants (GHZ):           3.74912     1.01695     0.91230
 Zero-point vibrational energy     417443.3 (Joules/Mol)
                                   99.77133 (Kcal/Mol)
 Warning -- explicit consideration of  11 degrees of freedom as
           vibrations may cause significant error
 Vibrational temperatures:     98.54   138.23   307.13   414.39   428.59
          (Kelvin)            503.06   522.68   546.67   594.67   689.51
                              816.34   948.44  1014.77  1203.94  1245.20
                             1279.37  1298.97  1329.47  1381.25  1403.63
                             1498.45  1504.27  1514.20  1555.33  1589.50
                             1620.10  1682.38  1753.46  1796.31  1818.42
                             1842.54  1897.20  1911.57  1924.48  1936.64
                             2031.43  2052.52  2132.72  2139.57  2166.31
                             2639.86  4079.05  4346.36  4353.45  4415.21
                             4426.20  4450.03  4499.41  4577.52  4630.03
                             5464.29

 Zero-point correction=                           0.158996 (Hartree/Particle)
 Thermal correction to Energy=                    0.167441
 Thermal correction to Enthalpy=                  0.168385
 Thermal correction to Gibbs Free Energy=         0.125709
 Sum of electronic and zero-point Energies=           -423.033857
 Sum of electronic and thermal Energies=              -423.025413
 Sum of electronic and thermal Enthalpies=            -423.024468
 Sum of electronic and thermal Free Energies=         -423.067144

                     E (Thermal)             CV                S
                      KCal/Mol        Cal/Mol-Kelvin    Cal/Mol-Kelvin
 Total                  105.071             32.451             89.819
 Electronic               0.000              0.000              0.000
 Translational            0.889              2.981             40.409
 Rotational               0.889              2.981             28.915
 Vibrational            103.293             26.489             20.496
 Vibration     1          0.598              1.969              4.196
 Vibration     2          0.603              1.952              3.532
 Vibration     3          0.644              1.820              2.014
 Vibration     4          0.685              1.696              1.486
 Vibration     5          0.691              1.678              1.429
 Vibration     6          0.727              1.576              1.168
 Vibration     7          0.737              1.548              1.108
 Vibration     8          0.750              1.513              1.039
 Vibration     9          0.777              1.441              0.915
 Vibration    10          0.836              1.296              0.712
 Vibration    11          0.923              1.102              0.509

 Normal termination of Gaussian 09 at Mon Jan 27 19:45:05 2020.
