 Gaussian 09, Revision D.01,
 Gaussian 09:  ES64L-G09RevD.01 24-Apr-2013

 -----------------------------
 # b3lyp 6-31G(2df,p) opt Freq
 -----------------------------

 -----
 titel
 -----
 Symbolic Z-matrix:
 Charge =  0 Multiplicity = 1

 SCF Done:  E(RB3LYP) =  -423.197733333     A.U. after   13 cycles
 Optimization completed.
    -- Stationary point found.
 Normal termination of Gaussian 09 at Mon Jan 27 12:48:25 2020.

 ----------------------------------------------------------------------
 #N Geom=AllCheck Guess=TCheck SCRF=Check GenChk RB3LYP/6-31G(2df,p) Fr
 eq
 ----------------------------------------------------------------------

 Structure from the checkpoint file:  "/scratch/puck/g09_ef89548b-c6f5-4d81-902b-6faaa4ed826e/Gau-99328.chk"
 -----
 titel
 -----
 Charge =  0 Multiplicity = 1

                         Standard orientation:
 ---------------------------------------------------------------------
 Center     Atomic      Atomic             Coordinates (Angstroms)
 Number     Number       Type             X           Y           Z
 ---------------------------------------------------------------------
      1          6           0        2.240760    0.226318   -0.472710
      2          8           0        2.033654   -0.614517    0.633146
      3          6           0        0.802853   -0.166652    1.178938
      4          6           0       -0.037347    0.141131   -0.074478
      5          6           0       -1.103953    1.243438    0.134772
      6          6           0       -2.391254    0.465899    0.254062
      7          6           0       -2.244474   -0.804301   -0.122549
      8          6           0       -0.835021   -1.098701   -0.567062
      9          8           0        0.969286    0.533694   -1.016950
     10          1           0        2.743931    1.162058   -0.169467
     11          1           0        2.853575   -0.306351   -1.208082
     12          1           0        0.389224   -0.956828    1.807557
     13          1           0        0.949440    0.742253    1.784569
     14          1           0       -0.887318    1.869826    1.008506
     15          1           0       -1.115633    1.913838   -0.734349
     16          1           0       -3.320027    0.922273    0.577495
     17          1           0       -3.036267   -1.544640   -0.150322
     18          1           0       -0.425424   -2.035048   -0.170783
     19          1           0       -0.764398   -1.163592   -1.660519
 ---------------------------------------------------------------------

 SCF Done:  E(RB3LYP) =  -423.197733333     A.U. after    1 cycles

 The electronic state is 1-A.
 Alpha  occ. eigenvalues --  -19.15028 -19.14014 -10.27208 -10.24073 -10.23165
 Alpha  occ. eigenvalues --  -10.18478 -10.18230 -10.18124 -10.18024  -1.08742
 Alpha  occ. eigenvalues --   -0.99226  -0.84468  -0.75136  -0.71076  -0.66377
 Alpha  occ. eigenvalues --   -0.63510  -0.56666  -0.54299  -0.51064  -0.49772
 Alpha  occ. eigenvalues --   -0.49070  -0.45318  -0.43475  -0.41251  -0.38686
 Alpha  occ. eigenvalues --   -0.38430  -0.38019  -0.37151  -0.35071  -0.33456
 Alpha  occ. eigenvalues --   -0.32586  -0.27078  -0.24775  -0.24326
 Alpha virt. eigenvalues --    0.02149   0.09278   0.10639   0.11096   0.12997
 Alpha virt. eigenvalues --    0.13136   0.14729   0.16273   0.16840   0.17146
 Alpha virt. eigenvalues --    0.17624   0.17682   0.19800   0.20246   0.21533

 Mulliken charges:
               1
     1  C    0.013402
     2  O   -0.241482
     3  C   -0.156254
     4  C    0.424154
     5  C   -0.333783
     6  C   -0.063439
     7  C   -0.063738
     8  C   -0.315534
     9  O   -0.311007
    10  H    0.085400
    11  H    0.114114
    12  H    0.123424
    13  H    0.090494
    14  H    0.098799
    15  H    0.123728
    16  H    0.093773
    17  H    0.093093
    18  H    0.106632
    19  H    0.118224
 Sum of Mulliken charges =   0.00000

 Dipole moment (field-independent basis, Debye):
    X=             -0.8116    Y=              0.3092    Z=              0.6085  Tot=              1.0605
 Quadrupole moment (field-independent basis, Debye-Ang):
   XX=            -52.3004   YY=            -52.3472   ZZ=            -54.0861
   XY=              1.7375   XZ=             -1.7281   YZ=              1.9450

  Exact polarizability:  86.708   1.364  76.804  -4.935   5.512  62.646
 Approx polarizability: 109.911  -1.405 124.148  -6.927   8.609  97.024

                      1                      2                      3
                      A                      A                      A
 Frequencies --     65.9154                77.7728               222.1337
 Red. masses --      2.6415                 3.1653                 3.0360
 Frc consts  --      0.0068                 0.0113                 0.0883
 IR Inten    --      0.5099                 0.6254                 5.9961

                      4                      5                      6
                      A                      A                      A
 Frequencies --    288.5207               377.9356               386.5035
 Red. masses --      3.0119                 2.2399                 2.3876
 Frc consts  --      0.1477                 0.1885                 0.2101
 IR Inten    --      3.3349                 0.1114                 1.0528

                      7                      8                      9
                      A                      A                      A
 Frequencies --    423.5296               465.8132               665.1720
 Red. masses --      2.8382                 2.9889                 1.6630
 Frc consts  --      0.3000                 0.3821                 0.4335
 IR Inten    --      0.6130                 1.1004                 8.0557

                     10                     11                     12
                      A                      A                      A
 Frequencies --    721.0011               751.7220               772.3912
 Red. masses --      2.3689                 6.4347                 3.9306
 Frc consts  --      0.7256                 2.1423                 1.3816
 IR Inten    --     24.8054                 2.2417                 3.7234

                     13                     14                     15
                      A                      A                      A
 Frequencies --    812.8120               907.4502               939.9267
 Red. masses --      4.1271                 2.1047                 1.7675
 Frc consts  --      1.6065                 1.0211                 0.9200
 IR Inten    --      4.4290                 4.2369                12.9491

                     16                     17                     18
                      A                      A                      A
 Frequencies --    959.4135               976.5353               979.3273
 Red. masses --      1.7384                 2.0659                 1.6822
 Frc consts  --      0.9428                 1.1608                 0.9506
 IR Inten    --     10.8869                21.3208                15.3961

                     19                     20                     21
                      A                      A                      A
 Frequencies --    980.9438               989.6822              1031.0565
 Red. masses --      1.9364                 3.0421                 6.2258
 Frc consts  --      1.0978                 1.7556                 3.8995
 IR Inten    --     15.3993                29.5133                33.5294

                     22                     23                     24
                      A                      A                      A
 Frequencies --   1082.2382              1117.9716              1121.6966
 Red. masses --      2.0445                 1.9751                 2.8092
 Frc consts  --      1.4109                 1.4545                 2.0825
 IR Inten    --      8.2139                 6.3623               155.8175

                     25                     26                     27
                      A                      A                      A
 Frequencies --   1136.9103              1146.4537              1168.3203
 Red. masses --      1.2382                 1.4420                 1.7874
 Frc consts  --      0.9430                 1.1167                 1.4374
 IR Inten    --      5.1290                 5.2610                64.7832

                     28                     29                     30
                      A                      A                      A
 Frequencies --   1191.0901              1208.8325              1264.9142
 Red. masses --      1.7980                 1.2950                 1.4795
 Frc consts  --      1.5029                 1.1149                 1.3947
 IR Inten    --      1.3966                39.1228                14.7476

                     31                     32                     33
                      A                      A                      A
 Frequencies --   1271.1764              1291.9459              1345.2073
 Red. masses --      1.4835                 1.4866                 1.8283
 Frc consts  --      1.4124                 1.4619                 1.9493
 IR Inten    --      5.0866                 5.7252                17.1622

                     34                     35                     36
                      A                      A                      A
 Frequencies --   1361.9783              1374.8779              1432.2038
 Red. masses --      1.4406                 1.6027                 1.2748
 Frc consts  --      1.5745                 1.7850                 1.5406
 IR Inten    --      1.1363                 2.0065                 7.0699

                     37                     38                     39
                      A                      A                      A
 Frequencies --   1480.8149              1489.3969              1510.9971
 Red. masses --      1.0836                 1.0977                 1.0941
 Frc consts  --      1.4000                 1.4347                 1.4717
 IR Inten    --      3.6280                 2.1849                 1.5528

                     40                     41                     42
                      A                      A                      A
 Frequencies --   1549.3942              1685.6445              2939.9378
 Red. masses --      1.1047                 6.0565                 1.0703
 Frc consts  --      1.5625                10.1392                 5.4503
 IR Inten    --      5.4797                 2.2503               118.7509

                     43                     44                     45
                      A                      A                      A
 Frequencies --   2977.1735              3023.2808              3025.4230
 Red. masses --      1.0709                 1.0597                 1.0611
 Frc consts  --      5.5925                 5.7069                 5.7224
 IR Inten    --     52.0597                45.0417                 8.2285

                     46                     47                     48
                      A                      A                      A
 Frequencies --   3054.6674              3059.6305              3062.7584
 Red. masses --      1.1021                 1.1009                 1.0943
 Frc consts  --      6.0589                 6.0719                 6.0482
 IR Inten    --     21.3079                16.3265                57.2050

                     49                     50                     51
                      A                      A                      A
 Frequencies --   3118.9061              3183.0358              3207.9545
 Red. masses --      1.0939                 1.0845                 1.1039
 Frc consts  --      6.2695                 6.4741                 6.6930
 IR Inten    --     16.2286                 5.9040                26.5840

 - Thermochemistry -
 -------------------
 Temperature   298.150 Kelvin.  Pressure   1.00000 Atm.
 Atom     1 has atomic number  6 and mass  12.00000

 Molecular mass:   126.06808 amu.
 Principal axes and moments of inertia in atomic units:
                           1         2         3
     Eigenvalues --   479.406441430.941091486.03174
           X            0.99995   0.00946  -0.00426
           Y           -0.00832   0.97635   0.21603
           Z            0.00620  -0.21598   0.97638
 This molecule is an asymmetric top.
 Rotational symmetry number  1.
 Warning -- assumption of classical behavior for rotation
           may cause significant error
 Rotational temperatures (Kelvin)      0.18067     0.06053     0.05829
 Rotational constants (GHZ):           3.76453     1.26123     1.21447
 Zero-point vibrational energy     422762.6 (Joules/Mol)
                                  101.04269 (Kcal/Mol)
 Warning -- explicit consideration of   8 degrees of freedom as
           vibrations may cause significant error
 Vibrational temperatures:     94.84   111.90   319.60   415.12   543.76
          (Kelvin)            556.09   609.36   670.20   957.03  1037.36
                             1081.56  1111.30  1169.45  1305.62  1352.34
                             1380.38  1405.01  1409.03  1411.36  1423.93
                             1483.46  1557.10  1608.51  1613.87  1635.76
                             1649.49  1680.95  1713.71  1739.24  1819.93
                             1828.94  1858.82  1935.45  1959.58  1978.14
                             2060.62  2130.56  2142.91  2173.99  2229.23
                             2425.26  4229.91  4283.48  4349.82  4352.90
                             4394.98  4402.12  4406.62  4487.40  4579.67
                             4615.53

 Zero-point correction=                           0.161022 (Hartree/Particle)
 Thermal correction to Energy=                    0.168667
 Thermal correction to Enthalpy=                  0.169611
 Thermal correction to Gibbs Free Energy=         0.128297
 Sum of electronic and zero-point Energies=           -423.036712
 Sum of electronic and thermal Energies=              -423.029067
 Sum of electronic and thermal Enthalpies=            -423.028122
 Sum of electronic and thermal Free Energies=         -423.069437

                     E (Thermal)             CV                S
                      KCal/Mol        Cal/Mol-Kelvin    Cal/Mol-Kelvin
 Total                  105.840             29.428             86.953
 Electronic               0.000              0.000              0.000
 Translational            0.889              2.981             40.409
 Rotational               0.889              2.981             28.413
 Vibrational            104.063             23.466             18.132
 Vibration     1          0.597              1.971              4.272
 Vibration     2          0.599              1.964              3.946
 Vibration     3          0.648              1.807              1.942
 Vibration     4          0.685              1.695              1.483
 Vibration     5          0.748              1.517              1.047
 Vibration     6          0.755              1.499              1.014
 Vibration     7          0.786              1.419              0.880
 Vibration     8          0.823              1.326              0.749

 Optimization completed.
    -- Stationary point found.
 Normal termination of Gaussian 09 at Mon Jan 27 13:31:31 2020.
