 Gaussian 09, Revision D.01,
 Gaussian 09:  ES64L-G09RevD.01 24-Apr-2013

 -----------------------------
 # b3lyp 6-31G(2df,p) opt Freq
 -----------------------------

 -----
 titel
 -----
 Symbolic Z-matrix:
 Charge =  0 Multiplicity = 1

 SCF Done:  E(RB3LYP) =  -423.196063838     A.U. after   14 cycles
 Optimization completed.
    -- Stationary point found.
 Normal termination of Gaussian 09 at Mon Jan 27 23:58:47 2020.

 ----------------------------------------------------------------------
 #N Geom=AllCheck Guess=TCheck SCRF=Check GenChk RB3LYP/6-31G(2df,p) Fr
 eq
 ----------------------------------------------------------------------

 Structure from the checkpoint file:  "/scratch/puck/g09_89414d84-3015-44a7-af38-f5ea6d1a34df/Gau-68383.chk"
 -----
 titel
 -----
 Charge =  0 Multiplicity = 1

                         Standard orientation:
 ---------------------------------------------------------------------
 Center     Atomic      Atomic             Coordinates (Angstroms)
 Number     Number       Type             X           Y           Z
 ---------------------------------------------------------------------
      1          6           0        1.838122    0.436915    1.314134
      2          6           0        1.046807    1.020522    0.164706
      3          6           0        0.732005    0.268952   -1.088980
      4          8           0        0.935365   -1.128016   -1.060810
      5          6           0       -0.049262   -1.749630   -0.248731
      6          6           0       -0.923287   -0.640659    0.345590
      7          8           0       -1.899782   -0.812139    1.032057
      8          6           0       -0.415447    0.664658   -0.184318
      9          6           0       -1.430796    1.754239   -0.429101
     10          1           0        1.489805    0.827660    2.275367
     11          1           0        1.781550   -0.652697    1.347659
     12          1           0        2.895790    0.700529    1.208843
     13          1           0        1.221682    2.083270    0.007163
     14          1           0        0.889324    0.697068   -2.073829
     15          1           0       -0.678304   -2.415667   -0.854971
     16          1           0        0.415461   -2.352566    0.540943
     17          1           0       -1.913946    2.038499    0.510752
     18          1           0       -0.959320    2.644117   -0.855753
     19          1           0       -2.215559    1.421038   -1.115957
 ---------------------------------------------------------------------

 SCF Done:  E(RB3LYP) =  -423.196063838     A.U. after    1 cycles

 The electronic state is 1-A.
 Alpha  occ. eigenvalues --  -19.15542 -19.13268 -10.27124 -10.24683 -10.23945
 Alpha  occ. eigenvalues --  -10.20881 -10.20758 -10.18826 -10.18745  -1.06092
 Alpha  occ. eigenvalues --   -1.03868  -0.87165  -0.75010  -0.73398  -0.70336
 Alpha  occ. eigenvalues --   -0.62774  -0.58429  -0.52326  -0.51277  -0.47970
 Alpha  occ. eigenvalues --   -0.45239  -0.44733  -0.43930  -0.42391  -0.41081
 Alpha  occ. eigenvalues --   -0.39889  -0.39159  -0.37398  -0.37319  -0.36433
 Alpha  occ. eigenvalues --   -0.33293  -0.27918  -0.25501  -0.24025
 Alpha virt. eigenvalues --   -0.02151   0.08890   0.09236   0.10041   0.12522
 Alpha virt. eigenvalues --    0.12900   0.13627   0.14884   0.15985   0.16999
 Alpha virt. eigenvalues --    0.17404   0.19032   0.19634   0.20547   0.22241

 Mulliken charges:
               1
     1  C   -0.423448
     2  C   -0.080590
     3  C    0.041538
     4  O   -0.263078
     5  C   -0.189440
     6  C    0.321463
     7  O   -0.321511
     8  C    0.145083
     9  C   -0.477864
    10  H    0.128708
    11  H    0.133711
    12  H    0.126854
    13  H    0.096239
    14  H    0.106494
    15  H    0.135682
    16  H    0.133791
    17  H    0.141718
    18  H    0.116510
    19  H    0.128141
 Sum of Mulliken charges =   0.00000

 Dipole moment (field-independent basis, Debye):
    X=              1.3846    Y=              1.3884    Z=             -0.8096  Tot=              2.1214
 Quadrupole moment (field-independent basis, Debye-Ang):
   XX=            -58.3374   YY=            -50.1902   ZZ=            -54.2413
   XY=              0.0704   XZ=              5.3311   YZ=             -0.7186

  Exact polarizability:  79.630   2.502  79.382  -0.337  -1.504  67.937
 Approx polarizability: 119.571   6.776 111.656 -10.346  -1.873 104.167

                      1                      2                      3
                      A                      A                      A
 Frequencies --     99.0801               132.5137               140.5707
 Red. masses --      4.1058                 1.0363                 1.0567
 Frc consts  --      0.0237                 0.0107                 0.0123
 IR Inten    --      5.0996                 0.0806                 0.3197

                      4                      5                      6
                      A                      A                      A
 Frequencies --    163.5162               203.4867               244.3486
 Red. masses --      2.7492                 2.5831                 3.3894
 Frc consts  --      0.0433                 0.0630                 0.1192
 IR Inten    --      5.1983                 0.3923                 1.4263

                      7                      8                      9
                      A                      A                      A
 Frequencies --    262.2157               367.3943               456.6706
 Red. masses --      3.1765                 3.0601                 4.1297
 Frc consts  --      0.1287                 0.2434                 0.5074
 IR Inten    --      3.0858                 0.3068                10.3994

                     10                     11                     12
                      A                      A                      A
 Frequencies --    559.4647               566.1056               612.4989
 Red. masses --      3.5046                 3.3489                 4.1659
 Frc consts  --      0.6463                 0.6323                 0.9208
 IR Inten    --      1.8771                 1.9638                 8.0029

                     13                     14                     15
                      A                      A                      A
 Frequencies --    644.4642               689.6844               793.8098
 Red. masses --      4.5842                 3.7481                 2.9545
 Frc consts  --      1.1218                 1.0504                 1.0969
 IR Inten    --      0.5056                 5.6678                22.3237

                     16                     17                     18
                      A                      A                      A
 Frequencies --    854.5559               886.8235               957.7845
 Red. masses --      2.8733                 1.9293                 1.7543
 Frc consts  --      1.2363                 0.8940                 0.9482
 IR Inten    --     14.3605                 8.1674                21.3690

                     19                     20                     21
                      A                      A                      A
 Frequencies --    990.0515              1009.5781              1046.2177
 Red. masses --      1.7664                 1.8884                 1.5359
 Frc consts  --      1.0201                 1.1340                 0.9905
 IR Inten    --      1.0391                 4.0310                 9.3563

                     22                     23                     24
                      A                      A                      A
 Frequencies --   1061.5882              1077.8261              1100.0905
 Red. masses --      2.0958                 3.6867                 1.8088
 Frc consts  --      1.3916                 2.5234                 1.2897
 IR Inten    --     20.3055                17.5581                 4.9137

                     25                     26                     27
                      A                      A                      A
 Frequencies --   1122.8592              1152.2953              1161.7520
 Red. masses --      1.7283                 2.4392                 3.1021
 Frc consts  --      1.2839                 1.9082                 2.4668
 IR Inten    --      1.3705                52.8922                49.7037

                     28                     29                     30
                      A                      A                      A
 Frequencies --   1203.5262              1271.6565              1309.2437
 Red. masses --      1.1679                 1.5698                 2.0514
 Frc consts  --      0.9967                 1.4956                 2.0717
 IR Inten    --      5.5613                 3.0386                15.5140

                     31                     32                     33
                      A                      A                      A
 Frequencies --   1324.3941              1359.5557              1414.2382
 Red. masses --      1.9828                 1.3799                 1.2582
 Frc consts  --      2.0491                 1.5027                 1.4827
 IR Inten    --     27.4684                 4.7194                 0.1082

                     34                     35                     36
                      A                      A                      A
 Frequencies --   1419.1219              1439.8057              1483.0922
 Red. masses --      1.2464                 2.7156                 1.0658
 Frc consts  --      1.4789                 3.3168                 1.3812
 IR Inten    --      1.5570                 9.2514                 1.8324

                     37                     38                     39
                      A                      A                      A
 Frequencies --   1483.9805              1490.3704              1496.8243
 Red. masses --      1.0502                 1.0587                 1.0510
 Frc consts  --      1.3626                 1.3855                 1.3874
 IR Inten    --      5.7272                 2.2367                10.3339

                     40                     41                     42
                      A                      A                      A
 Frequencies --   1504.2924              1832.2688              3015.4844
 Red. masses --      1.0747                12.6325                 1.0595
 Frc consts  --      1.4329                24.9872                 5.6761
 IR Inten    --      9.5845               225.7552                30.1323

                     43                     44                     45
                      A                      A                      A
 Frequencies --   3036.7708              3042.6829              3055.9711
 Red. masses --      1.0349                 1.0382                 1.1027
 Frc consts  --      5.6230                 5.6632                 6.0674
 IR Inten    --     27.5964                25.2654                16.6212

                     46                     47                     48
                      A                      A                      A
 Frequencies --   3099.6805              3103.6483              3112.1764
 Red. masses --      1.1010                 1.1012                 1.1014
 Frc consts  --      6.2325                 6.2500                 6.2851
 IR Inten    --     16.3404                16.2811                 9.6640

                     49                     50                     51
                      A                      A                      A
 Frequencies --   3120.6436              3138.5112              3162.2304
 Red. masses --      1.0889                 1.0955                 1.0922
 Frc consts  --      6.2476                 6.3576                 6.4349
 IR Inten    --      4.2442                23.8099                23.3152

 - Thermochemistry -
 -------------------
 Temperature   298.150 Kelvin.  Pressure   1.00000 Atm.
 Atom     1 has atomic number  6 and mass  12.00000

 Molecular mass:   126.06808 amu.
 Principal axes and moments of inertia in atomic units:
                           1         2         3
     Eigenvalues --   897.523441023.403481277.11732
           X            0.99066  -0.09221   0.10043
           Y            0.09530   0.99510  -0.02646
           Z           -0.09750   0.03578   0.99459
 This molecule is an asymmetric top.
 Rotational symmetry number  1.
 Warning -- assumption of classical behavior for rotation
           may cause significant error
 Rotational temperatures (Kelvin)      0.09650     0.08463     0.06782
 Rotational constants (GHZ):           2.01080     1.76347     1.41314
 Zero-point vibrational energy     414371.0 (Joules/Mol)
                                   99.03704 (Kcal/Mol)
 Warning -- explicit consideration of  12 degrees of freedom as
           vibrations may cause significant error
 Vibrational temperatures:    142.55   190.66   202.25   235.26   292.77
          (Kelvin)            351.56   377.27   528.60   657.05   804.94
                              814.50   881.25   927.24   992.30  1142.11
                             1229.51  1275.94  1378.04  1424.46  1452.56
                             1505.27  1527.39  1550.75  1582.78  1615.54
                             1657.89  1671.50  1731.60  1829.63  1883.71
                             1905.51  1956.09  2034.77  2041.80  2071.56
                             2133.84  2135.11  2144.31  2153.59  2164.34
                             2636.22  4338.60  4369.23  4377.74  4396.86
                             4459.74  4465.45  4477.72  4489.90  4515.61
                             4549.74

 Zero-point correction=                           0.157826 (Hartree/Particle)
 Thermal correction to Energy=                    0.166838
 Thermal correction to Enthalpy=                  0.167782
 Thermal correction to Gibbs Free Energy=         0.124205
 Sum of electronic and zero-point Energies=           -423.038238
 Sum of electronic and thermal Energies=              -423.029226
 Sum of electronic and thermal Enthalpies=            -423.028282
 Sum of electronic and thermal Free Energies=         -423.071858

                     E (Thermal)             CV                S
                      KCal/Mol        Cal/Mol-Kelvin    Cal/Mol-Kelvin
 Total                  104.692             33.231             91.714
 Electronic               0.000              0.000              0.000
 Translational            0.889              2.981             40.409
 Rotational               0.889              2.981             28.552
 Vibrational            102.915             27.270             22.753
 Vibration     1          0.604              1.950              3.472
 Vibration     2          0.613              1.921              2.909
 Vibration     3          0.615              1.913              2.796
 Vibration     4          0.623              1.887              2.509
 Vibration     5          0.639              1.835              2.101
 Vibration     6          0.660              1.772              1.771
 Vibration     7          0.670              1.742              1.647
 Vibration     8          0.740              1.539              1.091
 Vibration     9          0.815              1.346              0.776
 Vibration    10          0.915              1.119              0.525
 Vibration    11          0.922              1.105              0.512
 Vibration    12          0.972              1.005              0.429

 Optimization completed.
    -- Stationary point found.
 Normal termination of Gaussian 09 at Tue Jan 28 00:42:39 2020.
