 Gaussian 09, Revision D.01,
 Gaussian 09:  ES64L-G09RevD.01 24-Apr-2013

 -----------------------------
 # b3lyp 6-31G(2df,p) opt Freq
 -----------------------------

 -----
 titel
 -----
 Symbolic Z-matrix:
 Charge =  0 Multiplicity = 1

 SCF Done:  E(RB3LYP) =  -423.161038481     A.U. after   14 cycles
 Optimization completed.
    -- Stationary point found.
 Normal termination of Gaussian 09 at Tue Jan 28 03:18:41 2020.

 ----------------------------------------------------------------------
 #N Geom=AllCheck Guess=TCheck SCRF=Check GenChk RB3LYP/6-31G(2df,p) Fr
 eq
 ----------------------------------------------------------------------

 Structure from the checkpoint file:  "/scratch/puck/g09_1235d69c-4066-4d47-a912-bcba39f750a1/Gau-46460.chk"
 -----
 titel
 -----
 Charge =  0 Multiplicity = 1

                         Standard orientation:
 ---------------------------------------------------------------------
 Center     Atomic      Atomic             Coordinates (Angstroms)
 Number     Number       Type             X           Y           Z
 ---------------------------------------------------------------------
      1          8           0       -1.025641    1.962935    0.350867
      2          6           0       -1.115186    0.795269   -0.430488
      3          6           0       -2.343546   -0.171670   -0.300571
      4          6           0       -1.360822   -1.332715   -0.114216
      5          6           0       -0.546561   -1.082728    1.120688
      6          6           0       -0.161079   -0.373472   -0.156696
      7          6           0        1.209681   -0.515983   -0.771583
      8          6           0        2.217047    0.396867   -0.091878
      9          8           0        3.311903    0.053970    0.272909
     10          1           0       -1.038264    1.706092    1.279180
     11          1           0       -1.012224    1.137256   -1.464660
     12          1           0       -3.005459    0.019425    0.550948
     13          1           0       -2.946105   -0.216098   -1.209782
     14          1           0       -1.444313   -2.314072   -0.564064
     15          1           0       -0.987000   -0.555443    1.966087
     16          1           0        0.135597   -1.874282    1.414640
     17          1           0        1.583669   -1.543168   -0.719193
     18          1           0        1.169120   -0.228263   -1.833208
     19          1           0        1.857678    1.439910    0.058306
 ---------------------------------------------------------------------

 SCF Done:  E(RB3LYP) =  -423.161038480     A.U. after    1 cycles

 The electronic state is 1-A.
 Alpha  occ. eigenvalues --  -19.14519 -19.13752 -10.26927 -10.24278 -10.20926
 Alpha  occ. eigenvalues --  -10.20557 -10.20053 -10.19953 -10.19150  -1.04418
 Alpha  occ. eigenvalues --   -1.02851  -0.90543  -0.76733  -0.73185  -0.65031
 Alpha  occ. eigenvalues --   -0.60009  -0.57632  -0.56395  -0.50877  -0.49197
 Alpha  occ. eigenvalues --   -0.46913  -0.45560  -0.43134  -0.42555  -0.41471
 Alpha  occ. eigenvalues --   -0.39810  -0.38418  -0.37642  -0.36559  -0.32786
 Alpha  occ. eigenvalues --   -0.29583  -0.28139  -0.26837  -0.24224
 Alpha virt. eigenvalues --   -0.01965   0.06249   0.08518   0.09897   0.11483
 Alpha virt. eigenvalues --    0.11987   0.12914   0.13988   0.15128   0.15860
 Alpha virt. eigenvalues --    0.17051   0.18708   0.19869   0.20188   0.22273

 Mulliken charges:
               1
     1  O   -0.430194
     2  C    0.078386
     3  C   -0.275670
     4  C   -0.110839
     5  C   -0.336656
     6  C    0.328544
     7  C   -0.406071
     8  C    0.160840
     9  O   -0.242504
    10  H    0.281462
    11  H    0.094071
    12  H    0.098396
    13  H    0.109594
    14  H    0.095271
    15  H    0.097197
    16  H    0.124874
    17  H    0.120650
    18  H    0.120667
    19  H    0.091980
 Sum of Mulliken charges =   0.00000

 Dipole moment (field-independent basis, Debye):
    X=             -2.6159    Y=             -1.1987    Z=             -0.3804  Tot=              2.9025
 Quadrupole moment (field-independent basis, Debye-Ang):
   XX=            -64.9925   YY=            -55.7925   ZZ=            -48.9327
   XY=              1.5109   XZ=             -2.7285   YZ=              1.0807

  Exact polarizability:  87.586  -0.081  72.343   2.779  -0.175  67.835
 Approx polarizability: 120.608  -1.399 108.169   6.330  -1.003 105.711

                      1                      2                      3
                      A                      A                      A
 Frequencies --     47.0021                67.3424               122.5154
 Red. masses --      4.8936                 4.2933                 2.6867
 Frc consts  --      0.0064                 0.0115                 0.0238
 IR Inten    --      4.7482                 2.7504                 3.9392

                      4                      5                      6
                      A                      A                      A
 Frequencies --    184.6967               267.3051               283.8447
 Red. masses --      2.7964                 1.4478                 2.8397
 Frc consts  --      0.0562                 0.0609                 0.1348
 IR Inten    --      1.6796                43.9162                 3.9669

                      7                      8                      9
                      A                      A                      A
 Frequencies --    327.5759               383.6371               441.7142
 Red. masses --      2.2237                 2.6171                 1.9637
 Frc consts  --      0.1406                 0.2269                 0.2257
 IR Inten    --     25.6953                19.2568                 2.9953

                     10                     11                     12
                      A                      A                      A
 Frequencies --    461.4111               557.8907               658.7259
 Red. masses --      2.9947                 2.6047                 3.6725
 Frc consts  --      0.3756                 0.4776                 0.9389
 IR Inten    --      9.7392                14.7220                 5.0209

                     13                     14                     15
                      A                      A                      A
 Frequencies --    707.7289               795.6421               827.5839
 Red. masses --      2.4215                 1.9209                 2.2408
 Frc consts  --      0.7146                 0.7164                 0.9042
 IR Inten    --      7.4050                 6.2907                 1.0183

                     16                     17                     18
                      A                      A                      A
 Frequencies --    848.4526               892.7578               944.7806
 Red. masses --      2.2865                 2.1903                 1.7017
 Frc consts  --      0.9698                 1.0285                 0.8949
 IR Inten    --     13.5893                 2.0327                 9.5213

                     19                     20                     21
                      A                      A                      A
 Frequencies --    978.3705               991.3398              1022.6164
 Red. masses --      1.5972                 1.9551                 1.5100
 Frc consts  --      0.9008                 1.1320                 0.9303
 IR Inten    --      5.9385                 9.6683                 3.5143

                     22                     23                     24
                      A                      A                      A
 Frequencies --   1037.2721              1064.3404              1079.4377
 Red. masses --      1.5375                 1.6496                 1.8993
 Frc consts  --      0.9747                 1.1010                 1.3039
 IR Inten    --      1.5195                10.9182                 7.6313

                     25                     26                     27
                      A                      A                      A
 Frequencies --   1092.6042              1112.2346              1156.1587
 Red. masses --      1.7168                 3.0288                 1.6584
 Frc consts  --      1.2075                 2.2076                 1.3061
 IR Inten    --     10.9340               116.0832                20.4375

                     28                     29                     30
                      A                      A                      A
 Frequencies --   1186.4057              1209.6042              1240.9615
 Red. masses --      1.6265                 1.4284                 1.7071
 Frc consts  --      1.3488                 1.2314                 1.5489
 IR Inten    --     12.2109                13.3715                 0.9655

                     31                     32                     33
                      A                      A                      A
 Frequencies --   1263.5522              1296.5786              1309.1114
 Red. masses --      1.3569                 1.4835                 1.7501
 Frc consts  --      1.2764                 1.4693                 1.7672
 IR Inten    --      0.9353                 3.5093                 2.4752

                     34                     35                     36
                      A                      A                      A
 Frequencies --   1315.0176              1389.9732              1430.2853
 Red. masses --      2.0363                 2.3367                 1.1800
 Frc consts  --      2.0747                 2.6599                 1.4223
 IR Inten    --     13.0734                 5.2187                 0.7956

                     37                     38                     39
                      A                      A                      A
 Frequencies --   1437.6374              1454.3741              1482.1498
 Red. masses --      1.2713                 1.1054                 1.1218
 Frc consts  --      1.5482                 1.3775                 1.4520
 IR Inten    --     62.2634                15.5734                 1.6195

                     40                     41                     42
                      A                      A                      A
 Frequencies --   1505.7233              1833.4375              2884.5387
 Red. masses --      1.2704                 9.9167                 1.0835
 Frc consts  --      1.6971                19.6404                 5.3114
 IR Inten    --      3.7146               186.1139                73.5186

                     43                     44                     45
                      A                      A                      A
 Frequencies --   3001.3357              3046.4755              3067.7504
 Red. masses --      1.0659                 1.0636                 1.0869
 Frc consts  --      5.6573                 5.8161                 6.0270
 IR Inten    --     15.8773                42.0353                22.5367

                     46                     47                     48
                      A                      A                      A
 Frequencies --   3088.3674              3092.1565              3114.2590
 Red. masses --      1.0939                 1.0613                 1.1020
 Frc consts  --      6.1471                 5.9788                 6.2969
 IR Inten    --     11.6033                19.5373                24.9232

                     49                     50                     51
                      A                      A                      A
 Frequencies --   3187.6124              3197.4143              3806.5497
 Red. masses --      1.1014                 1.1000                 1.0657
 Frc consts  --      6.5934                 6.6256                 9.0978
 IR Inten    --      5.1403                17.0375                12.1533

 - Thermochemistry -
 -------------------
 Temperature   298.150 Kelvin.  Pressure   1.00000 Atm.
 Atom     1 has atomic number  8 and mass  15.99491

 Molecular mass:   126.06808 amu.
 Principal axes and moments of inertia in atomic units:
                           1         2         3
     Eigenvalues --   624.015711610.346281913.25205
           X            0.99997   0.00486  -0.00555
           Y           -0.00487   0.99999  -0.00036
           Z            0.00555   0.00039   0.99998
 This molecule is an asymmetric top.
 Rotational symmetry number  1.
 Warning -- assumption of classical behavior for rotation
           may cause significant error
 Rotational temperatures (Kelvin)      0.13880     0.05379     0.04527
 Rotational constants (GHZ):           2.89214     1.12072     0.94328
 Zero-point vibrational energy     413885.5 (Joules/Mol)
                                   98.92101 (Kcal/Mol)
 Warning -- explicit consideration of  11 degrees of freedom as
           vibrations may cause significant error
 Vibrational temperatures:     67.63    96.89   176.27   265.74   384.59
          (Kelvin)            408.39   471.31   551.97   635.53   663.87
                              802.68   947.76  1018.26  1144.75  1190.71
                             1220.73  1284.48  1359.33  1407.66  1426.32
                             1471.32  1492.40  1531.35  1553.07  1572.01
                             1600.26  1663.45  1706.97  1740.35  1785.46
                             1817.97  1865.49  1883.52  1892.01  1999.86
                             2057.86  2068.44  2092.52  2132.48  2166.40
                             2637.90  4150.20  4318.25  4383.19  4413.80
                             4443.47  4448.92  4480.72  4586.26  4600.36
                             5476.77

 Zero-point correction=                           0.157641 (Hartree/Particle)
 Thermal correction to Energy=                    0.166674
 Thermal correction to Enthalpy=                  0.167618
 Thermal correction to Gibbs Free Energy=         0.122967
 Sum of electronic and zero-point Energies=           -423.003398
 Sum of electronic and thermal Energies=              -422.994364
 Sum of electronic and thermal Enthalpies=            -422.993420
 Sum of electronic and thermal Free Energies=         -423.038072

                     E (Thermal)             CV                S
                      KCal/Mol        Cal/Mol-Kelvin    Cal/Mol-Kelvin
 Total                  104.590             33.253             93.977
 Electronic               0.000              0.000              0.000
 Translational            0.889              2.981             40.409
 Rotational               0.889              2.981             29.043
 Vibrational            102.812             27.291             24.526
 Vibration     1          0.595              1.979              4.940
 Vibration     2          0.598              1.970              4.230
 Vibration     3          0.610              1.930              3.060
 Vibration     4          0.631              1.861              2.280
 Vibration     5          0.672              1.733              1.614
 Vibration     6          0.682              1.704              1.510
 Vibration     7          0.711              1.620              1.272
 Vibration     8          0.753              1.505              1.025
 Vibration     9          0.801              1.379              0.821
 Vibration    10          0.819              1.336              0.762
 Vibration    11          0.913              1.122              0.528

 Normal termination of Gaussian 09 at Tue Jan 28 05:13:14 2020.
