 Gaussian 09, Revision D.01,
 Gaussian 09:  ES64L-G09RevD.01 24-Apr-2013

 -----------------------------
 # b3lyp 6-31G(2df,p) opt Freq
 -----------------------------

 -----
 titel
 -----
 Symbolic Z-matrix:
 Charge =  0 Multiplicity = 1

 SCF Done:  E(RB3LYP) =  -423.127611401     A.U. after   12 cycles
 Optimization completed.
    -- Stationary point found.
 Normal termination of Gaussian 09 at Mon Jan 27 23:42:44 2020.

 ----------------------------------------------------------------------
 #N Geom=AllCheck Guess=TCheck SCRF=Check GenChk RB3LYP/6-31G(2df,p) Fr
 eq
 ----------------------------------------------------------------------

 Structure from the checkpoint file:  "/scratch/puck/g09_5b581567-d286-4640-ab0c-f3c281e423fe/Gau-67895.chk"
 -----
 titel
 -----
 Charge =  0 Multiplicity = 1

                         Standard orientation:
 ---------------------------------------------------------------------
 Center     Atomic      Atomic             Coordinates (Angstroms)
 Number     Number       Type             X           Y           Z
 ---------------------------------------------------------------------
      1          8           0       -2.603753   -0.245161    0.488979
      2          6           0       -1.349111    0.380654    0.600989
      3          6           0       -0.808322    1.026615   -0.659633
      4          6           0        0.594345    1.586588   -0.379888
      5          6           0        1.056055    0.170245    0.037313
      6          6           0        2.319580   -0.510565   -0.387322
      7          6           0        2.047651   -0.258373    1.080685
      8          6           0       -0.326778   -0.371652   -0.196191
      9          8           0       -0.561686   -1.644733   -0.650951
     10          1           0       -3.268524    0.420209    0.285040
     11          1           0       -1.140845    0.797779    1.590034
     12          1           0       -1.469506    1.324962   -1.465427
     13          1           0        1.097136    1.944886   -1.281710
     14          1           0        0.653661    2.361319    0.393640
     15          1           0        2.238936   -1.529047   -0.751322
     16          1           0        3.081120    0.087538   -0.878155
     17          1           0        1.796556   -1.108932    1.706349
     18          1           0        2.625906    0.511860    1.580924
     19          1           0       -1.491442   -1.832480   -0.459315
 ---------------------------------------------------------------------

 SCF Done:  E(RB3LYP) =  -423.127611401     A.U. after    1 cycles

 The electronic state is 1-A.
 Alpha  occ. eigenvalues --  -19.15737 -19.14259 -10.23602 -10.23305 -10.19293
 Alpha  occ. eigenvalues --  -10.18644 -10.18467 -10.17795 -10.17736  -1.05023
 Alpha  occ. eigenvalues --   -1.02054  -0.88862  -0.82764  -0.69880  -0.62596
 Alpha  occ. eigenvalues --   -0.59725  -0.58931  -0.53943  -0.51616  -0.50855
 Alpha  occ. eigenvalues --   -0.48017  -0.46230  -0.42141  -0.41427  -0.39255
 Alpha  occ. eigenvalues --   -0.36935  -0.35978  -0.35524  -0.32921  -0.31178
 Alpha  occ. eigenvalues --   -0.29466  -0.28686  -0.25603  -0.21564
 Alpha virt. eigenvalues --    0.06242   0.10420   0.10656   0.11336   0.12441
 Alpha virt. eigenvalues --    0.13860   0.14421   0.14644   0.15348   0.16899
 Alpha virt. eigenvalues --    0.18815   0.20030   0.21446   0.22786   0.23736

 Mulliken charges:
               1
     1  O   -0.450400
     2  C    0.007797
     3  C   -0.205709
     4  C   -0.332290
     5  C    0.318565
     6  C   -0.327034
     7  C   -0.335596
     8  C    0.370189
     9  O   -0.469945
    10  H    0.294446
    11  H    0.082493
    12  H    0.085388
    13  H    0.110210
    14  H    0.094722
    15  H    0.129373
    16  H    0.107638
    17  H    0.116297
    18  H    0.108942
    19  H    0.294916
 Sum of Mulliken charges =   0.00000

 Dipole moment (field-independent basis, Debye):
    X=             -1.1482    Y=              1.7661    Z=              0.1313  Tot=              2.1106
 Quadrupole moment (field-independent basis, Debye-Ang):
   XX=            -47.2702   YY=            -53.3372   ZZ=            -53.8231
   XY=             -1.1419   XZ=              1.0305   YZ=             -0.6906

  Exact polarizability:  88.477  -1.503  73.726   0.539  -1.191  66.830
 Approx polarizability: 116.220  -2.133 111.908  -0.256  -1.233 102.310

                      1                      2                      3
                      A                      A                      A
 Frequencies --    109.5237               201.9656               204.7469
 Red. masses --      3.8954                 2.4989                 3.2839
 Frc consts  --      0.0275                 0.0601                 0.0811
 IR Inten    --      1.7782                 0.5193                 4.5284

                      4                      5                      6
                      A                      A                      A
 Frequencies --    249.9675               275.2790               288.5501
 Red. masses --      3.4762                 1.2650                 2.7027
 Frc consts  --      0.1280                 0.0565                 0.1326
 IR Inten    --      4.0190                70.4502                 8.6171

                      7                      8                      9
                      A                      A                      A
 Frequencies --    346.7713               429.4033               449.0177
 Red. masses --      2.3380                 1.0991                 3.7998
 Frc consts  --      0.1656                 0.1194                 0.4514
 IR Inten    --      0.7990                84.4278                 8.9725

                     10                     11                     12
                      A                      A                      A
 Frequencies --    454.7740               553.7461               583.8601
 Red. masses --      3.0048                 3.6612                 3.9791
 Frc consts  --      0.3661                 0.6614                 0.7992
 IR Inten    --      8.9816                15.3336                 4.0231

                     13                     14                     15
                      A                      A                      A
 Frequencies --    711.3080               775.3078               806.3843
 Red. masses --      3.8549                 1.2513                 1.7899
 Frc consts  --      1.1491                 0.4432                 0.6857
 IR Inten    --      6.2987                 0.7140                 3.3731

                     16                     17                     18
                      A                      A                      A
 Frequencies --    849.9000               856.5230               897.6013
 Red. masses --      3.0226                 2.4562                 1.6605
 Frc consts  --      1.2864                 1.0617                 0.7882
 IR Inten    --     17.2056                 6.9580                11.9555

                     19                     20                     21
                      A                      A                      A
 Frequencies --    930.0482               944.3753               977.2704
 Red. masses --      2.0046                 1.4711                 2.0205
 Frc consts  --      1.0216                 0.7730                 1.1370
 IR Inten    --      1.7272                 5.5970                17.5581

                     22                     23                     24
                      A                      A                      A
 Frequencies --    995.3377              1053.0657              1057.3471
 Red. masses --      2.0863                 1.4091                 2.7050
 Frc consts  --      1.2178                 0.9207                 1.7818
 IR Inten    --      7.3949                14.4229                32.7833

                     25                     26                     27
                      A                      A                      A
 Frequencies --   1073.8777              1078.1138              1104.5737
 Red. masses --      1.6079                 1.3917                 2.0476
 Frc consts  --      1.0925                 0.9531                 1.4719
 IR Inten    --     16.6678                 1.1509                17.0779

                     28                     29                     30
                      A                      A                      A
 Frequencies --   1141.8660              1165.5220              1191.0692
 Red. masses --      2.0459                 1.6149                 1.2856
 Frc consts  --      1.5717                 1.2925                 1.0746
 IR Inten    --     16.9008                25.1303                 0.1766

                     31                     32                     33
                      A                      A                      A
 Frequencies --   1221.0460              1246.9706              1260.0530
 Red. masses --      1.6607                 2.3033                 1.5193
 Frc consts  --      1.4588                 2.1102                 1.4213
 IR Inten    --     17.9021                 3.2002                31.3281

                     34                     35                     36
                      A                      A                      A
 Frequencies --   1287.8236              1336.2170              1339.7644
 Red. masses --      1.2904                 1.7030                 1.9203
 Frc consts  --      1.2609                 1.7915                 2.0308
 IR Inten    --     47.2151                75.2088                52.1962

                     37                     38                     39
                      A                      A                      A
 Frequencies --   1435.3428              1455.1346              1460.4591
 Red. masses --      3.3259                 1.6549                 1.1064
 Frc consts  --      4.0372                 2.0646                 1.3905
 IR Inten    --     66.6456                 3.6414                 2.8768

                     40                     41                     42
                      A                      A                      A
 Frequencies --   1492.3910              1510.6330              3030.6267
 Red. masses --      1.1790                 1.9821                 1.0625
 Frc consts  --      1.5472                 2.6649                 5.7498
 IR Inten    --      5.3234                 1.2198                49.8712

                     43                     44                     45
                      A                      A                      A
 Frequencies --   3055.3550              3095.0582              3123.9881
 Red. masses --      1.0877                 1.1023                 1.0506
 Frc consts  --      5.9826                 6.2214                 6.0410
 IR Inten    --     42.6144                19.8030                17.9224

                     46                     47                     48
                      A                      A                      A
 Frequencies --   3127.8102              3175.0485              3204.5935
 Red. masses --      1.0579                 1.0927                 1.1175
 Frc consts  --      6.0977                 6.4901                 6.7615
 IR Inten    --     12.5527                17.5705                 1.0622

                     49                     50                     51
                      A                      A                      A
 Frequencies --   3219.9965              3747.3994              3812.8115
 Red. masses --      1.1154                 1.0646                 1.0667
 Frc consts  --      6.8137                 8.8085                 9.1362
 IR Inten    --     12.5932                59.1957                28.8184

 - Thermochemistry -
 -------------------
 Temperature   298.150 Kelvin.  Pressure   1.00000 Atm.
 Atom     1 has atomic number  8 and mass  15.99491

 Molecular mass:   126.06808 amu.
 Principal axes and moments of inertia in atomic units:
                           1         2         3
     Eigenvalues --   591.849731326.871641549.05020
           X            0.99995  -0.00714   0.00674
           Y            0.00728   0.99977  -0.02033
           Z           -0.00660   0.02037   0.99977
 This molecule is an asymmetric top.
 Rotational symmetry number  1.
 Warning -- assumption of classical behavior for rotation
           may cause significant error
 Rotational temperatures (Kelvin)      0.14634     0.06528     0.05591
 Rotational constants (GHZ):           3.04932     1.36015     1.16506
 Zero-point vibrational energy     415078.0 (Joules/Mol)
                                   99.20602 (Kcal/Mol)
 Warning -- explicit consideration of  12 degrees of freedom as
           vibrations may cause significant error
 Vibrational temperatures:    157.58   290.58   294.58   359.65   396.06
          (Kelvin)            415.16   498.93   617.81   646.04   654.32
                              796.72   840.04  1023.41  1115.49  1160.21
                             1222.81  1232.34  1291.45  1338.13  1358.74
                             1406.07  1432.07  1515.12  1521.28  1545.07
                             1551.16  1589.23  1642.89  1676.92  1713.68
                             1756.81  1794.11  1812.93  1852.89  1922.52
                             1927.62  2065.14  2093.61  2101.27  2147.22
                             2173.46  4360.39  4395.97  4453.09  4494.72
                             4500.22  4568.18  4610.69  4632.85  5391.67
                             5485.78

 Zero-point correction=                           0.158095 (Hartree/Particle)
 Thermal correction to Energy=                    0.166579
 Thermal correction to Enthalpy=                  0.167523
 Thermal correction to Gibbs Free Energy=         0.125583
 Sum of electronic and zero-point Energies=           -422.969517
 Sum of electronic and thermal Energies=              -422.961033
 Sum of electronic and thermal Enthalpies=            -422.960088
 Sum of electronic and thermal Free Energies=         -423.002028

                     E (Thermal)             CV                S
                      KCal/Mol        Cal/Mol-Kelvin    Cal/Mol-Kelvin
 Total                  104.530             33.689             88.269
 Electronic               0.000              0.000              0.000
 Translational            0.889              2.981             40.409
 Rotational               0.889              2.981             28.588
 Vibrational            102.752             27.727             19.272
 Vibration     1          0.606              1.942              3.277
 Vibration     2          0.639              1.837              2.115
 Vibration     3          0.640              1.833              2.090
 Vibration     4          0.663              1.763              1.731
 Vibration     5          0.677              1.719              1.563
 Vibration     6          0.685              1.695              1.482
 Vibration     7          0.725              1.582              1.181
 Vibration     8          0.791              1.406              0.861
 Vibration     9          0.808              1.363              0.799
 Vibration    10          0.813              1.350              0.781
 Vibration    11          0.909              1.131              0.536
 Vibration    12          0.941              1.066              0.478

 Normal termination of Gaussian 09 at Tue Jan 28 00:25:56 2020.
