 Gaussian 09, Revision D.01,
 Gaussian 09:  ES64L-G09RevD.01 24-Apr-2013

 -----------------------------
 # b3lyp 6-31G(2df,p) opt Freq
 -----------------------------

 -----
 titel
 -----
 Symbolic Z-matrix:
 Charge =  0 Multiplicity = 1

 SCF Done:  E(RB3LYP) =  -423.166563768     A.U. after   14 cycles
 Optimization completed.
    -- Stationary point found.
 Normal termination of Gaussian 09 at Tue Jan 28 11:37:27 2020.

 ----------------------------------------------------------------------
 #N Geom=AllCheck Guess=TCheck SCRF=Check GenChk RB3LYP/6-31G(2df,p) Fr
 eq
 ----------------------------------------------------------------------

 Structure from the checkpoint file:  "/scratch/puck/g09_643a26d9-0aff-4d4b-8571-19512f060157/Gau-26232.chk"
 -----
 titel
 -----
 Charge =  0 Multiplicity = 1

                         Standard orientation:
 ---------------------------------------------------------------------
 Center     Atomic      Atomic             Coordinates (Angstroms)
 Number     Number       Type             X           Y           Z
 ---------------------------------------------------------------------
      1          6           0        2.704817   -0.469255   -0.268819
      2          8           0        1.548030    0.268402   -0.627220
      3          6           0        0.742397    0.628330    0.475515
      4          8           0        0.186647   -0.503539    1.119694
      5          6           0       -0.979747   -1.061012    0.583558
      6          6           0       -1.219442   -1.241490   -0.879793
      7          6           0       -1.983829   -0.158509   -0.100753
      8          6           0       -1.547801    1.243723   -0.240757
      9          6           0       -0.290190    1.612533    0.006407
     10          1           0        2.447397   -1.424663    0.202373
     11          1           0        3.260218   -0.656526   -1.190295
     12          1           0        3.342522    0.102131    0.422835
     13          1           0        1.382703    1.075288    1.251751
     14          1           0       -1.345564   -1.821735    1.264008
     15          1           0       -0.460624   -0.891053   -1.567853
     16          1           0       -1.773890   -2.119853   -1.193437
     17          1           0       -3.040725   -0.327255    0.075354
     18          1           0       -2.286182    1.980337   -0.544978
     19          1           0        0.039497    2.638510   -0.111703
 ---------------------------------------------------------------------

 SCF Done:  E(RB3LYP) =  -423.166563768     A.U. after    1 cycles

 The electronic state is 1-A.
 Alpha  occ. eigenvalues --  -19.14829 -19.14019 -10.27740 -10.23740 -10.21909
 Alpha  occ. eigenvalues --  -10.19281 -10.18937 -10.18281 -10.17722  -1.06683
 Alpha  occ. eigenvalues --   -1.00809  -0.85470  -0.78510  -0.70575  -0.65081
 Alpha  occ. eigenvalues --   -0.63128  -0.58797  -0.53234  -0.51175  -0.49984
 Alpha  occ. eigenvalues --   -0.47682  -0.46024  -0.43462  -0.42911  -0.40069
 Alpha  occ. eigenvalues --   -0.38472  -0.36990  -0.36239  -0.34991  -0.32681
 Alpha  occ. eigenvalues --   -0.29344  -0.26854  -0.24362  -0.23562
 Alpha virt. eigenvalues --    0.01044   0.08402   0.10811   0.12703   0.13336
 Alpha virt. eigenvalues --    0.14898   0.15159   0.16062   0.16682   0.17203
 Alpha virt. eigenvalues --    0.18253   0.18758   0.19397   0.22142   0.24137

 Mulliken charges:
               1
     1  C   -0.240827
     2  O   -0.238403
     3  C    0.153882
     4  O   -0.264539
     5  C    0.122024
     6  C   -0.326794
     7  C   -0.124726
     8  C   -0.048549
     9  C   -0.108415
    10  H    0.124931
    11  H    0.124869
    12  H    0.104665
    13  H    0.078446
    14  H    0.103290
    15  H    0.145818
    16  H    0.109595
    17  H    0.088979
    18  H    0.096108
    19  H    0.099646
 Sum of Mulliken charges =   0.00000

 Dipole moment (field-independent basis, Debye):
    X=             -0.3994    Y=             -0.1681    Z=              0.0367  Tot=              0.4349
 Quadrupole moment (field-independent basis, Debye-Ang):
   XX=            -47.0292   YY=            -50.2161   ZZ=            -56.0596
   XY=              0.6421   XZ=              0.6680   YZ=              0.9593

  Exact polarizability:  92.849   3.861  78.496   3.513   2.051  59.677
 Approx polarizability: 129.848   8.728 112.828   7.286   1.733  95.168

                      1                      2                      3
                      A                      A                      A
 Frequencies --     96.1807               135.4721               167.2462
 Red. masses --      3.2995                 1.5874                 2.1273
 Frc consts  --      0.0180                 0.0172                 0.0351
 IR Inten    --      1.2645                 2.7039                 1.7787

                      4                      5                      6
                      A                      A                      A
 Frequencies --    204.4037               298.4293               349.6369
 Red. masses --      2.4229                 2.5962                 3.4678
 Frc consts  --      0.0596                 0.1362                 0.2498
 IR Inten    --      3.8230                 6.0301                 3.2118

                      7                      8                      9
                      A                      A                      A
 Frequencies --    400.5053               492.0948               527.8565
 Red. masses --      2.9734                 5.3173                 4.0812
 Frc consts  --      0.2810                 0.7586                 0.6700
 IR Inten    --      1.7642                 4.6343                 2.2779

                     10                     11                     12
                      A                      A                      A
 Frequencies --    608.7301               653.4904               722.8933
 Red. masses --      3.7296                 5.5405                 1.9686
 Frc consts  --      0.8143                 1.3940                 0.6061
 IR Inten    --      0.3156                 0.8652                 4.7942

                     13                     14                     15
                      A                      A                      A
 Frequencies --    758.6311               796.9761               820.8597
 Red. masses --      1.7866                 1.8919                 3.2699
 Frc consts  --      0.6058                 0.7080                 1.2981
 IR Inten    --     15.1158                17.9817                 8.9780

                     16                     17                     18
                      A                      A                      A
 Frequencies --    879.3488               950.6432               972.4258
 Red. masses --      2.1513                 2.5177                 3.9597
 Frc consts  --      0.9801                 1.3406                 2.2061
 IR Inten    --      3.5254                 6.5140               102.6102

                     19                     20                     21
                      A                      A                      A
 Frequencies --    979.2364              1000.6428              1005.6788
 Red. masses --      1.9422                 1.9760                 2.3392
 Frc consts  --      1.0973                 1.1657                 1.3939
 IR Inten    --      8.7829                17.0036                 8.9546

                     22                     23                     24
                      A                      A                      A
 Frequencies --   1049.5698              1086.6473              1098.1782
 Red. masses --      1.3014                 3.8383                 1.6268
 Frc consts  --      0.8447                 2.6703                 1.1559
 IR Inten    --      1.4055               201.6188                 3.6765

                     25                     26                     27
                      A                      A                      A
 Frequencies --   1114.2080              1128.0073              1178.9289
 Red. masses --      1.4802                 1.9824                 1.2937
 Frc consts  --      1.0827                 1.4861                 1.0594
 IR Inten    --     36.5154                68.9537                 4.6613

                     28                     29                     30
                      A                      A                      A
 Frequencies --   1186.9783              1197.4919              1209.6626
 Red. masses --      1.8991                 1.2601                 1.4589
 Frc consts  --      1.5764                 1.0646                 1.2578
 IR Inten    --     32.8957                10.8244                22.2241

                     31                     32                     33
                      A                      A                      A
 Frequencies --   1241.3394              1350.9372              1380.8601
 Red. masses --      1.8963                 1.2103                 1.4219
 Frc consts  --      1.7216                 1.3014                 1.5974
 IR Inten    --     46.3707                 6.1853                24.1521

                     34                     35                     36
                      A                      A                      A
 Frequencies --   1384.1400              1422.5852              1438.8051
 Red. masses --      1.3243                 1.3752                 1.8184
 Frc consts  --      1.4948                 1.6397                 2.2179
 IR Inten    --      2.5092                 2.3743                24.0899

                     37                     38                     39
                      A                      A                      A
 Frequencies --   1469.6477              1475.0737              1483.6521
 Red. masses --      1.3337                 1.2087                 1.0500
 Frc consts  --      1.6972                 1.5495                 1.3617
 IR Inten    --     13.8956                 7.0974                 3.8934

                     40                     41                     42
                      A                      A                      A
 Frequencies --   1512.8818              1711.2469              2984.5170
 Red. masses --      1.0553                 6.6829                 1.0757
 Frc consts  --      1.4231                11.5303                 5.6455
 IR Inten    --      5.5042                13.2006                24.2812

                     43                     44                     45
                      A                      A                      A
 Frequencies --   2991.8500              3065.7490              3124.8360
 Red. masses --      1.0510                 1.0918                 1.1008
 Frc consts  --      5.5427                 6.0458                 6.3331
 IR Inten    --     94.8050                33.3785                24.0560

                     46                     47                     48
                      A                      A                      A
 Frequencies --   3135.0819              3155.9602              3167.1442
 Red. masses --      1.0554                 1.0867                 1.0884
 Frc consts  --      6.1118                 6.3768                 6.4326
 IR Inten    --     12.1461                 4.3995                19.6729

                     49                     50                     51
                      A                      A                      A
 Frequencies --   3175.2820              3197.5873              3241.2181
 Red. masses --      1.0918                 1.0959                 1.1153
 Frc consts  --      6.4858                 6.6016                 6.9036
 IR Inten    --     24.8484                13.3824                 3.3140

 - Thermochemistry -
 -------------------
 Temperature   298.150 Kelvin.  Pressure   1.00000 Atm.
 Atom     1 has atomic number  6 and mass  12.00000

 Molecular mass:   126.06808 amu.
 Principal axes and moments of inertia in atomic units:
                           1         2         3
     Eigenvalues --   611.383061222.960001455.16516
           X            0.99996  -0.00395   0.00784
           Y            0.00370   0.99947   0.03229
           Z           -0.00797  -0.03226   0.99945
 This molecule is an asymmetric top.
 Rotational symmetry number  1.
 Warning -- assumption of classical behavior for rotation
           may cause significant error
 Rotational temperatures (Kelvin)      0.14167     0.07082     0.05952
 Rotational constants (GHZ):           2.95190     1.47572     1.24023
 Zero-point vibrational energy     419778.3 (Joules/Mol)
                                  100.32942 (Kcal/Mol)
 Warning -- explicit consideration of  10 degrees of freedom as
           vibrations may cause significant error
 Vibrational temperatures:    138.38   194.91   240.63   294.09   429.37
          (Kelvin)            503.05   576.24   708.01   759.47   875.83
                              940.23  1040.08  1091.50  1146.67  1181.03
                             1265.19  1367.76  1399.10  1408.90  1439.70
                             1446.95  1510.10  1563.44  1580.03  1603.09
                             1622.95  1696.21  1707.79  1722.92  1740.43
                             1786.01  1943.69  1986.75  1991.47  2046.78
                             2070.12  2114.49  2122.30  2134.64  2176.70
                             2462.10  4294.05  4304.60  4410.92  4495.94
                             4510.68  4540.72  4556.81  4568.52  4600.61
                             4663.38

 Zero-point correction=                           0.159885 (Hartree/Particle)
 Thermal correction to Energy=                    0.167987
 Thermal correction to Enthalpy=                  0.168931
 Thermal correction to Gibbs Free Energy=         0.127252
 Sum of electronic and zero-point Energies=           -423.006679
 Sum of electronic and thermal Energies=              -422.998577
 Sum of electronic and thermal Enthalpies=            -422.997633
 Sum of electronic and thermal Free Energies=         -423.039312

                     E (Thermal)             CV                S
                      KCal/Mol        Cal/Mol-Kelvin    Cal/Mol-Kelvin
 Total                  105.413             31.293             87.721
 Electronic               0.000              0.000              0.000
 Translational            0.889              2.981             40.409
 Rotational               0.889              2.981             28.477
 Vibrational            103.636             25.331             18.835
 Vibration     1          0.603              1.952              3.530
 Vibration     2          0.613              1.918              2.867
 Vibration     3          0.624              1.883              2.466
 Vibration     4          0.640              1.834              2.093
 Vibration     5          0.692              1.677              1.426
 Vibration     6          0.727              1.576              1.168
 Vibration     7          0.766              1.469              0.961
 Vibration     8          0.848              1.268              0.678
 Vibration     9          0.883              1.188              0.592
 Vibration    10          0.968              1.013              0.435

 Optimization completed.
    -- Stationary point found.
 Normal termination of Gaussian 09 at Tue Jan 28 12:20:38 2020.
