 Gaussian 09, Revision D.01,
 Gaussian 09:  ES64L-G09RevD.01 24-Apr-2013

 -----------------------------
 # b3lyp 6-31G(2df,p) opt Freq
 -----------------------------

 -----
 titel
 -----
 Symbolic Z-matrix:
 Charge =  0 Multiplicity = 1

 SCF Done:  E(RB3LYP) =  -423.162955772     A.U. after   13 cycles
 Optimization completed.
    -- Stationary point found.
 Normal termination of Gaussian 09 at Tue Jan 28 02:21:07 2020.

 ----------------------------------------------------------------------
 #N Geom=AllCheck Guess=TCheck SCRF=Check GenChk RB3LYP/6-31G(2df,p) Fr
 eq
 ----------------------------------------------------------------------

 Structure from the checkpoint file:  "/scratch/puck/g09_6376f481-bd1c-4f9e-93f7-4a2d95af4025/Gau-76226.chk"
 -----
 titel
 -----
 Charge =  0 Multiplicity = 1

                         Standard orientation:
 ---------------------------------------------------------------------
 Center     Atomic      Atomic             Coordinates (Angstroms)
 Number     Number       Type             X           Y           Z
 ---------------------------------------------------------------------
      1          8           0       -3.024618   -0.871147   -0.430092
      2          6           0       -2.069958   -0.211463    0.347209
      3          6           0       -1.906459    1.254131    0.098018
      4          6           0       -0.802866    0.288836   -0.298045
      5          6           0        0.501596    0.257366    0.464161
      6          8           0        1.082323   -1.053891    0.395213
      7          6           0        2.424933   -0.983085   -0.075450
      8          6           0        2.652908    0.467295   -0.396513
      9          6           0        1.571618    1.168947   -0.081406
     10          1           0       -2.695259   -1.759728   -0.602678
     11          1           0       -1.995014   -0.554958    1.379610
     12          1           0       -2.499876    1.680217   -0.702303
     13          1           0       -1.750095    1.907493    0.950339
     14          1           0       -0.711986    0.086282   -1.361503
     15          1           0        0.287817    0.496055    1.521818
     16          1           0        3.118549   -1.350596    0.698719
     17          1           0        2.547228   -1.637382   -0.952534
     18          1           0        3.578633    0.844426   -0.812526
     19          1           0        1.427717    2.236330   -0.187755
 ---------------------------------------------------------------------

 SCF Done:  E(RB3LYP) =  -423.162955772     A.U. after    1 cycles

 The electronic state is 1-A.
 Alpha  occ. eigenvalues --  -19.13804 -19.13221 -10.23595 -10.23082 -10.23017
 Alpha  occ. eigenvalues --  -10.18823 -10.18562 -10.18482 -10.18338  -1.03059
 Alpha  occ. eigenvalues --   -1.02298  -0.84883  -0.78666  -0.73722  -0.62476
 Alpha  occ. eigenvalues --   -0.59388  -0.57377  -0.56015  -0.52592  -0.50306
 Alpha  occ. eigenvalues --   -0.48618  -0.44548  -0.43920  -0.41357  -0.40229
 Alpha  occ. eigenvalues --   -0.38253  -0.36523  -0.36143  -0.33093  -0.31999
 Alpha  occ. eigenvalues --   -0.28147  -0.27847  -0.24979  -0.23352
 Alpha virt. eigenvalues --    0.01582   0.08822   0.10303   0.10801   0.11510
 Alpha virt. eigenvalues --    0.13218   0.14177   0.15237   0.15978   0.16484
 Alpha virt. eigenvalues --    0.17709   0.18318   0.19146   0.21348   0.22617

 Mulliken charges:
               1
     1  O   -0.426460
     2  C    0.107424
     3  C   -0.309550
     4  C   -0.046978
     5  C    0.067924
     6  O   -0.281014
     7  C   -0.116441
     8  C   -0.100094
     9  C   -0.088572
    10  H    0.288043
    11  H    0.087432
    12  H    0.123491
    13  H    0.110600
    14  H    0.088324
    15  H    0.073223
    16  H    0.103152
    17  H    0.104863
    18  H    0.106213
    19  H    0.108418
 Sum of Mulliken charges =   0.00000

 Dipole moment (field-independent basis, Debye):
    X=              1.7708    Y=              0.4811    Z=             -0.2200  Tot=              1.8482
 Quadrupole moment (field-independent basis, Debye-Ang):
   XX=            -55.4417   YY=            -49.8458   ZZ=            -52.4870
   XY=              1.0615   XZ=             -2.0464   YZ=              1.5941

  Exact polarizability:  97.650  -7.566  76.877  -5.154   2.024  60.496
 Approx polarizability: 128.246 -14.283 115.313  -9.175   4.662  93.353

                      1                      2                      3
                      A                      A                      A
 Frequencies --     62.3087                78.1778               118.8253
 Red. masses --      3.7807                 3.1284                 4.0760
 Frc consts  --      0.0086                 0.0113                 0.0339
 IR Inten    --      1.1121                 1.1345                 1.4246

                      4                      5                      6
                      A                      A                      A
 Frequencies --    216.0397               295.2818               327.6992
 Red. masses --      3.1502                 2.8833                 1.3422
 Frc consts  --      0.0866                 0.1481                 0.0849
 IR Inten    --      6.0802                17.2172                71.0081

                      7                      8                      9
                      A                      A                      A
 Frequencies --    370.6193               387.8507               465.6430
 Red. masses --      2.7581                 3.0079                 2.9051
 Frc consts  --      0.2232                 0.2666                 0.3711
 IR Inten    --     26.8079                 3.3864                 9.6098

                     10                     11                     12
                      A                      A                      A
 Frequencies --    511.5689               709.9078               766.7904
 Red. masses --      2.4564                 1.3176                 5.1079
 Frc consts  --      0.3787                 0.3912                 1.7695
 IR Inten    --      5.1198                17.9476                 7.2588

                     13                     14                     15
                      A                      A                      A
 Frequencies --    811.4364               835.5684               856.2194
 Red. masses --      4.8867                 1.9645                 1.6627
 Frc consts  --      1.8957                 0.8081                 0.7182
 IR Inten    --      8.5782                 5.4922                16.1184

                     16                     17                     18
                      A                      A                      A
 Frequencies --    910.4403               932.5124               939.7177
 Red. masses --      2.6039                 2.7469                 2.5053
 Frc consts  --      1.2717                 1.4074                 1.3035
 IR Inten    --      7.0960                16.5604                15.5103

                     19                     20                     21
                      A                      A                      A
 Frequencies --    952.2116               960.1410              1019.0374
 Red. masses --      2.3641                 1.3106                 2.7671
 Frc consts  --      1.2629                 0.7118                 1.6930
 IR Inten    --      4.5859                 0.5375                19.4085

                     22                     23                     24
                      A                      A                      A
 Frequencies --   1046.9530              1055.3359              1092.6233
 Red. masses --      1.6366                 1.3536                 1.6199
 Frc consts  --      1.0569                 0.8882                 1.1394
 IR Inten    --      9.1914                 5.2136                14.7171

                     25                     26                     27
                      A                      A                      A
 Frequencies --   1105.7679              1111.3139              1124.8797
 Red. masses --      4.1782                 1.2830                 1.2711
 Frc consts  --      3.0100                 0.9335                 0.9476
 IR Inten    --    113.1812                27.8585                 0.5610

                     28                     29                     30
                      A                      A                      A
 Frequencies --   1160.5163              1189.9113              1200.3575
 Red. masses --      2.0124                 2.0168                 1.1421
 Frc consts  --      1.5969                 1.6825                 0.9695
 IR Inten    --     20.4722                10.4156                 2.3044

                     31                     32                     33
                      A                      A                      A
 Frequencies --   1223.5260              1277.1441              1306.0053
 Red. masses --      1.9923                 1.2912                 1.2314
 Frc consts  --      1.7572                 1.2409                 1.2374
 IR Inten    --     52.3286                10.8641                82.2025

                     34                     35                     36
                      A                      A                      A
 Frequencies --   1308.5897              1353.0134              1381.3139
 Red. masses --      1.2645                 1.6310                 1.5327
 Frc consts  --      1.2758                 1.7592                 1.7231
 IR Inten    --      4.5083                 0.7309                 4.1078

                     37                     38                     39
                      A                      A                      A
 Frequencies --   1392.7200              1439.0006              1494.1073
 Red. masses --      1.4324                 1.2774                 1.7946
 Frc consts  --      1.6370                 1.5585                 2.3604
 IR Inten    --     21.8603                 5.7462                22.0619

                     40                     41                     42
                      A                      A                      A
 Frequencies --   1521.6731              1692.0394              2931.1228
 Red. masses --      1.0858                 6.5184                 1.0815
 Frc consts  --      1.4813                10.9954                 5.4744
 IR Inten    --      1.8637                 0.5579                60.1836

                     43                     44                     45
                      A                      A                      A
 Frequencies --   2967.7114              2990.3323              3093.0847
 Red. masses --      1.0635                 1.0975                 1.0870
 Frc consts  --      5.5188                 5.7822                 6.1271
 IR Inten    --     89.4689                51.1575                30.2541

                     46                     47                     48
                      A                      A                      A
 Frequencies --   3135.3309              3153.6716              3207.0396
 Red. masses --      1.0557                 1.0884                 1.0855
 Frc consts  --      6.1142                 6.3780                 6.5779
 IR Inten    --     11.4547                 7.5730                 3.1903

                     49                     50                     51
                      A                      A                      A
 Frequencies --   3227.1270              3232.3956              3803.1743
 Red. masses --      1.1156                 1.1065                 1.0661
 Frc consts  --      6.8453                 6.8115                 9.0850
 IR Inten    --      5.9016                 8.5808                19.8207

 - Thermochemistry -
 -------------------
 Temperature   298.150 Kelvin.  Pressure   1.00000 Atm.
 Atom     1 has atomic number  8 and mass  15.99491

 Molecular mass:   126.06808 amu.
 Principal axes and moments of inertia in atomic units:
                           1         2         3
     Eigenvalues --   445.839451895.640232179.55162
           X            0.99994  -0.00906  -0.00632
           Y            0.00914   0.99986   0.01369
           Z            0.00620  -0.01375   0.99989
 This molecule is an asymmetric top.
 Rotational symmetry number  1.
 Warning -- assumption of classical behavior for rotation
           may cause significant error
 Rotational temperatures (Kelvin)      0.19427     0.04569     0.03974
 Rotational constants (GHZ):           4.04796     0.95205     0.82803
 Zero-point vibrational energy     417172.4 (Joules/Mol)
                                   99.70659 (Kcal/Mol)
 Warning -- explicit consideration of  10 degrees of freedom as
           vibrations may cause significant error
 Vibrational temperatures:     89.65   112.48   170.96   310.83   424.84
          (Kelvin)            471.49   533.24   558.03   669.96   736.03
                             1021.40  1103.24  1167.47  1202.20  1231.91
                             1309.92  1341.68  1352.04  1370.02  1381.43
                             1466.17  1506.33  1518.39  1572.04  1590.95
                             1598.93  1618.45  1669.72  1712.01  1727.04
                             1760.38  1837.52  1879.05  1882.77  1946.68
                             1987.40  2003.81  2070.40  2149.68  2189.35
                             2434.46  4217.23  4269.87  4302.42  4450.25
                             4511.04  4537.42  4614.21  4643.11  4650.69
                             5471.91

 Zero-point correction=                           0.158893 (Hartree/Particle)
 Thermal correction to Energy=                    0.167462
 Thermal correction to Enthalpy=                  0.168406
 Thermal correction to Gibbs Free Energy=         0.124917
 Sum of electronic and zero-point Energies=           -423.004063
 Sum of electronic and thermal Energies=              -422.995494
 Sum of electronic and thermal Enthalpies=            -422.994550
 Sum of electronic and thermal Free Energies=         -423.038039

                     E (Thermal)             CV                S
                      KCal/Mol        Cal/Mol-Kelvin    Cal/Mol-Kelvin
 Total                  105.084             32.089             91.530
 Electronic               0.000              0.000              0.000
 Translational            0.889              2.981             40.409
 Rotational               0.889              2.981             29.001
 Vibrational            103.306             26.128             22.121
 Vibration     1          0.597              1.972              4.383
 Vibration     2          0.599              1.964              3.936
 Vibration     3          0.609              1.934              3.119
 Vibration     4          0.645              1.817              1.992
 Vibration     5          0.689              1.683              1.444
 Vibration     6          0.711              1.620              1.271
 Vibration     7          0.743              1.533              1.077
 Vibration     8          0.756              1.496              1.008
 Vibration     9          0.823              1.326              0.750
 Vibration    10          0.867              1.224              0.630

 Normal termination of Gaussian 09 at Tue Jan 28 02:59:37 2020.
