 Gaussian 09, Revision D.01,
 Gaussian 09:  ES64L-G09RevD.01 24-Apr-2013

 -----------------------------
 # b3lyp 6-31G(2df,p) opt Freq
 -----------------------------

 -----
 titel
 -----
 Symbolic Z-matrix:
 Charge =  0 Multiplicity = 1

 SCF Done:  E(RB3LYP) =  -423.157892288     A.U. after   14 cycles
 Optimization completed.
    -- Stationary point found.
 Normal termination of Gaussian 09 at Mon Jan 27 17:29:38 2020.

 ----------------------------------------------------------------------
 #N Geom=AllCheck Guess=TCheck SCRF=Check GenChk RB3LYP/6-31G(2df,p) Fr
 eq
 ----------------------------------------------------------------------

 Structure from the checkpoint file:  "/scratch/puck/g09_00f6fc01-7fff-4713-ad99-05b00dde6663/Gau-39962.chk"
 -----
 titel
 -----
 Charge =  0 Multiplicity = 1

                         Standard orientation:
 ---------------------------------------------------------------------
 Center     Atomic      Atomic             Coordinates (Angstroms)
 Number     Number       Type             X           Y           Z
 ---------------------------------------------------------------------
      1          6           0       -2.415771    0.483741    0.478520
      2          6           0       -1.106111    0.013893   -0.107749
      3          6           0       -0.979446   -1.326483   -0.777685
      4          6           0       -0.292412   -1.075444    0.551204
      5          6           0        1.191993   -0.868046    0.639736
      6          8           0        1.900992   -0.567526   -0.568821
      7          6           0        1.716756    0.479203    0.385576
      8          6           0        0.721124    1.557520    0.004130
      9          8           0       -0.375323    1.045536   -0.729821
     10          1           0       -2.976670   -0.352319    0.906994
     11          1           0       -2.252074    1.222961    1.270647
     12          1           0       -3.032603    0.950123   -0.296537
     13          1           0       -1.836655   -1.990501   -0.789742
     14          1           0       -0.339444   -1.360157   -1.651079
     15          1           0       -0.721667   -1.549293    1.429240
     16          1           0        1.727929   -1.532812    1.315873
     17          1           0        2.621797    0.824537    0.886100
     18          1           0        0.399107    2.075271    0.924170
     19          1           0        1.188127    2.301798   -0.648924
 ---------------------------------------------------------------------

 SCF Done:  E(RB3LYP) =  -423.157892288     A.U. after    1 cycles

 The electronic state is 1-A.
 Alpha  occ. eigenvalues --  -19.14962 -19.14214 -10.23937 -10.23899 -10.23508
 Alpha  occ. eigenvalues --  -10.23420 -10.19428 -10.18088 -10.17911  -1.07573
 Alpha  occ. eigenvalues --   -1.03369  -0.85631  -0.74331  -0.71289  -0.67762
 Alpha  occ. eigenvalues --   -0.62204  -0.57834  -0.52944  -0.52385  -0.50394
 Alpha  occ. eigenvalues --   -0.47364  -0.45153  -0.43265  -0.41337  -0.39877
 Alpha  occ. eigenvalues --   -0.39317  -0.38775  -0.36606  -0.34972  -0.33858
 Alpha  occ. eigenvalues --   -0.29110  -0.26985  -0.25209  -0.25083
 Alpha virt. eigenvalues --    0.07955   0.08673   0.10598   0.11529   0.12499
 Alpha virt. eigenvalues --    0.14057   0.14964   0.15485   0.16043   0.16157
 Alpha virt. eigenvalues --    0.17718   0.18114   0.19253   0.21388   0.21782

 Mulliken charges:
               1
     1  C   -0.450586
     2  C    0.408393
     3  C   -0.339043
     4  C   -0.113004
     5  C    0.033972
     6  O   -0.248351
     7  C    0.037237
     8  C   -0.129142
     9  O   -0.286961
    10  H    0.113944
    11  H    0.116017
    12  H    0.128526
    13  H    0.108202
    14  H    0.139448
    15  H    0.086120
    16  H    0.092363
    17  H    0.091008
    18  H    0.092492
    19  H    0.119366
 Sum of Mulliken charges =   0.00000

 Dipole moment (field-independent basis, Debye):
    X=             -0.5330    Y=              0.1823    Z=              2.4013  Tot=              2.4664
 Quadrupole moment (field-independent basis, Debye-Ang):
   XX=            -52.4985   YY=            -51.3734   ZZ=            -53.7092
   XY=              3.7546   XZ=              2.1574   YZ=             -0.0769

  Exact polarizability:  81.817   4.695  77.400   2.231   0.715  63.970
 Approx polarizability: 107.453   6.117 113.020   1.371   0.394 103.754

                      1                      2                      3
                      A                      A                      A
 Frequencies --    151.8813               170.5032               228.2896
 Red. masses --      3.7019                 2.7074                 1.0606
 Frc consts  --      0.0503                 0.0464                 0.0326
 IR Inten    --      2.8401                 0.8362                 0.0377

                      4                      5                      6
                      A                      A                      A
 Frequencies --    293.0807               333.3466               348.2124
 Red. masses --      3.2823                 2.7061                 2.4763
 Frc consts  --      0.1661                 0.1772                 0.1769
 IR Inten    --      1.7925                 2.2813                 2.9540

                      7                      8                      9
                      A                      A                      A
 Frequencies --    419.0877               475.3435               509.3596
 Red. masses --      4.3459                 3.1706                 3.7918
 Frc consts  --      0.4497                 0.4221                 0.5796
 IR Inten    --      5.5069                 3.3334                 0.7391

                     10                     11                     12
                      A                      A                      A
 Frequencies --    619.4451               680.0509               740.6189
 Red. masses --      3.2822                 4.1302                 4.1883
 Frc consts  --      0.7420                 1.1254                 1.3536
 IR Inten    --     11.8018                 2.7560                 9.8417

                     13                     14                     15
                      A                      A                      A
 Frequencies --    783.0010               819.2332               867.2483
 Red. masses --      2.4866                 2.6956                 2.5700
 Frc consts  --      0.8982                 1.0659                 1.1389
 IR Inten    --     10.9691                 7.9216                 0.2415

                     16                     17                     18
                      A                      A                      A
 Frequencies --    890.0625               918.4797               942.9939
 Red. masses --      2.1163                 2.3809                 1.7185
 Frc consts  --      0.9878                 1.1834                 0.9004
 IR Inten    --     18.6955                10.9055                 4.3631

                     19                     20                     21
                      A                      A                      A
 Frequencies --    956.5399              1006.0765              1026.2581
 Red. masses --      2.4724                 1.6953                 1.9068
 Frc consts  --      1.3328                 1.0110                 1.1832
 IR Inten    --      6.5353                 9.3233                 1.1254

                     22                     23                     24
                      A                      A                      A
 Frequencies --   1061.2821              1085.5323              1098.1890
 Red. masses --      1.2983                 1.9921                 1.7171
 Frc consts  --      0.8615                 1.3831                 1.2201
 IR Inten    --      6.3306                 8.0757                19.6631

                     25                     26                     27
                      A                      A                      A
 Frequencies --   1119.3935              1131.7759              1139.7502
 Red. masses --      1.6354                 1.5173                 2.5868
 Frc consts  --      1.2073                 1.1451                 1.9799
 IR Inten    --      7.7596                 7.9458                40.2250

                     28                     29                     30
                      A                      A                      A
 Frequencies --   1156.8236              1247.5929              1265.4846
 Red. masses --      1.7332                 2.6059                 1.3604
 Frc consts  --      1.3665                 2.3897                 1.2836
 IR Inten    --     21.2271                31.5810                16.1902

                     31                     32                     33
                      A                      A                      A
 Frequencies --   1286.2036              1297.8574              1369.6569
 Red. masses --      1.7829                 1.1966                 1.4304
 Frc consts  --      1.7378                 1.1876                 1.5810
 IR Inten    --     14.5225                 8.5663                10.3979

                     34                     35                     36
                      A                      A                      A
 Frequencies --   1396.8253              1402.8961              1421.8772
 Red. masses --      1.5267                 1.3535                 1.5293
 Frc consts  --      1.7550                 1.5695                 1.8217
 IR Inten    --      4.9689                 5.1692                 8.8604

                     37                     38                     39
                      A                      A                      A
 Frequencies --   1465.2983              1479.7460              1481.7339
 Red. masses --      2.5803                 1.6296                 1.0662
 Frc consts  --      3.2642                 2.1023                 1.3792
 IR Inten    --     24.7926                 6.4721                 1.9046

                     40                     41                     42
                      A                      A                      A
 Frequencies --   1492.2542              1501.8879              2961.0842
 Red. masses --      1.0901                 1.1664                 1.0706
 Frc consts  --      1.4302                 1.5501                 5.5308
 IR Inten    --      1.7861                 1.0748                54.9258

                     43                     44                     45
                      A                      A                      A
 Frequencies --   3030.4892              3074.6639              3095.2070
 Red. masses --      1.0355                 1.0908                 1.1007
 Frc consts  --      5.6033                 6.0755                 6.2128
 IR Inten    --     25.9543                25.3983                22.6490

                     46                     47                     48
                      A                      A                      A
 Frequencies --   3106.3468              3110.6045              3118.6550
 Red. masses --      1.0852                 1.1011                 1.0916
 Frc consts  --      6.1697                 6.2771                 6.2551
 IR Inten    --     23.6578                17.3240                46.0401

                     49                     50                     51
                      A                      A                      A
 Frequencies --   3138.8266              3151.9174              3238.1176
 Red. masses --      1.0546                 1.0889                 1.1170
 Frc consts  --      6.1215                 6.3737                 6.9007
 IR Inten    --     11.5016                18.9209                 3.2385

 - Thermochemistry -
 -------------------
 Temperature   298.150 Kelvin.  Pressure   1.00000 Atm.
 Atom     1 has atomic number  6 and mass  12.00000

 Molecular mass:   126.06808 amu.
 Principal axes and moments of inertia in atomic units:
                           1         2         3
     Eigenvalues --   609.541121073.402501355.42377
           X            0.99960   0.02815   0.00214
           Y           -0.02819   0.99937   0.02152
           Z           -0.00153  -0.02158   0.99977
 This molecule is an asymmetric top.
 Rotational symmetry number  1.
 Warning -- assumption of classical behavior for rotation
           may cause significant error
 Rotational temperatures (Kelvin)      0.14210     0.08069     0.06390
 Rotational constants (GHZ):           2.96082     1.68133     1.33150
 Zero-point vibrational energy     419333.5 (Joules/Mol)
                                  100.22311 (Kcal/Mol)
 Warning -- explicit consideration of  10 degrees of freedom as
           vibrations may cause significant error
 Vibrational temperatures:    218.52   245.32   328.46   421.68   479.61
          (Kelvin)            501.00   602.97   683.91   732.85   891.24
                              978.44  1065.58  1126.56  1178.69  1247.78
                             1280.60  1321.49  1356.76  1376.25  1447.52
                             1476.55  1526.95  1561.84  1580.05  1610.56
                             1628.37  1639.84  1664.41  1795.01  1820.75
                             1850.56  1867.33  1970.63  2009.72  2018.45
                             2045.76  2108.23  2129.02  2131.88  2147.02
                             2160.88  4260.33  4360.19  4423.75  4453.31
                             4469.33  4475.46  4487.04  4516.07  4534.90
                             4658.92

 Zero-point correction=                           0.159716 (Hartree/Particle)
 Thermal correction to Energy=                    0.167362
 Thermal correction to Enthalpy=                  0.168306
 Thermal correction to Gibbs Free Energy=         0.128054
 Sum of electronic and zero-point Energies=           -422.998177
 Sum of electronic and thermal Energies=              -422.990530
 Sum of electronic and thermal Enthalpies=            -422.989586
 Sum of electronic and thermal Free Energies=         -423.029838

                     E (Thermal)             CV                S
                      KCal/Mol        Cal/Mol-Kelvin    Cal/Mol-Kelvin
 Total                  105.021             30.773             84.717
 Electronic               0.000              0.000              0.000
 Translational            0.889              2.981             40.409
 Rotational               0.889              2.981             28.274
 Vibrational            103.244             24.812             16.034
 Vibration     1          0.619              1.901              2.649
 Vibration     2          0.626              1.879              2.430
 Vibration     3          0.651              1.798              1.892
 Vibration     4          0.688              1.687              1.456
 Vibration     5          0.715              1.609              1.244
 Vibration     6          0.726              1.579              1.174
 Vibration     7          0.782              1.429              0.895
 Vibration     8          0.832              1.305              0.723
 Vibration     9          0.865              1.229              0.635
 Vibration    10          0.979              0.991              0.417

 Optimization completed.
    -- Stationary point found.
 Normal termination of Gaussian 09 at Mon Jan 27 18:27:38 2020.
