 Gaussian 09, Revision D.01,
 Gaussian 09:  ES64L-G09RevD.01 24-Apr-2013

 -----------------------------
 # b3lyp 6-31G(2df,p) opt Freq
 -----------------------------

 -----
 titel
 -----
 Symbolic Z-matrix:
 Charge =  0 Multiplicity = 1

 SCF Done:  E(RB3LYP) =  -423.102428080     A.U. after   13 cycles
 Optimization completed.
    -- Stationary point found.
 Normal termination of Gaussian 09 at Tue Jan 28 09:35:27 2020.

 ----------------------------------------------------------------------
 #N Geom=AllCheck Guess=TCheck SCRF=Check GenChk RB3LYP/6-31G(2df,p) Fr
 eq
 ----------------------------------------------------------------------

 Structure from the checkpoint file:  "/scratch/puck/g09_fa21b759-aaa4-4671-94f8-3d808db0a538/Gau-190121.chk"
 -----
 titel
 -----
 Charge =  0 Multiplicity = 1

                         Standard orientation:
 ---------------------------------------------------------------------
 Center     Atomic      Atomic             Coordinates (Angstroms)
 Number     Number       Type             X           Y           Z
 ---------------------------------------------------------------------
      1          6           0        2.961810   -0.946702    0.142126
      2          6           0        1.645612   -0.245080    0.401666
      3          6           0        1.245867    0.854431   -0.550442
      4          6           0       -0.097772    1.529550   -0.133287
      5          8           0       -0.581538    0.932973    1.081513
      6          6           0       -0.794102    0.246336   -0.173975
      7          6           0       -2.193701   -0.155091   -0.504970
      8          8           0       -2.602561   -1.304794    0.219628
      9          6           0        0.524828   -0.490962   -0.576168
     10          1           0        3.167408   -1.035932   -0.929931
     11          1           0        3.793280   -0.397928    0.596957
     12          1           0        2.954751   -1.956645    0.565409
     13          1           0        1.384664   -0.123843    1.446724
     14          1           0        1.917999    1.270703   -1.289454
     15          1           0       -0.425611    2.538566   -0.356206
     16          1           0       -2.859679    0.702376   -0.326315
     17          1           0       -2.264638   -0.424727   -1.564110
     18          1           0       -2.513899   -1.093540    1.155618
     19          1           0        0.563265   -1.259364   -1.337528
 ---------------------------------------------------------------------

 SCF Done:  E(RB3LYP) =  -423.102428080     A.U. after    1 cycles

 The electronic state is 1-A.
 Alpha  occ. eigenvalues --  -19.15443 -19.13742 -10.24065 -10.24015 -10.23526
 Alpha  occ. eigenvalues --  -10.19422 -10.19382 -10.19203 -10.18006  -1.07935
 Alpha  occ. eigenvalues --   -1.01784  -0.87228  -0.74176  -0.71741  -0.65684
 Alpha  occ. eigenvalues --   -0.62112  -0.55555  -0.54586  -0.53277  -0.49178
 Alpha  occ. eigenvalues --   -0.47296  -0.44783  -0.44033  -0.41002  -0.39824
 Alpha  occ. eigenvalues --   -0.38870  -0.37321  -0.35193  -0.34257  -0.32954
 Alpha  occ. eigenvalues --   -0.29164  -0.27233  -0.26520  -0.23026
 Alpha virt. eigenvalues --    0.05460   0.08104   0.10245   0.10646   0.12364
 Alpha virt. eigenvalues --    0.13586   0.14135   0.15173   0.15666   0.16522
 Alpha virt. eigenvalues --    0.17186   0.18256   0.19394   0.20225   0.21260

 Mulliken charges:
               1
     1  C   -0.427906
     2  C   -0.008001
     3  C   -0.105143
     4  C   -0.078606
     5  O   -0.294741
     6  C    0.389968
     7  C   -0.184585
     8  O   -0.413213
     9  C   -0.143059
    10  H    0.113776
    11  H    0.121198
    12  H    0.123081
    13  H    0.108759
    14  H    0.090321
    15  H    0.107374
    16  H    0.099151
    17  H    0.115272
    18  H    0.293363
    19  H    0.092990
 Sum of Mulliken charges =   0.00000

 Dipole moment (field-independent basis, Debye):
    X=              0.8949    Y=              0.9389    Z=             -1.0297  Tot=              1.6561
 Quadrupole moment (field-independent basis, Debye-Ang):
   XX=            -53.5621   YY=            -53.8433   ZZ=            -51.6740
   XY=             -3.3924   XZ=             -1.0364   YZ=             -2.5955

  Exact polarizability:  88.041  -1.949  73.563   0.952  -1.322  64.011
 Approx polarizability: 109.876   4.121 114.086  -0.512  -0.162 105.011

                      1                      2                      3
                      A                      A                      A
 Frequencies --     74.8986               116.5501               204.5308
 Red. masses --      3.7357                 3.9594                 2.3540
 Frc consts  --      0.0123                 0.0317                 0.0580
 IR Inten    --      4.1343                 0.3939                 1.2941

                      4                      5                      6
                      A                      A                      A
 Frequencies --    217.8068               259.6714               322.6909
 Red. masses --      1.1095                 2.6842                 2.3329
 Frc consts  --      0.0310                 0.1066                 0.1431
 IR Inten    --      0.3808                 3.4353                18.8761

                      7                      8                      9
                      A                      A                      A
 Frequencies --    337.7544               405.9708               416.6987
 Red. masses --      2.4587                 1.7204                 2.8753
 Frc consts  --      0.1653                 0.1671                 0.2942
 IR Inten    --     15.4816                82.2378                15.7333

                     10                     11                     12
                      A                      A                      A
 Frequencies --    468.3130               616.4422               682.5190
 Red. masses --      3.3091                 5.2246                 3.8308
 Frc consts  --      0.4276                 1.1697                 1.0514
 IR Inten    --      3.4499                20.8832                 9.0705

                     13                     14                     15
                      A                      A                      A
 Frequencies --    745.2642               787.8213               805.7054
 Red. masses --      5.4794                 3.1657                 1.3868
 Frc consts  --      1.7931                 1.1577                 0.5304
 IR Inten    --      0.0749                 3.3140                 3.2826

                     16                     17                     18
                      A                      A                      A
 Frequencies --    831.8511               891.3169               920.7249
 Red. masses --      2.0374                 3.0574                 2.4267
 Frc consts  --      0.8307                 1.4311                 1.2121
 IR Inten    --     13.6256                 2.0540                10.4414

                     19                     20                     21
                      A                      A                      A
 Frequencies --    950.1014               959.6876              1000.6725
 Red. masses --      2.6753                 1.8116                 1.7269
 Frc consts  --      1.4229                 0.9831                 1.0188
 IR Inten    --     37.0486                 8.4120                11.6111

                     22                     23                     24
                      A                      A                      A
 Frequencies --   1009.5725              1033.2099              1063.3616
 Red. masses --      1.6970                 1.5163                 1.9877
 Frc consts  --      1.0191                 0.9537                 1.3242
 IR Inten    --      1.5042                 8.5007                74.6228

                     25                     26                     27
                      A                      A                      A
 Frequencies --   1082.8375              1110.4956              1143.5627
 Red. masses --      2.8459                 1.8740                 1.9047
 Frc consts  --      1.9660                 1.3616                 1.4676
 IR Inten    --     17.4079                 0.2126                 4.5383

                     28                     29                     30
                      A                      A                      A
 Frequencies --   1158.1954              1188.6408              1222.6258
 Red. masses --      1.4309                 1.7804                 1.2037
 Frc consts  --      1.1309                 1.4821                 1.0602
 IR Inten    --      0.8063                 5.7996                 9.7200

                     31                     32                     33
                      A                      A                      A
 Frequencies --   1244.4280              1251.2044              1285.1763
 Red. masses --      1.5980                 1.5095                 1.9820
 Frc consts  --      1.4580                 1.3923                 1.9287
 IR Inten    --      7.1967                 0.5392                25.1387

                     34                     35                     36
                      A                      A                      A
 Frequencies --   1364.5091              1395.5871              1416.0939
 Red. masses --      1.3461                 2.1529                 1.2620
 Frc consts  --      1.4767                 2.4705                 1.4911
 IR Inten    --      0.9393                 6.1446                 1.9500

                     37                     38                     39
                      A                      A                      A
 Frequencies --   1421.7815              1477.3070              1486.7051
 Red. masses --      1.3090                 3.1731                 1.1756
 Frc consts  --      1.5591                 4.0801                 1.5310
 IR Inten    --     46.7760                17.5011                 2.9428

                     40                     41                     42
                      A                      A                      A
 Frequencies --   1495.4393              1501.4430              2996.2083
 Red. masses --      1.0444                 1.1117                 1.0673
 Frc consts  --      1.3762                 1.4766                 5.6452
 IR Inten    --      1.8378                 2.0502                48.8109

                     43                     44                     45
                      A                      A                      A
 Frequencies --   3029.7027              3075.8596              3095.8255
 Red. masses --      1.0349                 1.0952                 1.1010
 Frc consts  --      5.5970                 6.1049                 6.2169
 IR Inten    --     34.6990                21.4563                21.8707

                     46                     47                     48
                      A                      A                      A
 Frequencies --   3096.6806              3177.8016              3180.5971
 Red. masses --      1.1013                 1.0882                 1.0923
 Frc consts  --      6.2223                 6.4748                 6.5107
 IR Inten    --     21.0336                12.3520                12.7036

                     49                     50                     51
                      A                      A                      A
 Frequencies --   3194.0487              3203.7020              3807.1681
 Red. masses --      1.0895                 1.0969                 1.0661
 Frc consts  --      6.5486                 6.6330                 9.1042
 IR Inten    --     12.4088                 8.3793                22.1956

 - Thermochemistry -
 -------------------
 Temperature   298.150 Kelvin.  Pressure   1.00000 Atm.
 Atom     1 has atomic number  6 and mass  12.00000

 Molecular mass:   126.06808 amu.
 Principal axes and moments of inertia in atomic units:
                           1         2         3
     Eigenvalues --   549.548041579.094051814.46635
           X            0.99957  -0.02895   0.00470
           Y            0.02909   0.99900  -0.03383
           Z           -0.00371   0.03395   0.99942
 This molecule is an asymmetric top.
 Rotational symmetry number  1.
 Warning -- assumption of classical behavior for rotation
           may cause significant error
 Rotational temperatures (Kelvin)      0.15761     0.05485     0.04774
 Rotational constants (GHZ):           3.28405     1.14290     0.99464
 Zero-point vibrational energy     414068.0 (Joules/Mol)
                                   98.96462 (Kcal/Mol)
 Warning -- explicit consideration of  11 degrees of freedom as
           vibrations may cause significant error
 Vibrational temperatures:    107.76   167.69   294.27   313.37   373.61
          (Kelvin)            464.28   485.95   584.10   599.54   673.80
                              886.92   981.99  1072.27  1133.50  1159.23
                             1196.85  1282.40  1324.72  1366.98  1380.77
                             1439.74  1452.55  1486.56  1529.94  1557.96
                             1597.75  1645.33  1666.38  1710.19  1759.08
                             1790.45  1800.20  1849.08  1963.22  2007.94
                             2037.44  2045.62  2125.51  2139.03  2151.60
                             2160.24  4310.87  4359.06  4425.47  4454.20
                             4455.43  4572.14  4576.16  4595.52  4609.41
                             5477.66

 Zero-point correction=                           0.157710 (Hartree/Particle)
 Thermal correction to Energy=                    0.166340
 Thermal correction to Enthalpy=                  0.167284
 Thermal correction to Gibbs Free Energy=         0.124407
 Sum of electronic and zero-point Energies=           -422.944718
 Sum of electronic and thermal Energies=              -422.936089
 Sum of electronic and thermal Enthalpies=            -422.935144
 Sum of electronic and thermal Free Energies=         -422.978021

                     E (Thermal)             CV                S
                      KCal/Mol        Cal/Mol-Kelvin    Cal/Mol-Kelvin
 Total                  104.380             33.148             90.241
 Electronic               0.000              0.000              0.000
 Translational            0.889              2.981             40.409
 Rotational               0.889              2.981             28.845
 Vibrational            102.602             27.187             20.988
 Vibration     1          0.599              1.966              4.020
 Vibration     2          0.608              1.936              3.157
 Vibration     3          0.640              1.833              2.092
 Vibration     4          0.646              1.814              1.977
 Vibration     5          0.668              1.746              1.664
 Vibration     6          0.708              1.630              1.296
 Vibration     7          0.718              1.600              1.223
 Vibration     8          0.771              1.457              0.941
 Vibration     9          0.780              1.434              0.903
 Vibration    10          0.826              1.320              0.742
 Vibration    11          0.976              0.997              0.422

 Optimization completed.
    -- Stationary point found.
 Normal termination of Gaussian 09 at Tue Jan 28 10:08:49 2020.
