 Gaussian 09, Revision D.01,
 Gaussian 09:  ES64L-G09RevD.01 24-Apr-2013

 -----------------------------
 # b3lyp 6-31G(2df,p) opt Freq
 -----------------------------

 -----
 titel
 -----
 Symbolic Z-matrix:
 Charge =  0 Multiplicity = 1

 SCF Done:  E(RB3LYP) =  -423.143139981     A.U. after   13 cycles
 Optimization completed.
    -- Stationary point found.
 Normal termination of Gaussian 09 at Mon Jan 27 11:17:56 2020.

 ----------------------------------------------------------------------
 #N Geom=AllCheck Guess=TCheck SCRF=Check GenChk RB3LYP/6-31G(2df,p) Fr
 eq
 ----------------------------------------------------------------------

 Structure from the checkpoint file:  "/scratch/puck/g09_850e764f-f4ac-4a73-a1be-085a3c48e24b/Gau-150281.chk"
 -----
 titel
 -----
 Charge =  0 Multiplicity = 1

                         Standard orientation:
 ---------------------------------------------------------------------
 Center     Atomic      Atomic             Coordinates (Angstroms)
 Number     Number       Type             X           Y           Z
 ---------------------------------------------------------------------
      1          6           0       -2.592369   -0.068044    0.069064
      2          6           0       -1.465961    0.793587   -0.421033
      3          6           0       -1.380849   -0.727298   -0.532804
      4          6           0       -0.295433   -0.762643    0.565662
      5          8           0        0.918792   -1.422377    0.311178
      6          6           0        1.845600   -0.716817   -0.501432
      7          6           0        2.032527    0.688799    0.033639
      8          8           0        0.817528    1.407394   -0.088020
      9          6           0       -0.294579    0.815913    0.564151
     10          1           0       -2.795795   -0.169879    1.134008
     11          1           0       -3.483449   -0.057556   -0.550051
     12          1           0       -1.591719    1.542266   -1.193410
     13          1           0       -1.427814   -1.372781   -1.401141
     14          1           0       -0.660653   -1.197866    1.502395
     15          1           0        2.777283   -1.289238   -0.463721
     16          1           0        1.502776   -0.666470   -1.546282
     17          1           0        2.370537    0.643911    1.081587
     18          1           0        2.775121    1.241668   -0.549762
     19          1           0       -0.450460    1.304825    1.537633
 ---------------------------------------------------------------------

 SCF Done:  E(RB3LYP) =  -423.143139981     A.U. after    1 cycles

 The electronic state is 1-A.
 Alpha  occ. eigenvalues --  -19.14428 -19.14090 -10.23496 -10.23310 -10.22860
 Alpha  occ. eigenvalues --  -10.22788 -10.19091 -10.19045 -10.18973  -1.05319
 Alpha  occ. eigenvalues --   -1.01766  -0.89202  -0.76202  -0.68624  -0.68085
 Alpha  occ. eigenvalues --   -0.60073  -0.58643  -0.53295  -0.52036  -0.50277
 Alpha  occ. eigenvalues --   -0.47395  -0.46605  -0.45099  -0.42152  -0.41722
 Alpha  occ. eigenvalues --   -0.39027  -0.36764  -0.35623  -0.34681  -0.30358
 Alpha  occ. eigenvalues --   -0.29138  -0.27389  -0.25831  -0.23128
 Alpha virt. eigenvalues --    0.07957   0.10518   0.11045   0.11604   0.13122
 Alpha virt. eigenvalues --    0.13385   0.14241   0.15419   0.15988   0.16707
 Alpha virt. eigenvalues --    0.17585   0.17754   0.18871   0.21382   0.22544

 Mulliken charges:
               1
     1  C   -0.297080
     2  C   -0.049578
     3  C   -0.098320
     4  C    0.112618
     5  O   -0.272986
     6  C   -0.084877
     7  C   -0.075146
     8  O   -0.271958
     9  C    0.070771
    10  H    0.105804
    11  H    0.116883
    12  H    0.094292
    13  H    0.090457
    14  H    0.084166
    15  H    0.107352
    16  H    0.099482
    17  H    0.094470
    18  H    0.108712
    19  H    0.064938
 Sum of Mulliken charges =   0.00000

 Dipole moment (field-independent basis, Debye):
    X=             -0.0355    Y=             -0.0064    Z=             -0.2961  Tot=              0.2982
 Quadrupole moment (field-independent basis, Debye-Ang):
   XX=            -47.7821   YY=            -58.3637   ZZ=            -51.3320
   XY=              0.3534   XZ=             -0.4929   YZ=              1.1984

  Exact polarizability:  91.576   0.155  66.915  -1.621   0.759  66.734
 Approx polarizability: 116.429  -1.049 105.107  -3.153  -1.342 102.203

                      1                      2                      3
                      A                      A                      A
 Frequencies --    106.8021               137.5517               305.7780
 Red. masses --      3.1736                 3.0239                 2.3232
 Frc consts  --      0.0213                 0.0337                 0.1280
 IR Inten    --      5.5190                 0.5163                 1.5125

                      4                      5                      6
                      A                      A                      A
 Frequencies --    316.8922               375.2756               409.9567
 Red. masses --      2.8055                 3.0255                 6.1291
 Frc consts  --      0.1660                 0.2510                 0.6069
 IR Inten    --      4.8799                 1.9473                 0.7874

                      7                      8                      9
                      A                      A                      A
 Frequencies --    486.5046               514.4254               631.0037
 Red. masses --      3.5980                 3.8372                 2.5550
 Frc consts  --      0.5017                 0.5983                 0.5994
 IR Inten    --      0.1291                 3.3576                 4.9537

                     10                     11                     12
                      A                      A                      A
 Frequencies --    761.1202               799.8144               808.2056
 Red. masses --      2.0403                 2.0990                 1.8777
 Frc consts  --      0.6964                 0.7911                 0.7226
 IR Inten    --      2.8167                17.5956                15.4925

                     13                     14                     15
                      A                      A                      A
 Frequencies --    878.3719               884.9001               918.5319
 Red. masses --      2.4879                 2.6612                 3.0509
 Frc consts  --      1.1309                 1.2278                 1.5166
 IR Inten    --     16.0956                 8.7379                 2.8874

                     16                     17                     18
                      A                      A                      A
 Frequencies --    935.5026               960.4780               971.6464
 Red. masses --      1.9827                 1.8919                 2.4268
 Frc consts  --      1.0223                 1.0283                 1.3499
 IR Inten    --      8.3763                16.0679                25.1144

                     19                     20                     21
                      A                      A                      A
 Frequencies --   1025.5485              1045.6237              1064.1457
 Red. masses --      1.6080                 2.3031                 1.3994
 Frc consts  --      0.9964                 1.4836                 0.9337
 IR Inten    --      3.7570                 3.8753                 3.1903

                     22                     23                     24
                      A                      A                      A
 Frequencies --   1071.3610              1074.6117              1087.9518
 Red. masses --      1.5852                 2.1454                 1.4164
 Frc consts  --      1.0720                 1.4597                 0.9878
 IR Inten    --      3.2292                 4.6358                 2.2405

                     25                     26                     27
                      A                      A                      A
 Frequencies --   1127.0593              1157.9049              1174.7104
 Red. masses --      2.0879                 5.1331                 3.8638
 Frc consts  --      1.5627                 4.0548                 3.1414
 IR Inten    --     13.2231               118.9396                53.2913

                     28                     29                     30
                      A                      A                      A
 Frequencies --   1208.7269              1246.0065              1251.7090
 Red. masses --      2.5629                 1.5615                 1.3504
 Frc consts  --      2.2062                 1.4283                 1.2466
 IR Inten    --     64.1505                28.6097                 3.9022

                     31                     32                     33
                      A                      A                      A
 Frequencies --   1271.4167              1301.2768              1311.7356
 Red. masses --      1.2848                 1.5040                 1.3945
 Frc consts  --      1.2237                 1.5005                 1.4137
 IR Inten    --      6.1535                 5.6556                30.5983

                     34                     35                     36
                      A                      A                      A
 Frequencies --   1332.3383              1358.2890              1382.5687
 Red. masses --      1.7228                 1.4428                 1.2467
 Frc consts  --      1.8018                 1.5684                 1.4040
 IR Inten    --      8.3662                 7.9815                 7.9813

                     37                     38                     39
                      A                      A                      A
 Frequencies --   1408.3113              1422.0119              1490.0217
 Red. masses --      1.3114                 1.4442                 1.1181
 Frc consts  --      1.5325                 1.7206                 1.4626
 IR Inten    --     10.5457                 4.9318                 1.5021

                     40                     41                     42
                      A                      A                      A
 Frequencies --   1490.6570              1492.3173              2977.3443
 Red. masses --      1.0969                 1.1819                 1.0729
 Frc consts  --      1.4360                 1.5508                 5.6037
 IR Inten    --      2.2534                 2.7010                36.1897

                     43                     44                     45
                      A                      A                      A
 Frequencies --   2983.6013              2995.4979              3041.4384
 Red. masses --      1.0809                 1.0660                 1.0863
 Frc consts  --      5.6690                 5.6355                 5.9207
 IR Inten    --     70.8049                68.5854                47.8603

                     46                     47                     48
                      A                      A                      A
 Frequencies --   3084.7397              3087.1634              3097.6406
 Red. masses --      1.0978                 1.0934                 1.0592
 Frc consts  --      6.1546                 6.1397                 5.9880
 IR Inten    --     26.6287                52.8616                24.6425

                     49                     50                     51
                      A                      A                      A
 Frequencies --   3183.7348              3188.5937              3201.4822
 Red. masses --      1.0888                 1.1039                 1.1043
 Frc consts  --      6.5023                 6.6128                 6.6689
 IR Inten    --     15.1735                 0.1818                17.6224

 - Thermochemistry -
 -------------------
 Temperature   298.150 Kelvin.  Pressure   1.00000 Atm.
 Atom     1 has atomic number  6 and mass  12.00000

 Molecular mass:   126.06808 amu.
 Principal axes and moments of inertia in atomic units:
                           1         2         3
     Eigenvalues --   529.006131166.211971468.89375
           X            0.99997   0.00449  -0.00600
           Y           -0.00436   0.99978   0.02064
           Z            0.00609  -0.02062   0.99977
 This molecule is an asymmetric top.
 Rotational symmetry number  1.
 Warning -- assumption of classical behavior for rotation
           may cause significant error
 Rotational temperatures (Kelvin)      0.16373     0.07427     0.05897
 Rotational constants (GHZ):           3.41157     1.54752     1.22864
 Zero-point vibrational energy     423719.1 (Joules/Mol)
                                  101.27129 (Kcal/Mol)
 Warning -- explicit consideration of   8 degrees of freedom as
           vibrations may cause significant error
 Vibrational temperatures:    153.66   197.91   439.95   455.94   539.94
          (Kelvin)            589.84   699.97   740.14   907.87  1095.08
                             1150.75  1162.83  1263.78  1273.17  1321.56
                             1345.98  1381.91  1397.98  1475.53  1504.42
                             1531.07  1541.45  1546.12  1565.32  1621.58
                             1665.96  1690.14  1739.09  1792.72  1800.93
                             1829.28  1872.24  1887.29  1916.94  1954.27
                             1989.21  2026.24  2045.96  2143.81  2144.72
                             2147.11  4283.73  4292.73  4309.85  4375.95
                             4438.25  4441.73  4456.81  4580.68  4587.67
                             4606.21

 Zero-point correction=                           0.161386 (Hartree/Particle)
 Thermal correction to Energy=                    0.168555
 Thermal correction to Enthalpy=                  0.169499
 Thermal correction to Gibbs Free Energy=         0.129773
 Sum of electronic and zero-point Energies=           -422.981754
 Sum of electronic and thermal Energies=              -422.974585
 Sum of electronic and thermal Enthalpies=            -422.973641
 Sum of electronic and thermal Free Energies=         -423.013367

                     E (Thermal)             CV                S
                      KCal/Mol        Cal/Mol-Kelvin    Cal/Mol-Kelvin
 Total                  105.770             28.786             83.611
 Electronic               0.000              0.000              0.000
 Translational            0.889              2.981             40.409
 Rotational               0.889              2.981             28.296
 Vibrational            103.992             22.824             14.907
 Vibration     1          0.606              1.944              3.326
 Vibration     2          0.614              1.916              2.838
 Vibration     3          0.696              1.663              1.385
 Vibration     4          0.704              1.641              1.326
 Vibration     5          0.746              1.523              1.058
 Vibration     6          0.774              1.449              0.927
 Vibration     7          0.843              1.280              0.693
 Vibration     8          0.869              1.218              0.623

 Optimization completed.
    -- Stationary point found.
 Normal termination of Gaussian 09 at Mon Jan 27 12:04:48 2020.
