 Gaussian 09, Revision D.01,
 Gaussian 09:  ES64L-G09RevD.01 24-Apr-2013

 -----------------------------
 # b3lyp 6-31G(2df,p) opt Freq
 -----------------------------

 -----
 titel
 -----
 Symbolic Z-matrix:
 Charge =  0 Multiplicity = 1

 SCF Done:  E(RB3LYP) =  -423.116871718     A.U. after   14 cycles
 Optimization completed.
    -- Stationary point found.
 Normal termination of Gaussian 09 at Tue Jan 28 08:19:01 2020.

 ----------------------------------------------------------------------
 #N Geom=AllCheck Guess=TCheck SCRF=Check GenChk RB3LYP/6-31G(2df,p) Fr
 eq
 ----------------------------------------------------------------------

 Structure from the checkpoint file:  "/scratch/puck/g09_29a76272-2950-417e-a427-4c2e90553fc1/Gau-60115.chk"
 -----
 titel
 -----
 Charge =  0 Multiplicity = 1

                         Standard orientation:
 ---------------------------------------------------------------------
 Center     Atomic      Atomic             Coordinates (Angstroms)
 Number     Number       Type             X           Y           Z
 ---------------------------------------------------------------------
      1          6           0       -0.111081    2.642158    0.203542
      2          8           0        0.553250    1.572348   -0.435294
      3          6           0        0.375378    0.321225    0.208241
      4          6           0       -1.007946   -0.168011    0.122807
      5          6           0       -2.137497   -0.576457    0.032339
      6          6           0       -3.502071   -1.071891   -0.073061
      7          6           0        1.332644   -0.647062   -0.459011
      8          6           0        1.879078   -1.793421    0.269435
      9          8           0        2.675073   -0.633470    0.014054
     10          1           0        0.116462    3.543661   -0.369533
     11          1           0       -1.199218    2.492652    0.224946
     12          1           0        0.244306    2.777239    1.236931
     13          1           0        0.669811    0.404141    1.268533
     14          1           0       -4.017508   -0.629419   -0.932356
     15          1           0       -3.517974   -2.159669   -0.201943
     16          1           0       -4.084312   -0.834405    0.823898
     17          1           0        1.224087   -0.702128   -1.541521
     18          1           0        1.602564   -1.951056    1.311246
     19          1           0        2.164168   -2.691288   -0.276040
 ---------------------------------------------------------------------

 SCF Done:  E(RB3LYP) =  -423.116871718     A.U. after    1 cycles

 The electronic state is 1-A.
 Alpha  occ. eigenvalues --  -19.15114 -19.14275 -10.25660 -10.23938 -10.23514
 Alpha  occ. eigenvalues --  -10.22124 -10.20997 -10.18425 -10.17314  -1.07395
 Alpha  occ. eigenvalues --   -1.03500  -0.79191  -0.76274  -0.69673  -0.67319
 Alpha  occ. eigenvalues --   -0.64524  -0.60535  -0.52599  -0.50523  -0.48992
 Alpha  occ. eigenvalues --   -0.46749  -0.45949  -0.43316  -0.43209  -0.42837
 Alpha  occ. eigenvalues --   -0.41515  -0.38546  -0.37282  -0.32877  -0.31061
 Alpha  occ. eigenvalues --   -0.27792  -0.26401  -0.25895  -0.25383
 Alpha virt. eigenvalues --    0.03598   0.04808   0.10338   0.10482   0.11081
 Alpha virt. eigenvalues --    0.11655   0.13352   0.14076   0.15846   0.16343
 Alpha virt. eigenvalues --    0.17296   0.17678   0.18463   0.19072   0.19745

 Mulliken charges:
               1
     1  C   -0.234922
     2  O   -0.230468
     3  C   -0.089871
     4  C    0.114664
     5  C    0.022909
     6  C   -0.499542
     7  C    0.083052
     8  C   -0.176269
     9  O   -0.231055
    10  H    0.129179
    11  H    0.114888
    12  H    0.105423
    13  H    0.092619
    14  H    0.153766
    15  H    0.152190
    16  H    0.150864
    17  H    0.109024
    18  H    0.115658
    19  H    0.117889
 Sum of Mulliken charges =   0.00000

 Dipole moment (field-independent basis, Debye):
    X=             -2.8253    Y=             -1.0719    Z=              0.6857  Tot=              3.0986
 Quadrupole moment (field-independent basis, Debye-Ang):
   XX=            -53.6714   YY=            -47.2616   ZZ=            -52.2737
   XY=             -0.6075   XZ=              0.7315   YZ=              1.4343

  Exact polarizability:  99.625   4.462  82.812   2.460  -0.624  60.697
 Approx polarizability: 142.788  14.648 108.870   4.415  -2.552  91.714

                      1                      2                      3
                      A                      A                      A
 Frequencies --     14.2117                63.8462                80.7132
 Red. masses --      1.0171                 3.8782                 2.8932
 Frc consts  --      0.0001                 0.0093                 0.0111
 IR Inten    --      0.0077                 0.9145                 2.4338

                      4                      5                      6
                      A                      A                      A
 Frequencies --    103.3468               139.6887               177.2180
 Red. masses --      3.6863                 2.2832                 2.9437
 Frc consts  --      0.0232                 0.0262                 0.0545
 IR Inten    --      1.2611                 2.7028                 2.7965

                      7                      8                      9
                      A                      A                      A
 Frequencies --    218.4627               272.4693               313.6875
 Red. masses --      1.3968                 3.5897                 4.0859
 Frc consts  --      0.0393                 0.1570                 0.2369
 IR Inten    --      2.3772                10.0188                 6.5429

                     10                     11                     12
                      A                      A                      A
 Frequencies --    357.6276               403.6325               466.3072
 Red. masses --      5.0167                 3.5509                 4.2012
 Frc consts  --      0.3780                 0.3409                 0.5382
 IR Inten    --      1.4310                 1.4414                 8.6837

                     13                     14                     15
                      A                      A                      A
 Frequencies --    487.8405               572.5789               817.8919
 Red. masses --      4.5987                 5.9845                 4.5161
 Frc consts  --      0.6448                 1.1560                 1.7800
 IR Inten    --      3.0252                 1.3489                30.8780

                     16                     17                     18
                      A                      A                      A
 Frequencies --    861.1486               880.3432               938.3074
 Red. masses --      2.0354                 3.4297                 3.6211
 Frc consts  --      0.8893                 1.5661                 1.8784
 IR Inten    --      8.8068                 8.7353                58.4913

                     19                     20                     21
                      A                      A                      A
 Frequencies --    997.4507              1052.4901              1054.1479
 Red. masses --      2.9740                 1.4117                 1.4038
 Frc consts  --      1.7433                 0.9214                 0.9191
 IR Inten    --     11.8093                 0.7781                 0.8053

                     22                     23                     24
                      A                      A                      A
 Frequencies --   1085.1215              1117.1026              1146.0182
 Red. masses --      1.5774                 2.2294                 3.7942
 Frc consts  --      1.0943                 1.6392                 2.9360
 IR Inten    --      6.7805                48.2271               114.0119

                     25                     26                     27
                      A                      A                      A
 Frequencies --   1156.5192              1160.8596              1176.0501
 Red. masses --      1.7275                 1.7024                 1.6825
 Frc consts  --      1.3613                 1.3516                 1.3710
 IR Inten    --     17.6498                 7.7270                15.4530

                     28                     29                     30
                      A                      A                      A
 Frequencies --   1185.2536              1223.3297              1284.8100
 Red. masses --      1.4062                 1.5033                 1.3411
 Frc consts  --      1.1639                 1.3255                 1.3043
 IR Inten    --      2.7454                 9.0444                 9.4002

                     31                     32                     33
                      A                      A                      A
 Frequencies --   1293.8152              1346.9196              1413.8782
 Red. masses --      1.7903                 1.2135                 1.2414
 Frc consts  --      1.7657                 1.2971                 1.4621
 IR Inten    --     30.2498                25.5055                 4.8225

                     34                     35                     36
                      A                      A                      A
 Frequencies --   1440.0524              1476.5407              1477.1447
 Red. masses --      1.7848                 1.0407                 1.1501
 Frc consts  --      2.1807                 1.3368                 1.4786
 IR Inten    --      7.1722                 5.8781                 1.0458

                     37                     38                     39
                      A                      A                      A
 Frequencies --   1477.7907              1484.6663              1510.1672
 Red. masses --      1.0422                 1.0473                 1.0542
 Frc consts  --      1.3410                 1.3601                 1.4166
 IR Inten    --      5.7188                 3.5999                 7.2678

                     40                     41                     42
                      A                      A                      A
 Frequencies --   1532.7045              2364.5273              2958.6407
 Red. masses --      1.3808                11.8673                 1.0803
 Frc consts  --      1.9111                39.0921                 5.5715
 IR Inten    --      3.0087                17.6892                29.4057

                     43                     44                     45
                      A                      A                      A
 Frequencies --   2982.7803              3029.3689              3041.4103
 Red. masses --      1.0401                 1.0347                 1.0984
 Frc consts  --      5.4522                 5.5948                 5.9864
 IR Inten    --     59.0578                26.8955                41.8346

                     46                     47                     48
                      A                      A                      A
 Frequencies --   3085.5992              3090.9830              3092.2181
 Red. masses --      1.0503                 1.1003                 1.1002
 Frc consts  --      5.8919                 6.1937                 6.1979
 IR Inten    --     23.0697                 8.8382                 8.4184

                     49                     50                     51
                      A                      A                      A
 Frequencies --   3121.6942              3125.8523              3172.5613
 Red. masses --      1.0978                 1.0890                 1.1191
 Frc consts  --      6.3030                 6.2694                 6.6365
 IR Inten    --     26.1988                11.9539                26.0803

 - Thermochemistry -
 -------------------
 Temperature   298.150 Kelvin.  Pressure   1.00000 Atm.
 Atom     1 has atomic number  6 and mass  12.00000

 Molecular mass:   126.06808 amu.
 Principal axes and moments of inertia in atomic units:
                           1         2         3
     Eigenvalues --   906.410171685.143292471.50882
           X            0.99995   0.00937   0.00337
           Y           -0.00941   0.99988   0.01265
           Z           -0.00325  -0.01268   0.99991
 This molecule is an asymmetric top.
 Rotational symmetry number  1.
 Warning -- assumption of classical behavior for rotation
           may cause significant error
 Rotational temperatures (Kelvin)      0.09556     0.05140     0.03504
 Rotational constants (GHZ):           1.99109     1.07097     0.73022
 Zero-point vibrational energy     408690.9 (Joules/Mol)
                                   97.67948 (Kcal/Mol)
 Warning -- explicit consideration of  14 degrees of freedom as
           vibrations may cause significant error
 Vibrational temperatures:     20.45    91.86   116.13   148.69   200.98
          (Kelvin)            254.98   314.32   392.02   451.33   514.55
                              580.74   670.91   701.89   823.81  1176.76
                             1239.00  1266.62  1350.01  1435.11  1514.30
                             1516.68  1561.25  1607.26  1648.86  1663.97
                             1670.22  1692.07  1705.31  1760.10  1848.55
                             1861.51  1937.91  2034.25  2071.91  2124.41
                             2125.28  2126.21  2136.10  2172.79  2205.22
                             3402.02  4256.82  4291.55  4358.58  4375.91
                             4439.48  4447.23  4449.01  4491.42  4497.40
                             4564.60

 Zero-point correction=                           0.155662 (Hartree/Particle)
 Thermal correction to Energy=                    0.166258
 Thermal correction to Enthalpy=                  0.167202
 Thermal correction to Gibbs Free Energy=         0.117517
 Sum of electronic and zero-point Energies=           -422.961210
 Sum of electronic and thermal Energies=              -422.950614
 Sum of electronic and thermal Enthalpies=            -422.949670
 Sum of electronic and thermal Free Energies=         -422.999355

                     E (Thermal)             CV                S
                      KCal/Mol        Cal/Mol-Kelvin    Cal/Mol-Kelvin
 Total                  104.328             35.677            104.571
 Electronic               0.000              0.000              0.000
 Translational            0.889              2.981             40.409
 Rotational               0.889              2.981             29.714
 Vibrational            102.551             29.715             34.449
 Vibration     1          0.593              1.986              7.313
 Vibration     2          0.597              1.972              4.335
 Vibration     3          0.600              1.962              3.873
 Vibration     4          0.605              1.947              3.390
 Vibration     5          0.615              1.914              2.808
 Vibration     6          0.628              1.870              2.358
 Vibration     7          0.646              1.813              1.972
 Vibration     8          0.675              1.724              1.580
 Vibration     9          0.702              1.648              1.343
 Vibration    10          0.733              1.560              1.132
 Vibration    11          0.769              1.462              0.949
 Vibration    12          0.824              1.325              0.748
 Vibration    13          0.844              1.277              0.689
 Vibration    14          0.929              1.091              0.499

 Normal termination of Gaussian 09 at Tue Jan 28 09:48:04 2020.
