 Gaussian 09, Revision D.01,
 Gaussian 09:  ES64L-G09RevD.01 24-Apr-2013

 -----------------------------
 # b3lyp 6-31G(2df,p) opt Freq
 -----------------------------

 -----
 titel
 -----
 Symbolic Z-matrix:
 Charge =  0 Multiplicity = 1

 SCF Done:  E(RB3LYP) =  -423.111478348     A.U. after   14 cycles
 Optimization completed.
    -- Stationary point found.
 Normal termination of Gaussian 09 at Tue Jan 28 08:19:45 2020.

 ----------------------------------------------------------------------
 #N Geom=AllCheck Guess=TCheck SCRF=Check GenChk RB3LYP/6-31G(2df,p) Fr
 eq
 ----------------------------------------------------------------------

 Structure from the checkpoint file:  "/scratch/puck/g09_eae61dcd-fd3e-4d29-a038-3667ee588833/Gau-14683.chk"
 -----
 titel
 -----
 Charge =  0 Multiplicity = 1

                         Standard orientation:
 ---------------------------------------------------------------------
 Center     Atomic      Atomic             Coordinates (Angstroms)
 Number     Number       Type             X           Y           Z
 ---------------------------------------------------------------------
      1          6           0        2.049224   -0.014766   -1.361753
      2          8           0        1.681626    0.509273   -0.104090
      3          6           0        0.759477   -0.273614    0.623907
      4          6           0        0.683132    0.305978    2.030285
      5          6           0       -0.625758   -0.305411   -0.038992
      6          6           0       -1.045393   -1.487041   -0.823760
      7          8           0       -1.496592   -1.311162    0.513382
      8          6           0       -1.232253    0.974403   -0.319010
      9          6           0       -1.719258    2.048354   -0.551092
     10          1           0        1.220820    0.004231   -2.083178
     11          1           0        2.856856    0.614068   -1.743845
     12          1           0        2.416359   -1.049734   -1.278011
     13          1           0        1.103702   -1.320607    0.672785
     14          1           0       -0.010936   -0.277608    2.640077
     15          1           0        1.672276    0.285353    2.493917
     16          1           0        0.337180    1.342383    1.992566
     17          1           0       -1.804264   -1.368992   -1.594916
     18          1           0       -0.334386   -2.298139   -0.978285
     19          1           0       -2.152908    2.996745   -0.752955
 ---------------------------------------------------------------------

 SCF Done:  E(RB3LYP) =  -423.111478348     A.U. after    1 cycles

 The electronic state is 1-A.
 Alpha  occ. eigenvalues --  -19.16465 -19.14472 -10.26523 -10.24570 -10.24285
 Alpha  occ. eigenvalues --  -10.22723 -10.18841 -10.18408 -10.17256  -1.08568
 Alpha  occ. eigenvalues --   -1.03776  -0.78954  -0.75428  -0.69121  -0.67775
 Alpha  occ. eigenvalues --   -0.65453  -0.60865  -0.53513  -0.51277  -0.50376
 Alpha  occ. eigenvalues --   -0.48217  -0.45759  -0.44375  -0.42139  -0.41494
 Alpha  occ. eigenvalues --   -0.38379  -0.37645  -0.36070  -0.33949  -0.31645
 Alpha  occ. eigenvalues --   -0.29090  -0.27902  -0.26881  -0.25517
 Alpha virt. eigenvalues --    0.02042   0.03932   0.08316   0.10181   0.12112
 Alpha virt. eigenvalues --    0.12490   0.13278   0.13922   0.14396   0.16027
 Alpha virt. eigenvalues --    0.17358   0.17919   0.18490   0.19304   0.20136

 Mulliken charges:
               1
     1  C   -0.238037
     2  O   -0.231805
     3  C    0.050881
     4  C   -0.414492
     5  C    0.174455
     6  C   -0.220337
     7  O   -0.268827
     8  C    0.328371
     9  C   -0.434008
    10  H    0.114041
    11  H    0.130460
    12  H    0.101889
    13  H    0.069790
    14  H    0.133918
    15  H    0.122276
    16  H    0.137125
    17  H    0.126408
    18  H    0.117160
    19  H    0.200732
 Sum of Mulliken charges =   0.00000

 Dipole moment (field-independent basis, Debye):
    X=              0.6788    Y=             -0.3800    Z=             -1.6128  Tot=              1.7906
 Quadrupole moment (field-independent basis, Debye-Ang):
   XX=            -54.6640   YY=            -49.8318   ZZ=            -51.0919
   XY=             -5.0113   XZ=              1.3348   YZ=              1.3913

  Exact polarizability:  73.882  -7.981  87.750   2.523   0.040  71.181
 Approx polarizability: 100.830 -12.954 142.035   2.468  -4.897  99.538

                      1                      2                      3
                      A                      A                      A
 Frequencies --     54.4173               103.4681               134.7997
 Red. masses --      3.5536                 2.3618                 3.5438
 Frc consts  --      0.0062                 0.0149                 0.0379
 IR Inten    --      0.4743                 2.1137                 1.1416

                      4                      5                      6
                      A                      A                      A
 Frequencies --    175.0930               211.1509               223.5150
 Red. masses --      2.4746                 1.2645                 1.3359
 Frc consts  --      0.0447                 0.0332                 0.0393
 IR Inten    --      1.7652                 1.2652                 0.9916

                      7                      8                      9
                      A                      A                      A
 Frequencies --    244.6521               254.8973               304.3501
 Red. masses --      2.6831                 3.2904                 3.1932
 Frc consts  --      0.0946                 0.1260                 0.1743
 IR Inten    --      6.2434                 3.9565                 3.5232

                     10                     11                     12
                      A                      A                      A
 Frequencies --    370.6406               443.2316               502.4497
 Red. masses --      3.3018                 5.0342                 3.5284
 Frc consts  --      0.2672                 0.5827                 0.5248
 IR Inten    --      2.3575                 2.0109                 3.2826

                     13                     14                     15
                      A                      A                      A
 Frequencies --    572.0205               599.2317               626.1847
 Red. masses --      6.1397                 5.1237                 1.2355
 Frc consts  --      1.1836                 1.0840                 0.2854
 IR Inten    --      5.7653                 8.1004                37.5168

                     16                     17                     18
                      A                      A                      A
 Frequencies --    663.6630               692.3897               857.9392
 Red. masses --      1.2516                 3.3150                 3.6894
 Frc consts  --      0.3248                 0.9363                 1.6000
 IR Inten    --     32.9174                 8.6430                25.5040

                     19                     20                     21
                      A                      A                      A
 Frequencies --    872.0380               905.3972               963.1804
 Red. masses --      2.4605                 1.6196                 6.9811
 Frc consts  --      1.1024                 0.7822                 3.8159
 IR Inten    --      3.4776                 6.4401                30.1308

                     22                     23                     24
                      A                      A                      A
 Frequencies --   1021.4383              1087.2820              1132.1066
 Red. masses --      1.6148                 2.3197                 1.8166
 Frc consts  --      0.9926                 1.6157                 1.3718
 IR Inten    --     14.5361                21.4195                20.7604

                     25                     26                     27
                      A                      A                      A
 Frequencies --   1133.4072              1163.5014              1167.7685
 Red. masses --      1.3507                 4.4213                 1.3259
 Frc consts  --      1.0223                 3.5264                 1.0653
 IR Inten    --      9.9342               110.2695                 0.5153

                     28                     29                     30
                      A                      A                      A
 Frequencies --   1182.0591              1237.9480              1257.3901
 Red. masses --      1.2950                 1.8210                 3.7656
 Frc consts  --      1.0661                 1.6442                 3.5077
 IR Inten    --      2.4927                35.8873                13.6463

                     31                     32                     33
                      A                      A                      A
 Frequencies --   1311.2771              1356.7967              1399.2956
 Red. masses --      2.0208                 1.2699                 1.7003
 Frc consts  --      2.0472                 1.3774                 1.9615
 IR Inten    --     17.8674                14.5318                11.1128

                     34                     35                     36
                      A                      A                      A
 Frequencies --   1407.3177              1478.1908              1486.4059
 Red. masses --      1.3862                 1.1126                 1.0470
 Frc consts  --      1.6176                 1.4324                 1.3629
 IR Inten    --     15.3366                 2.1270                 4.0113

                     37                     38                     39
                      A                      A                      A
 Frequencies --   1491.7588              1498.3402              1506.9376
 Red. masses --      1.0662                 1.0696                 1.0539
 Frc consts  --      1.3980                 1.4147                 1.4101
 IR Inten    --      2.7934                 1.1530                 6.4105

                     40                     41                     42
                      A                      A                      A
 Frequencies --   1517.1845              2238.1976              2961.9593
 Red. masses --      1.2289                 5.9527                 1.0812
 Frc consts  --      1.6667                17.5694                 5.5888
 IR Inten    --      1.6531                 1.4812                31.2098

                     43                     44                     45
                      A                      A                      A
 Frequencies --   2979.9627              3036.0371              3052.9869
 Red. masses --      1.0414                 1.0989                 1.0340
 Frc consts  --      5.4489                 5.9680                 5.6786
 IR Inten    --     56.8165                47.0685                11.0017

                     46                     47                     48
                      A                      A                      A
 Frequencies --   3081.7978              3115.8592              3131.0733
 Red. masses --      1.0503                 1.0969                 1.1024
 Frc consts  --      5.8773                 6.2742                 6.3678
 IR Inten    --     23.4144                27.9571                16.3573

                     49                     50                     51
                      A                      A                      A
 Frequencies --   3135.7601              3176.0165              3500.9882
 Red. masses --      1.1024                 1.1196                 1.1622
 Frc consts  --      6.3866                 6.6542                 8.3931
 IR Inten    --     12.3679                17.4670                66.6019

 - Thermochemistry -
 -------------------
 Temperature   298.150 Kelvin.  Pressure   1.00000 Atm.
 Atom     1 has atomic number  6 and mass  12.00000

 Molecular mass:   126.06808 amu.
 Principal axes and moments of inertia in atomic units:
                           1         2         3
     Eigenvalues --   960.883041311.225351387.32775
           X            0.99896  -0.04456  -0.00970
           Y            0.04560   0.97876   0.19989
           Z            0.00059  -0.20012   0.97977
 This molecule is an asymmetric top.
 Rotational symmetry number  1.
 Warning -- assumption of classical behavior for rotation
           may cause significant error
 Rotational temperatures (Kelvin)      0.09014     0.06606     0.06243
 Rotational constants (GHZ):           1.87821     1.37638     1.30088
 Zero-point vibrational energy     406860.4 (Joules/Mol)
                                   97.24198 (Kcal/Mol)
 Warning -- explicit consideration of  14 degrees of freedom as
           vibrations may cause significant error
 Vibrational temperatures:     78.29   148.87   193.95   251.92   303.80
          (Kelvin)            321.59   352.00   366.74   437.89   533.27
                              637.71   722.91   823.01   862.16   900.94
                              954.86   996.19  1234.38  1254.67  1302.66
                             1385.80  1469.62  1564.35  1628.85  1630.72
                             1674.02  1680.16  1700.72  1781.13  1809.10
                             1886.63  1952.13  2013.27  2024.81  2126.78
                             2138.60  2146.31  2155.77  2168.14  2182.89
                             3220.26  4261.59  4287.50  4368.17  4392.56
                             4434.01  4483.02  4504.91  4511.65  4569.57
                             5037.13

 Zero-point correction=                           0.154965 (Hartree/Particle)
 Thermal correction to Energy=                    0.165107
 Thermal correction to Enthalpy=                  0.166051
 Thermal correction to Gibbs Free Energy=         0.119852
 Sum of electronic and zero-point Energies=           -422.956513
 Sum of electronic and thermal Energies=              -422.946371
 Sum of electronic and thermal Enthalpies=            -422.945427
 Sum of electronic and thermal Free Energies=         -422.991626

                     E (Thermal)             CV                S
                      KCal/Mol        Cal/Mol-Kelvin    Cal/Mol-Kelvin
 Total                  103.606             36.620             97.235
 Electronic               0.000              0.000              0.000
 Translational            0.889              2.981             40.409
 Rotational               0.889              2.981             28.948
 Vibrational            101.829             30.658             27.878
 Vibration     1          0.596              1.976              4.650
 Vibration     2          0.605              1.946              3.388
 Vibration     3          0.613              1.919              2.876
 Vibration     4          0.627              1.873              2.380
 Vibration     5          0.643              1.824              2.034
 Vibration     6          0.649              1.805              1.930
 Vibration     7          0.660              1.772              1.769
 Vibration     8          0.665              1.755              1.696
 Vibration     9          0.695              1.665              1.393
 Vibration    10          0.743              1.533              1.077
 Vibration    11          0.803              1.376              0.817
 Vibration    12          0.858              1.245              0.652
 Vibration    13          0.928              1.092              0.500
 Vibration    14          0.957              1.033              0.451

 Optimization completed.
    -- Stationary point found.
 Normal termination of Gaussian 09 at Tue Jan 28 09:04:28 2020.
