 Gaussian 09, Revision D.01,
 Gaussian 09:  ES64L-G09RevD.01 24-Apr-2013

 -----------------------------
 # b3lyp 6-31G(2df,p) opt Freq
 -----------------------------

 -----
 titel
 -----
 Symbolic Z-matrix:
 Charge =  0 Multiplicity = 1

 SCF Done:  E(RB3LYP) =  -423.156261117     A.U. after   14 cycles
 Optimization completed.
    -- Stationary point found.
 Normal termination of Gaussian 09 at Mon Jan 27 15:48:28 2020.

 ----------------------------------------------------------------------
 #N Geom=AllCheck Guess=TCheck SCRF=Check GenChk RB3LYP/6-31G(2df,p) Fr
 eq
 ----------------------------------------------------------------------

 Structure from the checkpoint file:  "/scratch/puck/g09_4026166d-80e6-40d3-b32e-c638e6c5a967/Gau-82060.chk"
 -----
 titel
 -----
 Charge =  0 Multiplicity = 1

                         Standard orientation:
 ---------------------------------------------------------------------
 Center     Atomic      Atomic             Coordinates (Angstroms)
 Number     Number       Type             X           Y           Z
 ---------------------------------------------------------------------
      1          8           0       -0.505491    2.170628   -0.044694
      2          6           0       -0.805438    0.802166   -0.286207
      3          6           0        0.339185   -0.014633    0.309148
      4          6           0        1.684822    0.272044   -0.376173
      5          6           0        2.840645   -0.370063    0.351885
      6          8           0        3.661631   -1.094822   -0.148568
      7          6           0       -2.172427    0.443144    0.346089
      8          6           0       -2.605443   -0.917731    0.061025
      9          6           0       -2.937768   -2.043180   -0.199862
     10          1           0       -1.104229    2.713041   -0.567265
     11          1           0       -0.863052    0.603892   -1.367599
     12          1           0        0.408124    0.227914    1.377952
     13          1           0        0.090306   -1.077478    0.232264
     14          1           0        1.692385   -0.069010   -1.415754
     15          1           0        1.846461    1.358337   -0.367208
     16          1           0        2.890118   -0.116283    1.438155
     17          1           0       -2.107034    0.608443    1.428665
     18          1           0       -2.923346    1.151324   -0.029022
     19          1           0       -3.240305   -3.037113   -0.419524
 ---------------------------------------------------------------------

 SCF Done:  E(RB3LYP) =  -423.156261118     A.U. after    1 cycles

 The electronic state is 1-A.
 Alpha  occ. eigenvalues --  -19.15258 -19.13449 -10.26704 -10.25161 -10.21614
 Alpha  occ. eigenvalues --  -10.19596 -10.19094 -10.18960 -10.17909  -1.04132
 Alpha  occ. eigenvalues --   -1.03564  -0.81803  -0.78398  -0.72666  -0.68010
 Alpha  occ. eigenvalues --   -0.60055  -0.57263  -0.53972  -0.53250  -0.48152
 Alpha  occ. eigenvalues --   -0.46990  -0.45910  -0.44382  -0.42581  -0.41242
 Alpha  occ. eigenvalues --   -0.39489  -0.38630  -0.35911  -0.35149  -0.33794
 Alpha  occ. eigenvalues --   -0.29651  -0.27204  -0.26735  -0.24588
 Alpha virt. eigenvalues --   -0.01619   0.04216   0.04800   0.06395   0.10832
 Alpha virt. eigenvalues --    0.11966   0.12097   0.12466   0.14128   0.15425
 Alpha virt. eigenvalues --    0.15976   0.17338   0.18426   0.20673   0.22147

 Mulliken charges:
               1
     1  O   -0.424948
     2  C    0.103699
     3  C   -0.190300
     4  C   -0.276001
     5  C    0.157058
     6  O   -0.240137
     7  C   -0.374688
     8  C    0.298748
     9  C   -0.445717
    10  H    0.287794
    11  H    0.083862
    12  H    0.108436
    13  H    0.128680
    14  H    0.116846
    15  H    0.138514
    16  H    0.068801
    17  H    0.138706
    18  H    0.119951
    19  H    0.200696
 Sum of Mulliken charges =   0.00000

 Dipole moment (field-independent basis, Debye):
    X=             -3.1063    Y=              1.7773    Z=             -0.2045  Tot=              3.5846
 Quadrupole moment (field-independent basis, Debye-Ang):
   XX=            -64.2695   YY=            -50.3414   ZZ=            -52.1716
   XY=              3.6906   XZ=              3.5476   YZ=             -2.1037

  Exact polarizability:  87.117   2.853  86.495   1.645   4.476  62.664
 Approx polarizability: 107.762   2.910 138.824   0.847  13.265  96.951

                      1                      2                      3
                      A                      A                      A
 Frequencies --     46.9177                66.3730                95.2402
 Red. masses --      6.8373                 2.5150                 3.3087
 Frc consts  --      0.0089                 0.0065                 0.0177
 IR Inten    --      2.4764                 3.2717                 1.7589

                      4                      5                      6
                      A                      A                      A
 Frequencies --    104.6944               146.1559               183.0938
 Red. masses --      2.9636                 2.9305                 3.8211
 Frc consts  --      0.0191                 0.0369                 0.0755
 IR Inten    --      1.4493                 2.2154                 0.9027

                      7                      8                      9
                      A                      A                      A
 Frequencies --    283.7723               297.4306               348.0411
 Red. masses --      1.1036                 4.1707                 3.1334
 Frc consts  --      0.0524                 0.2174                 0.2236
 IR Inten    --     86.0806                15.3285                 2.9601

                     10                     11                     12
                      A                      A                      A
 Frequencies --    356.1285               424.4680               454.3987
 Red. masses --      2.6847                 4.7389                 2.6738
 Frc consts  --      0.2006                 0.5031                 0.3253
 IR Inten    --      4.9732                 5.3321                12.4228

                     13                     14                     15
                      A                      A                      A
 Frequencies --    523.7435               561.3663               632.8495
 Red. masses --      2.8679                 3.5231                 1.2146
 Frc consts  --      0.4635                 0.6541                 0.2866
 IR Inten    --     16.6663                 4.2739                43.2363

                     16                     17                     18
                      A                      A                      A
 Frequencies --    654.9824               765.6731               826.2395
 Red. masses --      1.2341                 1.3492                 1.8907
 Frc consts  --      0.3119                 0.4660                 0.7605
 IR Inten    --     42.6283                 1.4626                 1.7488

                     19                     20                     21
                      A                      A                      A
 Frequencies --    875.1988               972.2235               976.5661
 Red. masses --      1.7339                 3.1719                 2.3557
 Frc consts  --      0.7825                 1.7665                 1.3236
 IR Inten    --      4.1072                 0.9727                10.9250

                     22                     23                     24
                      A                      A                      A
 Frequencies --   1012.1640              1035.5415              1069.7597
 Red. masses --      2.6367                 3.1539                 2.2103
 Frc consts  --      1.5916                 1.9927                 1.4903
 IR Inten    --     33.3513                22.1593                35.6883

                     25                     26                     27
                      A                      A                      A
 Frequencies --   1101.3028              1123.6828              1188.2608
 Red. masses --      2.3953                 2.7135                 1.3754
 Frc consts  --      1.7117                 2.0187                 1.1442
 IR Inten    --     17.5723                32.4491                21.3826

                     28                     29                     30
                      A                      A                      A
 Frequencies --   1197.7110              1261.4959              1290.0470
 Red. masses --      1.1637                 1.3021                 1.2705
 Frc consts  --      0.9836                 1.2208                 1.2458
 IR Inten    --     16.7082                25.6648                13.8280

                     31                     32                     33
                      A                      A                      A
 Frequencies --   1303.7894              1328.2719              1362.9384
 Red. masses --      1.3389                 1.1183                 1.3588
 Frc consts  --      1.3410                 1.1625                 1.4872
 IR Inten    --      1.1888                16.0075                13.7711

                     34                     35                     36
                      A                      A                      A
 Frequencies --   1389.4116              1430.5289              1438.5003
 Red. masses --      1.3917                 1.2313                 1.4704
 Frc consts  --      1.5829                 1.4846                 1.7927
 IR Inten    --      8.6605                 2.6119                20.2711

                     37                     38                     39
                      A                      A                      A
 Frequencies --   1464.7723              1470.9489              1483.8345
 Red. masses --      1.0838                 1.1068                 1.0980
 Frc consts  --      1.3701                 1.4109                 1.4243
 IR Inten    --      1.1056                 4.4179                 6.0266

                     40                     41                     42
                      A                      A                      A
 Frequencies --   1836.2340              2237.8665              2844.9761
 Red. masses --     10.1023                 5.9287                 1.0813
 Frc consts  --     20.0690                17.4935                 5.1564
 IR Inten    --    196.0167                 1.4807               113.7723

                     43                     44                     45
                      A                      A                      A
 Frequencies --   2985.1179              3017.3211              3026.5539
 Red. masses --      1.0829                 1.0609                 1.0625
 Frc consts  --      5.6854                 5.6905                 5.7341
 IR Inten    --     25.0191                21.6611                10.0595

                     46                     47                     48
                      A                      A                      A
 Frequencies --   3032.1165              3058.4930              3086.9399
 Red. masses --      1.0637                 1.0990                 1.0954
 Frc consts  --      5.7620                 6.0569                 6.1499
 IR Inten    --     20.3387                17.0867                 3.9419

                     49                     50                     51
                      A                      A                      A
 Frequencies --   3104.4354              3505.3437              3824.2347
 Red. masses --      1.1015                 1.1623                 1.0664
 Frc consts  --      6.2545                 8.4144                 9.1886
 IR Inten    --     23.7464                67.5082                26.2620

 - Thermochemistry -
 -------------------
 Temperature   298.150 Kelvin.  Pressure   1.00000 Atm.
 Atom     1 has atomic number  8 and mass  15.99491

 Molecular mass:   126.06808 amu.
 Principal axes and moments of inertia in atomic units:
                           1         2         3
     Eigenvalues --   740.900702353.607952963.78277
           X            0.99996   0.00801   0.00300
           Y           -0.00800   0.99996  -0.00431
           Z           -0.00303   0.00429   0.99999
 This molecule is an asymmetric top.
 Rotational symmetry number  1.
 Warning -- assumption of classical behavior for rotation
           may cause significant error
 Rotational temperatures (Kelvin)      0.11690     0.03680     0.02922
 Rotational constants (GHZ):           2.43587     0.76680     0.60893
 Zero-point vibrational energy     407377.2 (Joules/Mol)
                                   97.36549 (Kcal/Mol)
 Warning -- explicit consideration of  14 degrees of freedom as
           vibrations may cause significant error
 Vibrational temperatures:     67.50    95.50   137.03   150.63   210.29
          (Kelvin)            263.43   408.28   427.94   500.75   512.39
                              610.71   653.78   753.55   807.68   910.53
                              942.37  1101.63  1188.77  1259.21  1398.81
                             1405.06  1456.28  1489.91  1539.14  1584.53
                             1616.73  1709.64  1723.24  1815.01  1856.09
                             1875.86  1911.08  1960.96  1999.05  2058.21
                             2069.68  2107.48  2116.36  2134.90  2641.93
                             3219.79  4093.28  4294.91  4341.25  4354.53
                             4362.53  4400.48  4441.41  4466.58  5043.40
                             5502.21

 Zero-point correction=                           0.155162 (Hartree/Particle)
 Thermal correction to Energy=                    0.165708
 Thermal correction to Enthalpy=                  0.166652
 Thermal correction to Gibbs Free Energy=         0.118273
 Sum of electronic and zero-point Energies=           -423.001099
 Sum of electronic and thermal Energies=              -422.990553
 Sum of electronic and thermal Enthalpies=            -422.989609
 Sum of electronic and thermal Free Energies=         -423.037988

                     E (Thermal)             CV                S
                      KCal/Mol        Cal/Mol-Kelvin    Cal/Mol-Kelvin
 Total                  103.983             36.993            101.823
 Electronic               0.000              0.000              0.000
 Translational            0.889              2.981             40.409
 Rotational               0.889              2.981             30.026
 Vibrational            102.206             31.031             31.388
 Vibration     1          0.595              1.979              4.943
 Vibration     2          0.598              1.970              4.258
 Vibration     3          0.603              1.953              3.549
 Vibration     4          0.605              1.945              3.365
 Vibration     5          0.617              1.907              2.722
 Vibration     6          0.631              1.863              2.297
 Vibration     7          0.682              1.704              1.511
 Vibration     8          0.691              1.679              1.431
 Vibration     9          0.726              1.579              1.175
 Vibration    10          0.732              1.563              1.139
 Vibration    11          0.786              1.417              0.877
 Vibration    12          0.813              1.351              0.783
 Vibration    13          0.879              1.197              0.601
 Vibration    14          0.917              1.115              0.521

 Normal termination of Gaussian 09 at Mon Jan 27 16:20:51 2020.
