 Gaussian 09, Revision D.01,
 Gaussian 09:  ES64L-G09RevD.01 24-Apr-2013

 -----------------------------
 # b3lyp 6-31G(2df,p) opt Freq
 -----------------------------

 -----
 titel
 -----
 Symbolic Z-matrix:
 Charge =  0 Multiplicity = 1

 SCF Done:  E(RB3LYP) =  -423.154545863     A.U. after   13 cycles
 Optimization completed.
    -- Stationary point found.
 Normal termination of Gaussian 09 at Tue Jan 28 02:52:42 2020.

 ----------------------------------------------------------------------
 #N Geom=AllCheck Guess=TCheck SCRF=Check GenChk RB3LYP/6-31G(2df,p) Fr
 eq
 ----------------------------------------------------------------------

 Structure from the checkpoint file:  "/scratch/puck/g09_45c17ac4-ed6d-42bf-b6c5-c1c76e005f9c/Gau-113721.chk"
 -----
 titel
 -----
 Charge =  0 Multiplicity = 1

                         Standard orientation:
 ---------------------------------------------------------------------
 Center     Atomic      Atomic             Coordinates (Angstroms)
 Number     Number       Type             X           Y           Z
 ---------------------------------------------------------------------
      1          8           0       -2.741952    0.020363   -0.193523
      2          6           0       -1.328766   -0.030964   -0.330685
      3          6           0       -0.685700    1.324115    0.024928
      4          6           0        0.822464    1.286108    0.224660
      5          6           0        1.803586    0.419793   -0.526865
      6          8           0        1.218460   -0.783182   -1.022114
      7          6           0        0.809602   -1.147732    0.341253
      8          6           0       -0.710006   -1.197389    0.458369
      9          6           0        1.480643    0.109824    0.911981
     10          1           0       -2.942193    0.193700    0.733171
     11          1           0       -1.161361   -0.230573   -1.390859
     12          1           0       -0.963512    2.059476   -0.738282
     13          1           0       -1.133602    1.674189    0.967826
     14          1           0        1.263659    2.239893    0.508622
     15          1           0        2.700477    0.780133   -1.017875
     16          1           0        1.295590   -2.083664    0.632041
     17          1           0       -1.111232   -2.140210    0.072469
     18          1           0       -0.984830   -1.136751    1.521367
     19          1           0        2.074008    0.163835    1.814775
 ---------------------------------------------------------------------

 SCF Done:  E(RB3LYP) =  -423.154545863     A.U. after    1 cycles

 The electronic state is 1-A.
 Alpha  occ. eigenvalues --  -19.13602 -19.12988 -10.23977 -10.23935 -10.22557
 Alpha  occ. eigenvalues --  -10.19708 -10.19221 -10.18338 -10.18058  -1.05049
 Alpha  occ. eigenvalues --   -1.01224  -0.84237  -0.77904  -0.73223  -0.65221
 Alpha  occ. eigenvalues --   -0.61328  -0.56490  -0.54052  -0.52992  -0.47710
 Alpha  occ. eigenvalues --   -0.46357  -0.45603  -0.43689  -0.41870  -0.40275
 Alpha  occ. eigenvalues --   -0.38203  -0.37271  -0.35610  -0.33213  -0.32365
 Alpha  occ. eigenvalues --   -0.30255  -0.27173  -0.25925  -0.23027
 Alpha virt. eigenvalues --    0.07262   0.08603   0.09618   0.11550   0.12630
 Alpha virt. eigenvalues --    0.13389   0.14326   0.15105   0.16172   0.16771
 Alpha virt. eigenvalues --    0.17409   0.18938   0.20135   0.22197   0.23119

 Mulliken charges:
               1
     1  O   -0.438744
     2  C    0.127643
     3  C   -0.245330
     4  C   -0.062413
     5  C    0.088594
     6  O   -0.300848
     7  C    0.092516
     8  C   -0.249441
     9  C   -0.160969
    10  H    0.271670
    11  H    0.115307
    12  H    0.109310
    13  H    0.083261
    14  H    0.089233
    15  H    0.103644
    16  H    0.084220
    17  H    0.111331
    18  H    0.087777
    19  H    0.093238
 Sum of Mulliken charges =   0.00000

 Dipole moment (field-independent basis, Debye):
    X=              1.0996    Y=              0.8434    Z=              2.5131  Tot=              2.8699
 Quadrupole moment (field-independent basis, Debye-Ang):
   XX=            -55.3746   YY=            -51.4043   ZZ=            -52.8602
   XY=              1.2670   XZ=             -2.4615   YZ=             -1.5949

  Exact polarizability:  79.880   0.969  74.690  -1.742  -1.675  65.542
 Approx polarizability: 107.127   0.065 108.061  -4.363  -0.512 109.168

                      1                      2                      3
                      A                      A                      A
 Frequencies --    150.2837               214.1918               301.5028
 Red. masses --      3.3839                 2.6910                 1.1458
 Frc consts  --      0.0450                 0.0727                 0.0614
 IR Inten    --      0.4230                 0.7865                55.3453

                      4                      5                      6
                      A                      A                      A
 Frequencies --    335.7979               367.3886               406.2363
 Red. masses --      3.5897                 3.8322                 3.8210
 Frc consts  --      0.2385                 0.3048                 0.3715
 IR Inten    --     12.9325                28.6583                 1.1817

                      7                      8                      9
                      A                      A                      A
 Frequencies --    444.4655               451.9752               638.8476
 Red. masses --      3.7206                 2.1419                 4.6053
 Frc consts  --      0.4330                 0.2578                 1.1074
 IR Inten    --      2.6664                 3.5941                 6.5391

                     10                     11                     12
                      A                      A                      A
 Frequencies --    716.0610               735.8596               745.6545
 Red. masses --      3.2611                 2.3215                 3.8021
 Frc consts  --      0.9852                 0.7406                 1.2455
 IR Inten    --      5.6184                 5.6322                 3.1045

                     13                     14                     15
                      A                      A                      A
 Frequencies --    796.5650               853.9541               861.6546
 Red. masses --      2.0142                 1.9100                 3.1820
 Frc consts  --      0.7530                 0.8206                 1.3919
 IR Inten    --      9.6857                 4.9402                10.9123

                     16                     17                     18
                      A                      A                      A
 Frequencies --    889.1958               942.9835               968.4363
 Red. masses --      1.7013                 2.0879                 2.5216
 Frc consts  --      0.7926                 1.0939                 1.3934
 IR Inten    --      6.7257                 0.8952                 8.4928

                     19                     20                     21
                      A                      A                      A
 Frequencies --   1020.0972              1022.0572              1038.9289
 Red. masses --      1.5974                 1.9663                 2.3861
 Frc consts  --      0.9794                 1.2102                 1.5175
 IR Inten    --     14.7872                22.8702                30.0320

                     22                     23                     24
                      A                      A                      A
 Frequencies --   1050.2720              1065.3465              1098.1866
 Red. masses --      2.1593                 1.6539                 3.6040
 Frc consts  --      1.4034                 1.1059                 2.5609
 IR Inten    --     42.5150                26.7650               101.1224

                     25                     26                     27
                      A                      A                      A
 Frequencies --   1101.6725              1111.2636              1159.4770
 Red. masses --      1.8104                 2.5654                 1.5043
 Frc consts  --      1.2946                 1.8666                 1.1915
 IR Inten    --      2.0319                 6.9091                 3.6190

                     28                     29                     30
                      A                      A                      A
 Frequencies --   1167.9259              1214.3539              1254.5796
 Red. masses --      1.3333                 1.3001                 1.2645
 Frc consts  --      1.0715                 1.1296                 1.1726
 IR Inten    --      6.6875                 6.7312                 1.7741

                     31                     32                     33
                      A                      A                      A
 Frequencies --   1287.3336              1298.2632              1314.9504
 Red. masses --      1.8474                 1.4721                 1.4962
 Frc consts  --      1.8038                 1.4618                 1.5242
 IR Inten    --     22.1839                 6.9137                 2.1640

                     34                     35                     36
                      A                      A                      A
 Frequencies --   1335.6847              1358.0207              1372.1797
 Red. masses --      1.4554                 1.5179                 1.5609
 Frc consts  --      1.5299                 1.6494                 1.7316
 IR Inten    --      5.1944                 2.7174                 8.3279

                     37                     38                     39
                      A                      A                      A
 Frequencies --   1390.6299              1426.8662              1440.1159
 Red. masses --      1.3993                 1.3038                 2.1653
 Frc consts  --      1.5943                 1.5640                 2.6459
 IR Inten    --      9.4827                39.6626                 1.6580

                     40                     41                     42
                      A                      A                      A
 Frequencies --   1475.4995              1487.5774              2988.2840
 Red. masses --      1.1016                 1.0927                 1.0692
 Frc consts  --      1.4130                 1.4247                 5.6254
 IR Inten    --      1.3816                 3.0893                37.8037

                     43                     44                     45
                      A                      A                      A
 Frequencies --   3012.2056              3059.6328              3061.4060
 Red. masses --      1.0656                 1.0900                 1.0899
 Frc consts  --      5.6968                 6.0120                 6.0183
 IR Inten    --     26.5990                51.6509                 6.8356

                     46                     47                     48
                      A                      A                      A
 Frequencies --   3076.2853              3105.0410              3129.1032
 Red. masses --      1.0936                 1.0884                 1.0864
 Frc consts  --      6.0977                 6.1827                 6.2672
 IR Inten    --     34.1959                22.6280                14.5822

                     49                     50                     51
                      A                      A                      A
 Frequencies --   3176.7005              3199.6846              3793.3818
 Red. masses --      1.0906                 1.0978                 1.0658
 Frc consts  --      6.4845                 6.6219                 9.0358
 IR Inten    --     27.2799                15.4388                 9.3581

 - Thermochemistry -
 -------------------
 Temperature   298.150 Kelvin.  Pressure   1.00000 Atm.
 Atom     1 has atomic number  8 and mass  15.99491

 Molecular mass:   126.06808 amu.
 Principal axes and moments of inertia in atomic units:
                           1         2         3
     Eigenvalues --   560.203351197.798881417.48015
           X            0.99995   0.01040  -0.00048
           Y           -0.01041   0.99945  -0.03156
           Z            0.00015   0.03156   0.99950
 This molecule is an asymmetric top.
 Rotational symmetry number  1.
 Warning -- assumption of classical behavior for rotation
           may cause significant error
 Rotational temperatures (Kelvin)      0.15461     0.07231     0.06110
 Rotational constants (GHZ):           3.22158     1.50671     1.27320
 Zero-point vibrational energy     424160.3 (Joules/Mol)
                                  101.37674 (Kcal/Mol)
 Warning -- explicit consideration of   8 degrees of freedom as
           vibrations may cause significant error
 Vibrational temperatures:    216.22   308.17   433.79   483.14   528.59
          (Kelvin)            584.48   639.49   650.29   919.16  1030.25
                             1058.74  1072.83  1146.08  1228.65  1239.73
                             1279.35  1356.74  1393.36  1467.69  1470.51
                             1494.79  1511.11  1532.79  1580.04  1585.06
                             1598.86  1668.23  1680.38  1747.18  1805.06
                             1852.18  1867.91  1891.92  1921.75  1953.89
                             1974.26  2000.80  2052.94  2072.00  2122.91
                             2140.29  4299.47  4333.89  4402.12  4404.67
                             4426.08  4467.46  4502.08  4570.56  4603.63
                             5457.82

 Zero-point correction=                           0.161554 (Hartree/Particle)
 Thermal correction to Energy=                    0.168723
 Thermal correction to Enthalpy=                  0.169667
 Thermal correction to Gibbs Free Energy=         0.130333
 Sum of electronic and zero-point Energies=           -422.992992
 Sum of electronic and thermal Energies=              -422.985823
 Sum of electronic and thermal Enthalpies=            -422.984879
 Sum of electronic and thermal Free Energies=         -423.024213

                     E (Thermal)             CV                S
                      KCal/Mol        Cal/Mol-Kelvin    Cal/Mol-Kelvin
 Total                  105.875             29.702             82.785
 Electronic               0.000              0.000              0.000
 Translational            0.889              2.981             40.409
 Rotational               0.889              2.981             28.344
 Vibrational            104.098             23.740             14.032
 Vibration     1          0.618              1.902              2.669
 Vibration     2          0.644              1.819              2.008
 Vibration     3          0.693              1.671              1.409
 Vibration     4          0.717              1.604              1.232
 Vibration     5          0.740              1.539              1.091
 Vibration     6          0.771              1.457              0.940
 Vibration     7          0.804              1.373              0.813
 Vibration     8          0.811              1.357              0.790

 Normal termination of Gaussian 09 at Tue Jan 28 03:38:17 2020.
