 Gaussian 09, Revision D.01,
 Gaussian 09:  ES64L-G09RevD.01 24-Apr-2013

 -----------------------------
 # b3lyp 6-31G(2df,p) opt Freq
 -----------------------------

 -----
 titel
 -----
 Symbolic Z-matrix:
 Charge =  0 Multiplicity = 1

 SCF Done:  E(RB3LYP) =  -423.192814729     A.U. after   14 cycles
 Optimization completed.
    -- Stationary point found.
 Normal termination of Gaussian 09 at Mon Jan 27 13:08:34 2020.

 ----------------------------------------------------------------------
 #N Geom=AllCheck Guess=TCheck SCRF=Check GenChk RB3LYP/6-31G(2df,p) Fr
 eq
 ----------------------------------------------------------------------

 Structure from the checkpoint file:  "/scratch/puck/g09_fe86ab41-280e-47a2-9c4e-1a7cbdda6607/Gau-37968.chk"
 -----
 titel
 -----
 Charge =  0 Multiplicity = 1

                         Standard orientation:
 ---------------------------------------------------------------------
 Center     Atomic      Atomic             Coordinates (Angstroms)
 Number     Number       Type             X           Y           Z
 ---------------------------------------------------------------------
      1          8           0        2.328708   -1.364423    0.291047
      2          6           0        1.461112   -0.596931   -0.048877
      3          6           0        1.679418    0.919676   -0.038753
      4          8           0        0.546384    1.655828    0.379622
      5          6           0       -0.620675    1.341038   -0.365995
      6          6           0       -1.010922   -0.107650   -0.169824
      7          6           0       -1.858973   -0.460809    1.026007
      8          6           0       -2.445743   -0.517460   -0.365590
      9          6           0        0.108932   -1.050171   -0.587191
     10          1           0        2.499389    1.155557    0.642043
     11          1           0        1.983847    1.215201   -1.061440
     12          1           0       -1.403455    2.014851   -0.006643
     13          1           0       -0.453539    1.552114   -1.437510
     14          1           0       -1.660466   -1.398785    1.533537
     15          1           0       -2.174173    0.341432    1.684636
     16          1           0       -2.640801   -1.491971   -0.801144
     17          1           0       -3.163129    0.245607   -0.650631
     18          1           0       -0.066916   -2.084797   -0.281582
     19          1           0        0.199614   -1.046613   -1.685270
 ---------------------------------------------------------------------

 SCF Done:  E(RB3LYP) =  -423.192814729     A.U. after    1 cycles

 The electronic state is 1-A.
 Alpha  occ. eigenvalues --  -19.15074 -19.13403 -10.27160 -10.23871 -10.23765
 Alpha  occ. eigenvalues --  -10.20897 -10.19930 -10.19547 -10.19286  -1.05132
 Alpha  occ. eigenvalues --   -1.03751  -0.87691  -0.76512  -0.74091  -0.66472
 Alpha  occ. eigenvalues --   -0.61239  -0.57701  -0.53898  -0.50443  -0.50036
 Alpha  occ. eigenvalues --   -0.48046  -0.47092  -0.44292  -0.42803  -0.41837
 Alpha  occ. eigenvalues --   -0.39492  -0.38389  -0.37445  -0.35724  -0.32699
 Alpha  occ. eigenvalues --   -0.30652  -0.29651  -0.27921  -0.23058
 Alpha virt. eigenvalues --   -0.02072   0.07727   0.10425   0.10579   0.11157
 Alpha virt. eigenvalues --    0.12859   0.13874   0.14578   0.15168   0.15590
 Alpha virt. eigenvalues --    0.16722   0.18905   0.19722   0.21788   0.22183

 Mulliken charges:
               1
     1  O   -0.298239
     2  C    0.374443
     3  C   -0.171651
     4  O   -0.240245
     5  C   -0.154214
     6  C    0.354181
     7  C   -0.294405
     8  C   -0.326628
     9  C   -0.396794
    10  H    0.135822
    11  H    0.104862
    12  H    0.108713
    13  H    0.086169
    14  H    0.119686
    15  H    0.120138
    16  H    0.115358
    17  H    0.115000
    18  H    0.123298
    19  H    0.124506
 Sum of Mulliken charges =   0.00000

 Dipole moment (field-independent basis, Debye):
    X=             -2.2612    Y=              0.6703    Z=             -1.5290  Tot=              2.8107
 Quadrupole moment (field-independent basis, Debye-Ang):
   XX=            -56.7436   YY=            -56.2663   ZZ=            -52.2091
   XY=              3.8768   XZ=             -1.7653   YZ=             -0.3320

  Exact polarizability:  88.293  -0.590  73.306   1.425  -1.616  65.405
 Approx polarizability: 118.370  -6.163 107.429   4.552  -2.737 103.293

                      1                      2                      3
                      A                      A                      A
 Frequencies --     76.9695               109.0406               235.7573
 Red. masses --      4.1335                 2.8068                 3.9209
 Frc consts  --      0.0144                 0.0197                 0.1284
 IR Inten    --      2.5974                 0.9847                 4.5475

                      4                      5                      6
                      A                      A                      A
 Frequencies --    258.3959               339.4255               365.3891
 Red. masses --      2.2918                 2.2975                 2.4300
 Frc consts  --      0.0902                 0.1560                 0.1911
 IR Inten    --      2.1612                 0.1157                 2.7345

                      7                      8                      9
                      A                      A                      A
 Frequencies --    407.0111               437.4266               467.6152
 Red. masses --      3.8389                 1.8705                 4.3240
 Frc consts  --      0.3747                 0.2109                 0.5571
 IR Inten    --      4.4479                 0.5193                19.4857

                     10                     11                     12
                      A                      A                      A
 Frequencies --    530.0987               602.4509               765.6529
 Red. masses --      3.7166                 5.6527                 2.4313
 Frc consts  --      0.6153                 1.2088                 0.8398
 IR Inten    --      2.9115                 2.1579                 3.6833

                     13                     14                     15
                      A                      A                      A
 Frequencies --    782.1048               816.9339               829.9440
 Red. masses --      1.1295                 1.7314                 3.2589
 Frc consts  --      0.4071                 0.6808                 1.3226
 IR Inten    --      0.4586                 2.3498                 2.9458

                     16                     17                     18
                      A                      A                      A
 Frequencies --    916.5920               939.3013               957.1412
 Red. masses --      1.5542                 1.8882                 2.6217
 Frc consts  --      0.7693                 0.9815                 1.4151
 IR Inten    --      5.2337                14.0011                26.5327

                     19                     20                     21
                      A                      A                      A
 Frequencies --    967.2904               985.3904              1014.1640
 Red. masses --      2.0101                 3.9495                 1.6621
 Frc consts  --      1.1081                 2.2595                 1.0072
 IR Inten    --      9.4185                 2.5863                 2.0315

                     22                     23                     24
                      A                      A                      A
 Frequencies --   1056.4181              1082.6219              1097.6529
 Red. masses --      1.3378                 1.4680                 2.2567
 Frc consts  --      0.8797                 1.0138                 1.6020
 IR Inten    --      1.9595                 1.2230                 0.7056

                     25                     26                     27
                      A                      A                      A
 Frequencies --   1131.9481              1159.6372              1186.1201
 Red. masses --      4.6992                 1.8603                 1.2968
 Frc consts  --      3.5475                 1.4740                 1.0749
 IR Inten    --    112.2337                10.0015                 0.1788

                     28                     29                     30
                      A                      A                      A
 Frequencies --   1225.5272              1247.9506              1284.8397
 Red. masses --      1.4958                 1.8336                 1.4564
 Frc consts  --      1.3236                 1.6825                 1.4166
 IR Inten    --     11.2652                65.1960                 1.1498

                     31                     32                     33
                      A                      A                      A
 Frequencies --   1306.0847              1329.9770              1354.6812
 Red. masses --      1.4475                 2.2753                 1.3231
 Frc consts  --      1.4548                 2.3713                 1.4306
 IR Inten    --      4.1713                 1.0751                14.1974

                     34                     35                     36
                      A                      A                      A
 Frequencies --   1378.6282              1412.2542              1454.5869
 Red. masses --      1.6071                 1.5881                 1.1155
 Frc consts  --      1.7996                 1.8662                 1.3906
 IR Inten    --      2.1248                 5.4474                11.9667

                     37                     38                     39
                      A                      A                      A
 Frequencies --   1465.7688              1468.4292              1491.6543
 Red. masses --      1.0826                 1.0852                 1.1455
 Frc consts  --      1.3704                 1.3787                 1.5017
 IR Inten    --      5.8128                 1.5547                 2.0885

                     40                     41                     42
                      A                      A                      A
 Frequencies --   1508.9499              1825.9315              2926.9336
 Red. masses --      1.3473                11.8528                 1.0703
 Frc consts  --      1.8075                23.2831                 5.4025
 IR Inten    --      1.8786               175.1479                32.4415

                     43                     44                     45
                      A                      A                      A
 Frequencies --   2948.1147              2992.5570              3087.0851
 Red. masses --      1.0707                 1.0686                 1.0917
 Frc consts  --      5.4830                 5.6383                 6.1296
 IR Inten    --     66.8764                20.7378                24.9029

                     46                     47                     48
                      A                      A                      A
 Frequencies --   3097.6415              3119.3225              3126.2045
 Red. masses --      1.0922                 1.0905                 1.0523
 Frc consts  --      6.1749                 6.2514                 6.0592
 IR Inten    --      9.2585                12.9532                15.9891

                     49                     50                     51
                      A                      A                      A
 Frequencies --   3132.9843              3204.8767              3220.1955
 Red. masses --      1.0570                 1.1177                 1.1158
 Frc consts  --      6.1127                 6.7641                 6.8168
 IR Inten    --     10.0965                 0.9308                13.9175

 - Thermochemistry -
 -------------------
 Temperature   298.150 Kelvin.  Pressure   1.00000 Atm.
 Atom     1 has atomic number  8 and mass  15.99491

 Molecular mass:   126.06808 amu.
 Principal axes and moments of inertia in atomic units:
                           1         2         3
     Eigenvalues --   659.326571268.259081664.35641
           X            0.99928   0.03717  -0.00754
           Y           -0.03723   0.99926  -0.00921
           Z            0.00719   0.00948   0.99993
 This molecule is an asymmetric top.
 Rotational symmetry number  1.
 Warning -- assumption of classical behavior for rotation
           may cause significant error
 Rotational temperatures (Kelvin)      0.13137     0.06829     0.05204
 Rotational constants (GHZ):           2.73725     1.42301     1.08435
 Zero-point vibrational energy     419468.6 (Joules/Mol)
                                  100.25540 (Kcal/Mol)
 Warning -- explicit consideration of  11 degrees of freedom as
           vibrations may cause significant error
 Vibrational temperatures:    110.74   156.88   339.20   371.77   488.36
          (Kelvin)            525.71   585.60   629.36   672.79   762.69
                              866.79  1101.60  1125.27  1175.38  1194.10
                             1318.77  1351.44  1377.11  1391.71  1417.76
                             1459.15  1519.95  1557.65  1579.28  1628.62
                             1668.46  1706.56  1763.26  1795.52  1848.60
                             1879.16  1913.54  1949.08  1983.54  2031.92
                             2092.82  2108.91  2112.74  2146.16  2171.04
                             2627.10  4211.20  4241.67  4305.62  4441.62
                             4456.81  4488.00  4497.91  4507.66  4611.10
                             4633.14

 Zero-point correction=                           0.159767 (Hartree/Particle)
 Thermal correction to Energy=                    0.167812
 Thermal correction to Enthalpy=                  0.168756
 Thermal correction to Gibbs Free Energy=         0.127004
 Sum of electronic and zero-point Energies=           -423.033048
 Sum of electronic and thermal Energies=              -423.025003
 Sum of electronic and thermal Enthalpies=            -423.024059
 Sum of electronic and thermal Free Energies=         -423.065811

                     E (Thermal)             CV                S
                      KCal/Mol        Cal/Mol-Kelvin    Cal/Mol-Kelvin
 Total                  105.303             31.222             87.875
 Electronic               0.000              0.000              0.000
 Translational            0.889              2.981             40.409
 Rotational               0.889              2.981             28.722
 Vibrational            103.526             25.260             18.745
 Vibration     1          0.599              1.965              3.967
 Vibration     2          0.606              1.942              3.286
 Vibration     3          0.655              1.786              1.835
 Vibration     4          0.667              1.749              1.673
 Vibration     5          0.719              1.597              1.215
 Vibration     6          0.739              1.543              1.099
 Vibration     7          0.772              1.455              0.937
 Vibration     8          0.798              1.389              0.835
 Vibration     9          0.825              1.322              0.744
 Vibration    10          0.885              1.183              0.587
 Vibration    11          0.961              1.027              0.445

 Optimization completed.
    -- Stationary point found.
 Normal termination of Gaussian 09 at Mon Jan 27 13:51:41 2020.
