 Gaussian 09, Revision D.01,
 Gaussian 09:  ES64L-G09RevD.01 24-Apr-2013

 -----------------------------
 # b3lyp 6-31G(2df,p) opt Freq
 -----------------------------

 -----
 titel
 -----
 Symbolic Z-matrix:
 Charge =  0 Multiplicity = 1

 SCF Done:  E(RB3LYP) =  -423.183677399     A.U. after   14 cycles
 Optimization completed.
    -- Stationary point found.
 Normal termination of Gaussian 09 at Tue Jan 28 00:42:09 2020.

 ----------------------------------------------------------------------
 #N Geom=AllCheck Guess=TCheck SCRF=Check GenChk RB3LYP/6-31G(2df,p) Fr
 eq
 ----------------------------------------------------------------------

 Structure from the checkpoint file:  "/scratch/puck/g09_31a85106-9c01-414c-b7ae-18b7a01a09c0/Gau-189676.chk"
 -----
 titel
 -----
 Charge =  0 Multiplicity = 1

                         Standard orientation:
 ---------------------------------------------------------------------
 Center     Atomic      Atomic             Coordinates (Angstroms)
 Number     Number       Type             X           Y           Z
 ---------------------------------------------------------------------
      1          6           0        3.061007   -0.364438    0.107652
      2          6           0        1.584559   -0.166810   -0.009664
      3          6           0        0.649433   -1.120712   -0.110011
      4          6           0       -0.703263   -0.529185   -0.186057
      5          6           0       -1.969447   -1.205581   -0.464271
      6          8           0       -1.649077   -0.819750    0.882182
      7          6           0       -0.497087    0.971449   -0.458223
      8          8           0       -1.479609    1.766874    0.153943
      9          6           0        0.964743    1.217250   -0.000835
     10          1           0        3.442841    0.087050    1.031976
     11          1           0        3.332134   -1.423477    0.105236
     12          1           0        3.589396    0.128759   -0.717987
     13          1           0        0.830092   -2.189261   -0.096752
     14          1           0       -2.780583   -0.642030   -0.924484
     15          1           0       -1.990416   -2.280149   -0.641500
     16          1           0       -0.557399    1.141515   -1.540956
     17          1           0       -1.848797    1.219552    0.863754
     18          1           0        1.495440    1.922963   -0.649532
     19          1           0        0.977102    1.646244    1.009705
 ---------------------------------------------------------------------

 SCF Done:  E(RB3LYP) =  -423.183677399     A.U. after    1 cycles

 The electronic state is 1-A.
 Alpha  occ. eigenvalues --  -19.15631 -19.12634 -10.24167 -10.23491 -10.23176
 Alpha  occ. eigenvalues --  -10.20189 -10.18984 -10.18348 -10.18180  -1.07164
 Alpha  occ. eigenvalues --   -1.00974  -0.84531  -0.74264  -0.70574  -0.67425
 Alpha  occ. eigenvalues --   -0.64074  -0.57223  -0.54795  -0.50829  -0.48389
 Alpha  occ. eigenvalues --   -0.47230  -0.44255  -0.42815  -0.42191  -0.40697
 Alpha  occ. eigenvalues --   -0.38608  -0.37526  -0.36901  -0.35489  -0.32965
 Alpha  occ. eigenvalues --   -0.31640  -0.27719  -0.25873  -0.24289
 Alpha virt. eigenvalues --    0.00383   0.09021   0.09793   0.10206   0.11963
 Alpha virt. eigenvalues --    0.12956   0.13987   0.15383   0.15799   0.16908
 Alpha virt. eigenvalues --    0.17574   0.18660   0.19742   0.20555   0.22979

 Mulliken charges:
               1
     1  C   -0.488140
     2  C    0.306826
     3  C   -0.259072
     4  C    0.370492
     5  C   -0.247779
     6  O   -0.290968
     7  C    0.066913
     8  O   -0.445405
     9  C   -0.345282
    10  H    0.133807
    11  H    0.126679
    12  H    0.131097
    13  H    0.098057
    14  H    0.120888
    15  H    0.116588
    16  H    0.090778
    17  H    0.290611
    18  H    0.104847
    19  H    0.119061
 Sum of Mulliken charges =   0.00000

 Dipole moment (field-independent basis, Debye):
    X=              1.6690    Y=             -1.3061    Z=             -1.0848  Tot=              2.3808
 Quadrupole moment (field-independent basis, Debye-Ang):
   XX=            -50.3259   YY=            -55.0381   ZZ=            -53.4734
   XY=              3.0301   XZ=              2.0249   YZ=              1.8791

  Exact polarizability: 100.148   8.780  79.735   2.804   1.860  57.116
 Approx polarizability: 134.526  18.259 119.223  -0.217   2.392  94.194

                      1                      2                      3
                      A                      A                      A
 Frequencies --     90.6695               134.3000               185.8938
 Red. masses --      3.0108                 2.9591                 1.1262
 Frc consts  --      0.0146                 0.0314                 0.0229
 IR Inten    --      2.1501                 0.7292                 0.2459

                      4                      5                      6
                      A                      A                      A
 Frequencies --    250.8757               277.8259               294.6739
 Red. masses --      2.7877                 3.8543                 3.3358
 Frc consts  --      0.1034                 0.1753                 0.1707
 IR Inten    --      0.7813                 2.8682                19.3507

                      7                      8                      9
                      A                      A                      A
 Frequencies --    400.4106               446.2793               471.0296
 Red. masses --      3.1403                 2.7764                 1.3311
 Frc consts  --      0.2966                 0.3258                 0.1740
 IR Inten    --      2.4553                 9.7572                32.8680

                     10                     11                     12
                      A                      A                      A
 Frequencies --    480.0347               529.3616               539.9071
 Red. masses --      2.1165                 3.2635                 3.8886
 Frc consts  --      0.2873                 0.5388                 0.6678
 IR Inten    --     21.4079                10.6835                 2.4417

                     13                     14                     15
                      A                      A                      A
 Frequencies --    628.1246               728.5597               823.9998
 Red. masses --      3.1758                 4.4729                 2.3760
 Frc consts  --      0.7382                 1.3989                 0.9505
 IR Inten    --     16.3884                32.6506                 8.7383

                     16                     17                     18
                      A                      A                      A
 Frequencies --    853.5822               878.7015               911.8398
 Red. masses --      1.7432                 3.2997                 1.6887
 Frc consts  --      0.7483                 1.5011                 0.8273
 IR Inten    --      9.7646                 1.4837                 4.8972

                     19                     20                     21
                      A                      A                      A
 Frequencies --    959.2725               977.6136              1007.4200
 Red. masses --      2.2068                 2.8761                 1.6694
 Frc consts  --      1.1964                 1.6195                 0.9982
 IR Inten    --      9.1335                34.4629                 1.5507

                     22                     23                     24
                      A                      A                      A
 Frequencies --   1034.3705              1072.1597              1122.7740
 Red. masses --      1.7081                 2.1304                 1.3173
 Frc consts  --      1.0768                 1.4428                 0.9784
 IR Inten    --      2.5865                 5.6587                 6.1161

                     25                     26                     27
                      A                      A                      A
 Frequencies --   1126.1112              1149.7163              1173.5807
 Red. masses --      2.7748                 1.7435                 1.2963
 Frc consts  --      2.0732                 1.3579                 1.0519
 IR Inten    --     97.0597                 1.9465                13.7174

                     28                     29                     30
                      A                      A                      A
 Frequencies --   1183.6019              1241.0324              1242.4157
 Red. masses --      1.5176                 1.6872                 1.3295
 Frc consts  --      1.2526                 1.5310                 1.2091
 IR Inten    --     11.2239                 3.4128                17.8344

                     31                     32                     33
                      A                      A                      A
 Frequencies --   1298.9707              1335.0079              1361.5492
 Red. masses --      2.1234                 2.3401                 1.3892
 Frc consts  --      2.1110                 2.4572                 1.5173
 IR Inten    --      4.3794                 2.1477                 5.8604

                     34                     35                     36
                      A                      A                      A
 Frequencies --   1412.6090              1425.5092              1447.8824
 Red. masses --      1.3043                 2.0708                 1.3813
 Frc consts  --      1.5335                 2.4792                 1.7061
 IR Inten    --      1.2941                 7.4389                89.5035

                     37                     38                     39
                      A                      A                      A
 Frequencies --   1477.3678              1481.2554              1485.9081
 Red. masses --      1.0479                 1.0849                 1.0838
 Frc consts  --      1.3475                 1.4025                 1.4098
 IR Inten    --      6.4429                 1.4716                 9.6464

                     40                     41                     42
                      A                      A                      A
 Frequencies --   1524.6661              1701.8913              3019.4645
 Red. masses --      1.4788                 6.8893                 1.0417
 Frc consts  --      2.0254                11.7567                 5.5955
 IR Inten    --      2.3577                20.6641                18.8102

                     43                     44                     45
                      A                      A                      A
 Frequencies --   3020.4898              3027.5158              3067.1392
 Red. masses --      1.0823                 1.0603                 1.0991
 Frc consts  --      5.8179                 5.7260                 6.0917
 IR Inten    --     23.6340                34.4256                 3.2249

                     46                     47                     48
                      A                      A                      A
 Frequencies --   3069.2451              3079.6081              3113.5680
 Red. masses --      1.0993                 1.0506                 1.0999
 Frc consts  --      6.1011                 5.8707                 6.2820
 IR Inten    --     40.4524                30.6168                18.6391

                     49                     50                     51
                      A                      A                      A
 Frequencies --   3167.1408              3199.3984              3707.1289
 Red. masses --      1.1193                 1.0945                 1.0649
 Frc consts  --      6.6149                 6.6010                 8.6225
 IR Inten    --     15.9576                 9.9695                52.7524

 - Thermochemistry -
 -------------------
 Temperature   298.150 Kelvin.  Pressure   1.00000 Atm.
 Atom     1 has atomic number  6 and mass  12.00000

 Molecular mass:   126.06808 amu.
 Principal axes and moments of inertia in atomic units:
                           1         2         3
     Eigenvalues --   626.487641335.930481776.58767
           X            0.99986   0.01013   0.01329
           Y           -0.01033   0.99984   0.01490
           Z           -0.01314  -0.01504   0.99980
 This molecule is an asymmetric top.
 Rotational symmetry number  1.
 Warning -- assumption of classical behavior for rotation
           may cause significant error
 Rotational temperatures (Kelvin)      0.13825     0.06483     0.04875
 Rotational constants (GHZ):           2.88073     1.35092     1.01585
 Zero-point vibrational energy     416536.4 (Joules/Mol)
                                   99.55460 (Kcal/Mol)
 Warning -- explicit consideration of  12 degrees of freedom as
           vibrations may cause significant error
 Vibrational temperatures:    130.45   193.23   267.46   360.95   399.73
          (Kelvin)            423.97   576.10   642.10   677.71   690.66
                              761.63   776.80   903.73  1048.23  1185.55
                             1228.11  1264.25  1311.93  1380.18  1406.57
                             1449.45  1488.23  1542.60  1615.42  1620.22
                             1654.18  1688.52  1702.94  1785.57  1787.56
                             1868.93  1920.78  1958.96  2032.43  2050.99
                             2083.18  2125.60  2131.19  2137.89  2193.65
                             2448.64  4344.33  4345.81  4355.91  4412.92
                             4415.95  4430.86  4479.72  4556.80  4603.21
                             5333.73

 Zero-point correction=                           0.158650 (Hartree/Particle)
 Thermal correction to Energy=                    0.167186
 Thermal correction to Enthalpy=                  0.168131
 Thermal correction to Gibbs Free Energy=         0.125677
 Sum of electronic and zero-point Energies=           -423.025027
 Sum of electronic and thermal Energies=              -423.016491
 Sum of electronic and thermal Enthalpies=            -423.015547
 Sum of electronic and thermal Free Energies=         -423.058000

                     E (Thermal)             CV                S
                      KCal/Mol        Cal/Mol-Kelvin    Cal/Mol-Kelvin
 Total                  104.911             33.023             89.351
 Electronic               0.000              0.000              0.000
 Translational            0.889              2.981             40.409
 Rotational               0.889              2.981             28.788
 Vibrational            103.134             27.061             20.154
 Vibration     1          0.602              1.956              3.646
 Vibration     2          0.613              1.919              2.884
 Vibration     3          0.632              1.859              2.268
 Vibration     4          0.663              1.761              1.724
 Vibration     5          0.679              1.715              1.547
 Vibration     6          0.689              1.684              1.447
 Vibration     7          0.766              1.469              0.961
 Vibration     8          0.806              1.369              0.807
 Vibration     9          0.828              1.314              0.735
 Vibration    10          0.836              1.294              0.710
 Vibration    11          0.884              1.185              0.589
 Vibration    12          0.895              1.162              0.565

 Optimization completed.
    -- Stationary point found.
 Normal termination of Gaussian 09 at Tue Jan 28 01:24:17 2020.
