 Gaussian 09, Revision D.01,
 Gaussian 09:  ES64L-G09RevD.01 24-Apr-2013

 -----------------------------
 # b3lyp 6-31G(2df,p) opt Freq
 -----------------------------

 -----
 titel
 -----
 Symbolic Z-matrix:
 Charge =  0 Multiplicity = 1

 SCF Done:  E(RB3LYP) =  -423.239975188     A.U. after   14 cycles
 Optimization completed.
    -- Stationary point found.
 Normal termination of Gaussian 09 at Mon Jan 27 14:10:46 2020.

 ----------------------------------------------------------------------
 #N Geom=AllCheck Guess=TCheck SCRF=Check GenChk RB3LYP/6-31G(2df,p) Fr
 eq
 ----------------------------------------------------------------------

 Structure from the checkpoint file:  "/scratch/puck/g09_78c51718-fa5a-4db8-b6b4-5ddf0196f474/Gau-70732.chk"
 -----
 titel
 -----
 Charge =  0 Multiplicity = 1

                         Standard orientation:
 ---------------------------------------------------------------------
 Center     Atomic      Atomic             Coordinates (Angstroms)
 Number     Number       Type             X           Y           Z
 ---------------------------------------------------------------------
      1          6           0       -2.878595   -0.708865    0.736017
      2          6           0       -1.833875    0.057732   -0.040634
      3          8           0       -2.031834    1.067813   -0.669125
      4          8           0       -0.631420   -0.546529    0.060032
      5          6           0        0.464934    0.073421   -0.655372
      6          6           0        1.080424    1.218642    0.185175
      7          6           0        2.286360    0.576446    0.826213
      8          6           0        2.551931   -0.620351    0.306737
      9          6           0        1.570614   -0.997042   -0.776961
     10          1           0       -2.597745   -0.758389    1.791993
     11          1           0       -3.843924   -0.215311    0.630831
     12          1           0       -2.940962   -1.737142    0.369057
     13          1           0        0.079855    0.422649   -1.613191
     14          1           0        1.367763    2.061811   -0.456850
     15          1           0        0.355915    1.614315    0.903501
     16          1           0        2.865534    1.067170    1.600259
     17          1           0        3.381724   -1.258765    0.587626
     18          1           0        2.040104   -0.966819   -1.769210
     19          1           0        1.147003   -1.999691   -0.658321
 ---------------------------------------------------------------------

 SCF Done:  E(RB3LYP) =  -423.239975188     A.U. after    1 cycles

 The electronic state is 1-A.
 Alpha  occ. eigenvalues --  -19.17412 -19.11964 -10.30251 -10.24003 -10.19136
 Alpha  occ. eigenvalues --  -10.18770 -10.18563 -10.18168 -10.18073  -1.09369
 Alpha  occ. eigenvalues --   -1.00768  -0.84351  -0.75539  -0.71300  -0.70354
 Alpha  occ. eigenvalues --   -0.60708  -0.54791  -0.53634  -0.50937  -0.48256
 Alpha  occ. eigenvalues --   -0.46673  -0.45360  -0.42585  -0.41167  -0.40027
 Alpha  occ. eigenvalues --   -0.38740  -0.38182  -0.36791  -0.35363  -0.34824
 Alpha  occ. eigenvalues --   -0.33266  -0.29099  -0.26555  -0.24481
 Alpha virt. eigenvalues --    0.01856   0.02439   0.09822   0.10526   0.11628
 Alpha virt. eigenvalues --    0.14436   0.15032   0.15827   0.16720   0.16938
 Alpha virt. eigenvalues --    0.17663   0.18362   0.18914   0.19828   0.21128

 Mulliken charges:
               1
     1  C   -0.477056
     2  C    0.427506
     3  O   -0.358327
     4  O   -0.254904
     5  C    0.128788
     6  C   -0.264475
     7  C   -0.059454
     8  C   -0.056957
     9  C   -0.279896
    10  H    0.148856
    11  H    0.146483
    12  H    0.147859
    13  H    0.102840
    14  H    0.114758
    15  H    0.118415
    16  H    0.093662
    17  H    0.093327
    18  H    0.110558
    19  H    0.118017
 Sum of Mulliken charges =   0.00000

 Dipole moment (field-independent basis, Debye):
    X=              0.9573    Y=             -1.3565    Z=              0.7195  Tot=              1.8095
 Quadrupole moment (field-independent basis, Debye-Ang):
   XX=            -51.2660   YY=            -53.6769   ZZ=            -52.0404
   XY=              4.2582   XZ=             -3.2601   YZ=              2.3541

  Exact polarizability:  88.730  -3.848  77.392   0.878   2.959  65.318
 Approx polarizability: 108.728 -11.433 127.741   2.208   3.419 100.315

                      1                      2                      3
                      A                      A                      A
 Frequencies --     41.4868                54.4134                67.4682
 Red. masses --      1.4764                 2.6562                 2.6157
 Frc consts  --      0.0015                 0.0046                 0.0070
 IR Inten    --      1.9745                 0.0632                 1.0380

                      4                      5                      6
                      A                      A                      A
 Frequencies --    115.7596               204.8721               317.5493
 Red. masses --      2.8741                 3.9054                 3.1525
 Frc consts  --      0.0227                 0.0966                 0.1873
 IR Inten    --      1.9265                 5.5811                 3.4751

                      7                      8                      9
                      A                      A                      A
 Frequencies --    360.1956               417.6056               452.7785
 Red. masses --      2.9946                 2.1724                 2.4989
 Frc consts  --      0.2289                 0.2232                 0.3018
 IR Inten    --      1.1193                 1.2250                 1.9759

                     10                     11                     12
                      A                      A                      A
 Frequencies --    609.4395               627.5050               695.7833
 Red. masses --      2.8226                 3.5423                 1.2979
 Frc consts  --      0.6177                 0.8218                 0.3702
 IR Inten    --      4.3175                12.3114                19.3002

                     13                     14                     15
                      A                      A                      A
 Frequencies --    751.8614               791.9438               848.1474
 Red. masses --      4.1661                 5.5667                 2.5669
 Frc consts  --      1.3876                 2.0570                 1.0879
 IR Inten    --      1.4976                 2.2630                20.3828

                     16                     17                     18
                      A                      A                      A
 Frequencies --    888.8190               905.4997               949.9733
 Red. masses --      1.8512                 3.6832                 1.8452
 Frc consts  --      0.8616                 1.7793                 0.9811
 IR Inten    --      5.7162                 1.7005                10.1800

                     19                     20                     21
                      A                      A                      A
 Frequencies --    977.0881               978.8945               993.0697
 Red. masses --      1.2908                 2.8610                 2.7613
 Frc consts  --      0.7260                 1.6152                 1.6045
 IR Inten    --      0.2511                 0.2532                 9.6547

                     22                     23                     24
                      A                      A                      A
 Frequencies --   1022.3594              1058.8706              1064.1413
 Red. masses --      1.7895                 2.2570                 1.8289
 Frc consts  --      1.1020                 1.4910                 1.2202
 IR Inten    --     40.9484                49.3909                 7.7710

                     25                     26                     27
                      A                      A                      A
 Frequencies --   1068.4590              1130.5120              1172.6998
 Red. masses --      2.0307                 1.0931                 1.0957
 Frc consts  --      1.3659                 0.8231                 0.8878
 IR Inten    --     11.0138                 1.9639                 1.1702

                     28                     29                     30
                      A                      A                      A
 Frequencies --   1216.4372              1248.5319              1273.7351
 Red. masses --      1.3036                 1.9813                 3.1174
 Frc consts  --      1.1365                 1.8197                 2.9799
 IR Inten    --     78.6413                51.7449               310.3411

                     31                     32                     33
                      A                      A                      A
 Frequencies --   1309.2301              1330.3236              1376.9349
 Red. masses --      1.3389                 1.6413                 1.6007
 Frc consts  --      1.3521                 1.7114                 1.7881
 IR Inten    --      5.4730                 3.9518                 2.5576

                     34                     35                     36
                      A                      A                      A
 Frequencies --   1387.2853              1402.9634              1468.4986
 Red. masses --      1.3185                 1.4335                 1.0725
 Frc consts  --      1.4950                 1.6625                 1.3626
 IR Inten    --     26.5931                28.6457                 9.7940

                     37                     38                     39
                      A                      A                      A
 Frequencies --   1469.7662              1476.0409              1477.2780
 Red. masses --      1.0606                 1.0535                 1.0991
 Frc consts  --      1.3499                 1.3523                 1.4133
 IR Inten    --      6.2302                 6.5265                 0.7773

                     40                     41                     42
                      A                      A                      A
 Frequencies --   1687.8972              1817.2103              3021.7059
 Red. masses --      6.0770                11.1849                 1.0673
 Frc consts  --     10.2008                21.7617                 5.7416
 IR Inten    --      2.1336               211.2580                30.8430

                     43                     44                     45
                      A                      A                      A
 Frequencies --   3025.8560              3056.8482              3073.7775
 Red. masses --      1.0689                 1.0363                 1.0944
 Frc consts  --      5.7659                 5.7051                 6.0920
 IR Inten    --     23.0445                 2.5286                12.9784

                     46                     47                     48
                      A                      A                      A
 Frequencies --   3079.7535              3117.1145              3121.6010
 Red. masses --      1.0931                 1.0869                 1.0992
 Frc consts  --      6.1087                 6.2223                 6.3110
 IR Inten    --     16.2537                17.0745                 5.2753

                     49                     50                     51
                      A                      A                      A
 Frequencies --   3168.4601              3186.4896              3211.7159
 Red. masses --      1.1029                 1.0845                 1.1043
 Frc consts  --      6.5234                 6.4877                 6.7115
 IR Inten    --      7.7920                 5.1900                22.8144

 - Thermochemistry -
 -------------------
 Temperature   298.150 Kelvin.  Pressure   1.00000 Atm.
 Atom     1 has atomic number  6 and mass  12.00000

 Molecular mass:   126.06808 amu.
 Principal axes and moments of inertia in atomic units:
                           1         2         3
     Eigenvalues --   484.140001809.946051939.55179
           X            0.99976   0.01632  -0.01487
           Y           -0.01566   0.99894   0.04323
           Z            0.01556  -0.04298   0.99895
 This molecule is an asymmetric top.
 Rotational symmetry number  1.
 Warning -- assumption of classical behavior for rotation
           may cause significant error
 Rotational temperatures (Kelvin)      0.17890     0.04785     0.04466
 Rotational constants (GHZ):           3.72773     0.99712     0.93049
 Zero-point vibrational energy     416136.9 (Joules/Mol)
                                   99.45910 (Kcal/Mol)
 Warning -- explicit consideration of  10 degrees of freedom as
           vibrations may cause significant error
 Vibrational temperatures:     59.69    78.29    97.07   166.55   294.76
          (Kelvin)            456.88   518.24   600.84   651.45   876.85
                              902.84  1001.08  1081.76  1139.43  1220.29
                             1278.81  1302.81  1366.80  1405.81  1408.41
                             1428.80  1470.95  1523.48  1531.06  1537.27
                             1626.55  1687.25  1750.18  1796.36  1832.62
                             1883.69  1914.04  1981.10  1995.99  2018.55
                             2112.84  2114.66  2123.69  2125.47  2428.50
                             2614.56  4347.56  4353.53  4398.12  4422.47
                             4431.07  4484.83  4491.28  4558.70  4584.64
                             4620.94

 Zero-point correction=                           0.158498 (Hartree/Particle)
 Thermal correction to Energy=                    0.167568
 Thermal correction to Enthalpy=                  0.168512
 Thermal correction to Gibbs Free Energy=         0.122928
 Sum of electronic and zero-point Energies=           -423.081477
 Sum of electronic and thermal Energies=              -423.072408
 Sum of electronic and thermal Enthalpies=            -423.071463
 Sum of electronic and thermal Free Energies=         -423.117047

                     E (Thermal)             CV                S
                      KCal/Mol        Cal/Mol-Kelvin    Cal/Mol-Kelvin
 Total                  105.150             32.365             95.940
 Electronic               0.000              0.000              0.000
 Translational            0.889              2.981             40.409
 Rotational               0.889              2.981             28.921
 Vibrational            103.373             26.404             26.611
 Vibration     1          0.594              1.981              5.187
 Vibration     2          0.596              1.976              4.650
 Vibration     3          0.598              1.970              4.226
 Vibration     4          0.608              1.936              3.170
 Vibration     5          0.640              1.833              2.089
 Vibration     6          0.704              1.640              1.323
 Vibration     7          0.735              1.554              1.121
 Vibration     8          0.781              1.432              0.900
 Vibration     9          0.811              1.355              0.787
 Vibration    10          0.968              1.012              0.434

 Optimization completed.
    -- Stationary point found.
 Normal termination of Gaussian 09 at Mon Jan 27 14:58:41 2020.
