 Gaussian 09, Revision D.01,
 Gaussian 09:  ES64L-G09RevD.01 24-Apr-2013

 -----------------------------
 # b3lyp 6-31G(2df,p) opt Freq
 -----------------------------

 -----
 titel
 -----
 Symbolic Z-matrix:
 Charge =  0 Multiplicity = 1

 SCF Done:  E(RB3LYP) =  -423.221791260     A.U. after   14 cycles
 Optimization completed.
    -- Stationary point found.
 Normal termination of Gaussian 09 at Tue Jan 28 08:11:59 2020.

 ----------------------------------------------------------------------
 #N Geom=AllCheck Guess=TCheck SCRF=Check GenChk RB3LYP/6-31G(2df,p) Fr
 eq
 ----------------------------------------------------------------------

 Structure from the checkpoint file:  "/scratch/puck/g09_b8f86476-6c99-4707-9e57-606e43f6467d/Gau-14473.chk"
 -----
 titel
 -----
 Charge =  0 Multiplicity = 1

                         Standard orientation:
 ---------------------------------------------------------------------
 Center     Atomic      Atomic             Coordinates (Angstroms)
 Number     Number       Type             X           Y           Z
 ---------------------------------------------------------------------
      1          6           0        2.415918   -0.927570   -0.186345
      2          6           0        1.237639   -0.114291    0.322384
      3          8           0        1.259177    1.150930   -0.324349
      4          6           0        0.227835    2.011862    0.098118
      5          6           0       -1.128472    1.375684    0.035089
      6          6           0       -1.302000    0.047526   -0.023885
      7          6           0       -2.635376   -0.633539   -0.143725
      8          6           0       -0.106552   -0.825441    0.100843
      9          8           0       -0.192601   -2.037721    0.104399
     10          1           0        2.389448   -1.927441    0.249223
     11          1           0        2.363837   -1.022093   -1.274557
     12          1           0        3.355249   -0.436195    0.077330
     13          1           0        1.332586    0.029662    1.417064
     14          1           0        0.416687    2.379963    1.126301
     15          1           0        0.266433    2.887834   -0.559337
     16          1           0       -1.985263    2.047365    0.041179
     17          1           0       -2.795745   -1.324692    0.689729
     18          1           0       -3.450780    0.093642   -0.167204
     19          1           0       -2.679015   -1.239113   -1.055008
 ---------------------------------------------------------------------

 SCF Done:  E(RB3LYP) =  -423.221791260     A.U. after    1 cycles

 The electronic state is 1-A.
 Alpha  occ. eigenvalues --  -19.14959 -19.12821 -10.26248 -10.24628 -10.24040
 Alpha  occ. eigenvalues --  -10.20830 -10.20204 -10.18403 -10.17408  -1.05124
 Alpha  occ. eigenvalues --   -1.03303  -0.82147  -0.77913  -0.72482  -0.67898
 Alpha  occ. eigenvalues --   -0.62510  -0.59862  -0.51590  -0.51122  -0.48615
 Alpha  occ. eigenvalues --   -0.45615  -0.45172  -0.42298  -0.41673  -0.40062
 Alpha  occ. eigenvalues --   -0.39298  -0.38089  -0.37511  -0.36629  -0.36085
 Alpha  occ. eigenvalues --   -0.32697  -0.28802  -0.26367  -0.23149
 Alpha virt. eigenvalues --   -0.05084   0.05191   0.09451   0.11471   0.12128
 Alpha virt. eigenvalues --    0.13131   0.13702   0.15483   0.16246   0.16821
 Alpha virt. eigenvalues --    0.18048   0.18231   0.19469   0.21599   0.22676

 Mulliken charges:
               1
     1  C   -0.399070
     2  C    0.015343
     3  O   -0.253283
     4  C   -0.130994
     5  C   -0.156126
     6  C    0.211943
     7  C   -0.476844
     8  C    0.304749
     9  O   -0.325911
    10  H    0.141093
    11  H    0.129199
    12  H    0.119074
    13  H    0.085622
    14  H    0.104678
    15  H    0.125696
    16  H    0.104433
    17  H    0.141932
    18  H    0.115390
    19  H    0.143077
 Sum of Mulliken charges =   0.00000

 Dipole moment (field-independent basis, Debye):
    X=             -0.9272    Y=              2.5304    Z=              0.7082  Tot=              2.7864
 Quadrupole moment (field-independent basis, Debye-Ang):
   XX=            -50.9194   YY=            -55.8296   ZZ=            -52.7228
   XY=             -3.0759   XZ=              1.3775   YZ=              1.0494

  Exact polarizability:  86.164  -1.218  97.095   1.810   1.566  55.428
 Approx polarizability: 107.019  -0.818 165.643   1.504   1.921  87.513

                      1                      2                      3
                      A                      A                      A
 Frequencies --     63.0522               142.2899               177.3743
 Red. masses --      4.3047                 1.1540                 1.9019
 Frc consts  --      0.0101                 0.0138                 0.0353
 IR Inten    --      2.7166                 0.2011                 2.1371

                      4                      5                      6
                      A                      A                      A
 Frequencies --    198.5023               246.0303               265.8545
 Red. masses --      1.2693                 2.4031                 2.2142
 Frc consts  --      0.0295                 0.0857                 0.0922
 IR Inten    --      0.1450                 0.4831                 2.9020

                      7                      8                      9
                      A                      A                      A
 Frequencies --    308.2807               326.3644               414.9374
 Red. masses --      3.3756                 2.9246                 4.6998
 Frc consts  --      0.1890                 0.1835                 0.4767
 IR Inten    --      8.6504                 3.6799                 5.3901

                     10                     11                     12
                      A                      A                      A
 Frequencies --    450.3467               478.5086               536.9982
 Red. masses --      3.6151                 5.6601                 4.2234
 Frc consts  --      0.4320                 0.7636                 0.7176
 IR Inten    --      6.7621                 0.9227                 5.0862

                     13                     14                     15
                      A                      A                      A
 Frequencies --    649.0487               752.4033               789.9725
 Red. masses --      4.2253                 2.5393                 4.0717
 Frc consts  --      1.0487                 0.8469                 1.4971
 IR Inten    --      2.4205                 1.5844                 9.7866

                     16                     17                     18
                      A                      A                      A
 Frequencies --    851.8887               868.8976               904.9910
 Red. masses --      1.4719                 2.1269                 2.4611
 Frc consts  --      0.6293                 0.9461                 1.1876
 IR Inten    --      8.4234                 3.9756                 4.2256

                     19                     20                     21
                      A                      A                      A
 Frequencies --   1016.6169              1031.1234              1040.8034
 Red. masses --      2.4051                 1.9223                 1.6135
 Frc consts  --      1.4645                 1.2042                 1.0298
 IR Inten    --     19.7580                 8.4281                 2.0213

                     22                     23                     24
                      A                      A                      A
 Frequencies --   1067.5704              1080.6996              1110.9870
 Red. masses --      1.5280                 1.9578                 2.0929
 Frc consts  --      1.0260                 1.3472                 1.5220
 IR Inten    --      1.0490                 4.1210                17.7073

                     25                     26                     27
                      A                      A                      A
 Frequencies --   1171.5025              1180.3802              1240.1232
 Red. masses --      2.5935                 3.5338                 2.2214
 Frc consts  --      2.0971                 2.9009                 2.0129
 IR Inten    --     21.8281                96.9837                14.9089

                     28                     29                     30
                      A                      A                      A
 Frequencies --   1268.7152              1334.6687              1348.5604
 Red. masses --      1.2000                 1.5369                 1.3104
 Frc consts  --      1.1381                 1.6130                 1.4041
 IR Inten    --     13.7630                 2.5142                19.9672

                     31                     32                     33
                      A                      A                      A
 Frequencies --   1383.1779              1398.8695              1403.7057
 Red. masses --      2.1957                 1.3892                 1.3102
 Frc consts  --      2.4750                 1.6016                 1.5210
 IR Inten    --     21.6856                15.0151                 9.1044

                     34                     35                     36
                      A                      A                      A
 Frequencies --   1414.9450              1470.6421              1478.2822
 Red. masses --      1.2934                 1.0449                 1.0869
 Frc consts  --      1.5257                 1.3315                 1.3995
 IR Inten    --      5.4935                 5.4999                 3.5722

                     37                     38                     39
                      A                      A                      A
 Frequencies --   1482.1975              1485.9497              1496.8965
 Red. masses --      1.0499                 1.0623                 1.0570
 Frc consts  --      1.3590                 1.3820                 1.3955
 IR Inten    --      7.4996                 9.8518                 0.8064

                     40                     41                     42
                      A                      A                      A
 Frequencies --   1711.1513              1772.1187              2909.0821
 Red. masses --      7.2230                12.5346                 1.0794
 Frc consts  --     12.4607                23.1924                 5.3818
 IR Inten    --      8.0430               173.1757                36.7832

                     43                     44                     45
                      A                      A                      A
 Frequencies --   2911.8884              3041.0552              3056.7522
 Red. masses --      1.0723                 1.0353                 1.0356
 Frc consts  --      5.3571                 5.6414                 5.7012
 IR Inten    --     54.6387                16.8900                15.0722

                     46                     47                     48
                      A                      A                      A
 Frequencies --   3058.9606              3098.3288              3124.5712
 Red. masses --      1.0858                 1.0988                 1.1030
 Frc consts  --      5.9861                 6.2145                 6.3448
 IR Inten    --     23.9126                 9.7426                12.6664

                     49                     50                     51
                      A                      A                      A
 Frequencies --   3129.2284              3145.9507              3152.1299
 Red. masses --      1.1023                 1.0902                 1.1014
 Frc consts  --      6.3598                 6.3571                 6.4477
 IR Inten    --     17.9196                18.7864                 6.8614

 - Thermochemistry -
 -------------------
 Temperature   298.150 Kelvin.  Pressure   1.00000 Atm.
 Atom     1 has atomic number  6 and mass  12.00000

 Molecular mass:   126.06808 amu.
 Principal axes and moments of inertia in atomic units:
                           1         2         3
     Eigenvalues --   784.896561075.246721781.96838
           X            0.99875  -0.04967   0.00495
           Y            0.04961   0.99870   0.01173
           Z           -0.00552  -0.01147   0.99992
 This molecule is an asymmetric top.
 Rotational symmetry number  1.
 Warning -- assumption of classical behavior for rotation
           may cause significant error
 Rotational temperatures (Kelvin)      0.11035     0.08055     0.04861
 Rotational constants (GHZ):           2.29934     1.67844     1.01278
 Zero-point vibrational energy     415363.6 (Joules/Mol)
                                   99.27429 (Kcal/Mol)
 Warning -- explicit consideration of  12 degrees of freedom as
           vibrations may cause significant error
 Vibrational temperatures:     90.72   204.72   255.20   285.60   353.98
          (Kelvin)            382.50   443.55   469.57   597.00   647.95
                              688.47   772.62   933.84  1082.54  1136.59
                             1225.68  1250.15  1302.08  1462.68  1483.55
                             1497.48  1535.99  1554.88  1598.46  1685.53
                             1698.30  1784.26  1825.40  1920.29  1940.28
                             1990.08  2012.66  2019.62  2035.79  2115.92
                             2126.92  2132.55  2137.95  2153.70  2461.96
                             2549.68  4185.52  4189.55  4375.39  4397.98
                             4401.16  4457.80  4495.56  4502.26  4526.32
                             4535.21

 Zero-point correction=                           0.158204 (Hartree/Particle)
 Thermal correction to Energy=                    0.167221
 Thermal correction to Enthalpy=                  0.168165
 Thermal correction to Gibbs Free Energy=         0.124472
 Sum of electronic and zero-point Energies=           -423.063588
 Sum of electronic and thermal Energies=              -423.054570
 Sum of electronic and thermal Enthalpies=            -423.053626
 Sum of electronic and thermal Free Energies=         -423.097319

                     E (Thermal)             CV                S
                      KCal/Mol        Cal/Mol-Kelvin    Cal/Mol-Kelvin
 Total                  104.933             33.387             91.960
 Electronic               0.000              0.000              0.000
 Translational            0.889              2.981             40.409
 Rotational               0.889              2.981             28.799
 Vibrational            103.155             27.426             22.753
 Vibration     1          0.597              1.972              4.359
 Vibration     2          0.616              1.911              2.773
 Vibration     3          0.628              1.870              2.356
 Vibration     4          0.637              1.842              2.147
 Vibration     5          0.661              1.769              1.759
 Vibration     6          0.672              1.736              1.623
 Vibration     7          0.698              1.658              1.372
 Vibration     8          0.710              1.623              1.278
 Vibration     9          0.778              1.438              0.909
 Vibration    10          0.809              1.360              0.795
 Vibration    11          0.835              1.298              0.714
 Vibration    12          0.892              1.168              0.572

 Optimization completed.
    -- Stationary point found.
 Normal termination of Gaussian 09 at Tue Jan 28 08:57:50 2020.
