 Gaussian 09, Revision D.01,
 Gaussian 09:  ES64L-G09RevD.01 24-Apr-2013

 -----------------------------
 # b3lyp 6-31G(2df,p) opt Freq
 -----------------------------

 -----
 titel
 -----
 Symbolic Z-matrix:
 Charge =  0 Multiplicity = 1

 SCF Done:  E(RB3LYP) =  -423.131554361     A.U. after   13 cycles
 Optimization completed.
    -- Stationary point found.
 Normal termination of Gaussian 09 at Tue Jan 28 03:07:23 2020.

 ----------------------------------------------------------------------
 #N Geom=AllCheck Guess=TCheck SCRF=Check GenChk RB3LYP/6-31G(2df,p) Fr
 eq
 ----------------------------------------------------------------------

 Structure from the checkpoint file:  "/scratch/puck/g09_cff13220-c68f-4aee-9a0d-4e1fdaf7f6fd/Gau-44679.chk"
 -----
 titel
 -----
 Charge =  0 Multiplicity = 1

                         Standard orientation:
 ---------------------------------------------------------------------
 Center     Atomic      Atomic             Coordinates (Angstroms)
 Number     Number       Type             X           Y           Z
 ---------------------------------------------------------------------
      1          6           0        2.938030   -0.525034   -0.256752
      2          6           0        1.614023   -0.190381    0.401496
      3          8           0        1.265580    1.212594    0.229815
      4          6           0        0.070449    0.887220   -0.497067
      5          6           0       -1.161653    0.793729    0.426237
      6          6           0       -2.440699    0.341715   -0.297106
      7          8           0       -2.093634   -1.056095   -0.159298
      8          6           0       -0.900446   -0.741514    0.581834
      9          6           0        0.334768   -0.645022   -0.331894
     10          1           0        3.743186    0.063282    0.194214
     11          1           0        3.171997   -1.587428   -0.126255
     12          1           0        2.908345   -0.302815   -1.327884
     13          1           0        1.644191   -0.453046    1.468803
     14          1           0       -0.017869    1.441296   -1.436355
     15          1           0       -1.235738    1.518818    1.234861
     16          1           0       -3.372494    0.574316    0.232835
     17          1           0       -2.544899    0.644795   -1.347309
     18          1           0       -0.825950   -1.301597    1.518887
     19          1           0        0.426837   -1.373882   -1.136420
 ---------------------------------------------------------------------

 SCF Done:  E(RB3LYP) =  -423.131554361     A.U. after    1 cycles

 The electronic state is 1-A.
 Alpha  occ. eigenvalues --  -19.13547 -19.13395 -10.23884 -10.23752 -10.23695
 Alpha  occ. eigenvalues --  -10.23451 -10.19234 -10.19015 -10.17951  -1.05028
 Alpha  occ. eigenvalues --   -1.03390  -0.80911  -0.76311  -0.71700  -0.64899
 Alpha  occ. eigenvalues --   -0.63900  -0.56530  -0.52273  -0.51206  -0.50157
 Alpha  occ. eigenvalues --   -0.48857  -0.45610  -0.43286  -0.42460  -0.39321
 Alpha  occ. eigenvalues --   -0.39060  -0.38060  -0.36245  -0.33699  -0.31517
 Alpha  occ. eigenvalues --   -0.30669  -0.27890  -0.25563  -0.23933
 Alpha virt. eigenvalues --    0.06043   0.09000   0.09826   0.11339   0.12085
 Alpha virt. eigenvalues --    0.12448   0.14070   0.14228   0.15859   0.16106
 Alpha virt. eigenvalues --    0.17037   0.18125   0.18612   0.19368   0.20849

 Mulliken charges:
               1
     1  C   -0.403090
     2  C    0.140046
     3  O   -0.311454
     4  C    0.113678
     5  C   -0.113953
     6  C   -0.092476
     7  O   -0.293563
     8  C    0.106038
     9  C   -0.124098
    10  H    0.127775
    11  H    0.116710
    12  H    0.121830
    13  H    0.076001
    14  H    0.077900
    15  H    0.088570
    16  H    0.106499
    17  H    0.101398
    18  H    0.077836
    19  H    0.084354
 Sum of Mulliken charges =   0.00000

 Dipole moment (field-independent basis, Debye):
    X=              0.2652    Y=             -0.0043    Z=              0.0257  Tot=              0.2665
 Quadrupole moment (field-independent basis, Debye-Ang):
   XX=            -53.5843   YY=            -56.1256   ZZ=            -51.3550
   XY=             -7.2734   XZ=             -0.6727   YZ=             -1.7890

  Exact polarizability:  91.296  -6.056  67.409   1.292  -2.746  65.847
 Approx polarizability: 112.992  -3.858 107.041   4.134  -3.300 100.374

                      1                      2                      3
                      A                      A                      A
 Frequencies --     93.1352               175.3701               210.5378
 Red. masses --      3.1014                 2.8129                 3.0775
 Frc consts  --      0.0159                 0.0510                 0.0804
 IR Inten    --      3.0509                 2.9549                 2.5700

                      4                      5                      6
                      A                      A                      A
 Frequencies --    236.6698               275.9418               356.6538
 Red. masses --      1.2110                 2.2524                 3.4104
 Frc consts  --      0.0400                 0.1010                 0.2556
 IR Inten    --      0.1958                 1.2279                 3.8200

                      7                      8                      9
                      A                      A                      A
 Frequencies --    409.3678               465.9015               688.0536
 Red. masses --      5.0788                 3.7225                 3.2568
 Frc consts  --      0.5015                 0.4761                 0.9084
 IR Inten    --      0.7547                 6.5532                 0.1407

                     10                     11                     12
                      A                      A                      A
 Frequencies --    786.9307               806.0900               838.9378
 Red. masses --      1.8507                 2.6080                 1.9335
 Frc consts  --      0.6753                 0.9984                 0.8018
 IR Inten    --      2.2860                16.7145                 3.0169

                     13                     14                     15
                      A                      A                      A
 Frequencies --    877.6624               885.8766               922.0453
 Red. masses --      1.8216                 2.8377                 2.5287
 Frc consts  --      0.8267                 1.3121                 1.2667
 IR Inten    --      2.1639                13.1620                11.3181

                     16                     17                     18
                      A                      A                      A
 Frequencies --    941.1202               970.1701               985.8714
 Red. masses --      4.8857                 2.4489                 1.9058
 Frc consts  --      2.5496                 1.3581                 1.0913
 IR Inten    --      7.2166                 1.3786                 5.1515

                     19                     20                     21
                      A                      A                      A
 Frequencies --   1015.0155              1042.8794              1048.9018
 Red. masses --      3.8327                 4.4904                 2.8866
 Frc consts  --      2.3265                 2.8774                 1.8712
 IR Inten    --     65.6789               152.5833                 6.8379

                     22                     23                     24
                      A                      A                      A
 Frequencies --   1072.3776              1080.2844              1107.2477
 Red. masses --      1.9338                 1.9797                 2.1542
 Frc consts  --      1.3102                 1.3612                 1.5560
 IR Inten    --     12.5318                 3.5983                 0.5149

                     25                     26                     27
                      A                      A                      A
 Frequencies --   1117.9032              1152.1051              1166.0274
 Red. masses --      2.0654                 1.6979                 1.3984
 Frc consts  --      1.5208                 1.3279                 1.1202
 IR Inten    --      4.5641                 1.3051                 1.5837

                     28                     29                     30
                      A                      A                      A
 Frequencies --   1198.8070              1214.9277              1230.1340
 Red. masses --      1.8013                 1.4634                 1.4513
 Frc consts  --      1.5253                 1.2727                 1.2939
 IR Inten    --     11.0034                 0.4459                 0.7163

                     31                     32                     33
                      A                      A                      A
 Frequencies --   1239.8815              1268.4899              1295.5125
 Red. masses --      1.6222                 1.4742                 1.4752
 Frc consts  --      1.4693                 1.3976                 1.4588
 IR Inten    --      4.0353                 1.2361                 3.2290

                     34                     35                     36
                      A                      A                      A
 Frequencies --   1311.2747              1341.0465              1363.2407
 Red. masses --      1.4592                 1.5965                 1.4301
 Frc consts  --      1.4783                 1.6917                 1.5658
 IR Inten    --     25.3974                16.9185                 1.6325

                     37                     38                     39
                      A                      A                      A
 Frequencies --   1389.6082              1405.3385              1482.9791
 Red. masses --      1.3808                 1.3616                 1.0550
 Frc consts  --      1.5710                 1.5844                 1.3670
 IR Inten    --     10.3945                13.9032                 3.5514

                     40                     41                     42
                      A                      A                      A
 Frequencies --   1492.5969              1521.8969              2997.2907
 Red. masses --      1.0500                 1.0977                 1.0842
 Frc consts  --      1.3782                 1.4979                 5.7390
 IR Inten    --      2.5644                 0.8309                44.3692

                     43                     44                     45
                      A                      A                      A
 Frequencies --   3008.1047              3033.0570              3050.3940
 Red. masses --      1.0553                 1.0349                 1.1099
 Frc consts  --      5.6260                 5.6092                 6.0847
 IR Inten    --     83.6840                16.6516                31.7051

                     46                     47                     48
                      A                      A                      A
 Frequencies --   3061.8182              3063.7220              3106.2759
 Red. masses --      1.0885                 1.0883                 1.1008
 Frc consts  --      6.0120                 6.0189                 6.2580
 IR Inten    --    114.6279                 0.2905                19.4708

                     49                     50                     51
                      A                      A                      A
 Frequencies --   3113.6556              3121.0861              3130.8696
 Red. masses --      1.1022                 1.0902                 1.0910
 Frc consts  --      6.2959                 6.2573                 6.3007
 IR Inten    --     20.1364                29.5501                15.4119

 - Thermochemistry -
 -------------------
 Temperature   298.150 Kelvin.  Pressure   1.00000 Atm.
 Atom     1 has atomic number  6 and mass  12.00000

 Molecular mass:   126.06808 amu.
 Principal axes and moments of inertia in atomic units:
                           1         2         3
     Eigenvalues --   410.570421479.388511685.30809
           X            0.99927  -0.03801  -0.00410
           Y            0.03790   0.99902  -0.02293
           Z            0.00497   0.02276   0.99973
 This molecule is an asymmetric top.
 Rotational symmetry number  1.
 Rotational temperatures (Kelvin)      0.21096     0.05855     0.05139
 Rotational constants (GHZ):           4.39569     1.21992     1.07087
 Zero-point vibrational energy     419716.3 (Joules/Mol)
                                  100.31460 (Kcal/Mol)
 Warning -- explicit consideration of   8 degrees of freedom as
           vibrations may cause significant error
 Vibrational temperatures:    134.00   252.32   302.92   340.51   397.02
          (Kelvin)            513.14   588.99   670.33   989.95  1132.22
                             1159.78  1207.04  1262.76  1274.58  1326.62
                             1354.06  1395.86  1418.45  1460.38  1500.47
                             1509.13  1542.91  1554.29  1593.08  1608.41
                             1657.62  1677.65  1724.81  1748.01  1769.89
                             1783.91  1825.07  1863.95  1886.63  1929.46
                             1961.40  1999.33  2021.97  2133.67  2147.51
                             2189.67  4312.43  4327.99  4363.89  4388.83
                             4405.27  4408.01  4469.23  4479.85  4490.54
                             4504.62

 Zero-point correction=                           0.159861 (Hartree/Particle)
 Thermal correction to Energy=                    0.167467
 Thermal correction to Enthalpy=                  0.168411
 Thermal correction to Gibbs Free Energy=         0.127713
 Sum of electronic and zero-point Energies=           -422.971693
 Sum of electronic and thermal Energies=              -422.964087
 Sum of electronic and thermal Enthalpies=            -422.963143
 Sum of electronic and thermal Free Energies=         -423.003841

                     E (Thermal)             CV                S
                      KCal/Mol        Cal/Mol-Kelvin    Cal/Mol-Kelvin
 Total                  105.087             29.520             85.656
 Electronic               0.000              0.000              0.000
 Translational            0.889              2.981             40.409
 Rotational               0.889              2.981             28.417
 Vibrational            103.310             23.559             16.831
 Vibration     1          0.602              1.954              3.593
 Vibration     2          0.627              1.873              2.377
 Vibration     3          0.643              1.825              2.039
 Vibration     4          0.656              1.785              1.828
 Vibration     5          0.678              1.718              1.559
 Vibration     6          0.732              1.562              1.137
 Vibration     7          0.774              1.450              0.929
 Vibration     8          0.823              1.326              0.749

 Optimization completed.
    -- Stationary point found.
 Normal termination of Gaussian 09 at Tue Jan 28 05:08:56 2020.
