 Gaussian 09, Revision D.01,
 Gaussian 09:  ES64L-G09RevD.01 24-Apr-2013

 -----------------------------
 # b3lyp 6-31G(2df,p) opt Freq
 -----------------------------

 -----
 titel
 -----
 Symbolic Z-matrix:
 Charge =  0 Multiplicity = 1

 SCF Done:  E(RB3LYP) =  -423.186628248     A.U. after   14 cycles
 Optimization completed.
    -- Stationary point found.
 Normal termination of Gaussian 09 at Mon Jan 27 13:17:20 2020.

 ----------------------------------------------------------------------
 #N Geom=AllCheck Guess=TCheck SCRF=Check GenChk RB3LYP/6-31G(2df,p) Fr
 eq
 ----------------------------------------------------------------------

 Structure from the checkpoint file:  "/scratch/puck/g09_d9527a47-4d2f-4d44-84a6-01a93c1d07ba/Gau-48237.chk"
 -----
 titel
 -----
 Charge =  0 Multiplicity = 1

                         Standard orientation:
 ---------------------------------------------------------------------
 Center     Atomic      Atomic             Coordinates (Angstroms)
 Number     Number       Type             X           Y           Z
 ---------------------------------------------------------------------
      1          8           0       -2.502845   -1.098124    0.015198
      2          6           0       -2.246035   -0.138893   -0.677617
      3          6           0       -1.196026    0.857319   -0.375214
      4          6           0       -0.825593    1.099652    1.085035
      5          6           0        0.146227    0.391582    0.217659
      6          6           0        0.509436   -1.089940    0.372381
      7          6           0        2.037353   -1.064801    0.189839
      8          8           0        2.294890    0.035609   -0.674294
      9          6           0        1.441390    1.077307   -0.241077
     10          1           0       -2.805231    0.042758   -1.622001
     11          1           0       -1.151185    1.704363   -1.052974
     12          1           0       -0.621997    2.125942    1.374948
     13          1           0       -1.386506    0.511780    1.804279
     14          1           0        0.205227   -1.499617    1.337495
     15          1           0        0.038771   -1.697278   -0.403454
     16          1           0        2.544759   -0.919595    1.157878
     17          1           0        2.441489   -1.963613   -0.281069
     18          1           0        1.893665    1.626404    0.603189
     19          1           0        1.304135    1.775623   -1.071559
 ---------------------------------------------------------------------

 SCF Done:  E(RB3LYP) =  -423.186628248     A.U. after    1 cycles

 The electronic state is 1-A.
 Alpha  occ. eigenvalues --  -19.14091 -19.13494 -10.26958 -10.23442 -10.22882
 Alpha  occ. eigenvalues --  -10.21776 -10.20562 -10.20227 -10.18725  -1.04250
 Alpha  occ. eigenvalues --   -1.04065  -0.87922  -0.75661  -0.71944  -0.67193
 Alpha  occ. eigenvalues --   -0.60865  -0.57725  -0.54365  -0.51076  -0.49596
 Alpha  occ. eigenvalues --   -0.48070  -0.45803  -0.43914  -0.41854  -0.41226
 Alpha  occ. eigenvalues --   -0.39613  -0.38509  -0.37347  -0.35688  -0.32079
 Alpha  occ. eigenvalues --   -0.30450  -0.28882  -0.25751  -0.25086
 Alpha virt. eigenvalues --   -0.02794   0.07866   0.09016   0.10598   0.11002
 Alpha virt. eigenvalues --    0.13947   0.14619   0.14949   0.16075   0.16271
 Alpha virt. eigenvalues --    0.17548   0.18434   0.19430   0.20956   0.22629

 Mulliken charges:
               1
     1  O   -0.275452
     2  C    0.140035
     3  C   -0.157187
     4  C   -0.336449
     5  C    0.323104
     6  C   -0.296100
     7  C   -0.089029
     8  O   -0.240147
     9  C   -0.145256
    10  H    0.080171
    11  H    0.091716
    12  H    0.118608
    13  H    0.139649
    14  H    0.116001
    15  H    0.123788
    16  H    0.090521
    17  H    0.113497
    18  H    0.091390
    19  H    0.111141
 Sum of Mulliken charges =   0.00000

 Dipole moment (field-independent basis, Debye):
    X=              0.3556    Y=              1.7776    Z=              0.2311  Tot=              1.8274
 Quadrupole moment (field-independent basis, Debye-Ang):
   XX=            -61.1366   YY=            -51.4917   ZZ=            -51.7981
   XY=             -5.6285   XZ=              4.6595   YZ=             -0.1454

  Exact polarizability:  84.459   0.610  76.510   5.481  -1.535  68.706
 Approx polarizability: 111.744   5.650 115.480   4.081  -5.408 108.207

                      1                      2                      3
                      A                      A                      A
 Frequencies --     18.9563               115.7176               153.6661
 Red. masses --      2.5090                 5.5832                 4.1397
 Frc consts  --      0.0005                 0.0440                 0.0576
 IR Inten    --      1.1668                 9.6352                 7.3992

                      4                      5                      6
                      A                      A                      A
 Frequencies --    201.6621               256.7255               308.3468
 Red. masses --      2.2246                 2.5428                 2.9324
 Frc consts  --      0.0533                 0.0987                 0.1643
 IR Inten    --      3.4942                 1.1635                 6.5488

                      7                      8                      9
                      A                      A                      A
 Frequencies --    354.7210               424.5516               493.0936
 Red. masses --      2.2999                 2.3610                 4.4655
 Frc consts  --      0.1705                 0.2507                 0.6397
 IR Inten    --      2.2268                 0.8209                 0.9942

                     10                     11                     12
                      A                      A                      A
 Frequencies --    645.2962               710.5040               747.5193
 Red. masses --      2.7620                 3.1549                 3.5983
 Frc consts  --      0.6776                 0.9384                 1.1846
 IR Inten    --      6.1038                10.2672                 5.0997

                     13                     14                     15
                      A                      A                      A
 Frequencies --    789.8788               853.6436               881.7695
 Red. masses --      2.2644                 2.4444                 2.2727
 Frc consts  --      0.8324                 1.0495                 1.0411
 IR Inten    --      1.8533                13.7166                 9.9647

                     16                     17                     18
                      A                      A                      A
 Frequencies --    916.0505               935.8618               965.5945
 Red. masses --      1.5028                 2.0487                 3.1019
 Frc consts  --      0.7430                 1.0572                 1.7040
 IR Inten    --      2.3878                 4.8492                23.3951

                     19                     20                     21
                      A                      A                      A
 Frequencies --    983.2451              1031.4238              1055.5030
 Red. masses --      2.1528                 2.3169                 1.6300
 Frc consts  --      1.2262                 1.4522                 1.0699
 IR Inten    --     13.5692                80.1319                 2.6968

                     22                     23                     24
                      A                      A                      A
 Frequencies --   1071.2006              1080.5721              1107.2072
 Red. masses --      1.6612                 1.5699                 2.8965
 Frc consts  --      1.1231                 1.0800                 2.0921
 IR Inten    --     11.8576                 2.4469                64.9228

                     25                     26                     27
                      A                      A                      A
 Frequencies --   1113.6165              1128.2197              1202.1992
 Red. masses --      1.3376                 2.3680                 1.6987
 Frc consts  --      0.9773                 1.7759                 1.4465
 IR Inten    --     11.6197                28.6467                 8.8238

                     28                     29                     30
                      A                      A                      A
 Frequencies --   1219.6736              1252.3626              1277.2663
 Red. masses --      1.1294                 1.9829                 1.2827
 Frc consts  --      0.9899                 1.8324                 1.2330
 IR Inten    --      3.5841                 8.1615                 4.2360

                     31                     32                     33
                      A                      A                      A
 Frequencies --   1299.3541              1324.0293              1354.9935
 Red. masses --      1.6288                 1.3399                 1.2601
 Frc consts  --      1.6203                 1.3840                 1.3631
 IR Inten    --      2.0822                 2.2657                 6.0057

                     34                     35                     36
                      A                      A                      A
 Frequencies --   1395.0661              1418.7603              1430.6141
 Red. masses --      1.4605                 1.6695                 1.2950
 Frc consts  --      1.6747                 1.9800                 1.5616
 IR Inten    --     34.6305                 6.3349                16.2169

                     37                     38                     39
                      A                      A                      A
 Frequencies --   1473.1081              1483.8422              1505.9144
 Red. masses --      1.4709                 1.0914                 1.0894
 Frc consts  --      1.8806                 1.4159                 1.4556
 IR Inten    --     10.3779                 3.6253                 0.3549

                     40                     41                     42
                      A                      A                      A
 Frequencies --   1520.7277              1797.1491              2884.9912
 Red. masses --      1.1045                 9.2988                 1.0830
 Frc consts  --      1.5049                17.6948                 5.3107
 IR Inten    --      0.6641               133.1934               151.3933

                     43                     44                     45
                      A                      A                      A
 Frequencies --   2950.6103              2969.7611              3077.6317
 Red. masses --      1.0715                 1.0722                 1.0626
 Frc consts  --      5.4961                 5.5712                 5.9300
 IR Inten    --     57.6680                81.1401                13.7941

                     46                     47                     48
                      A                      A                      A
 Frequencies --   3081.0329              3103.4581              3122.4298
 Red. masses --      1.0894                 1.0916                 1.0543
 Frc consts  --      6.0932                 6.1944                 6.0564
 IR Inten    --     20.9203                27.3752                 8.1046

                     49                     50                     51
                      A                      A                      A
 Frequencies --   3124.0591              3157.5179              3217.1886
 Red. masses --      1.1048                 1.0894                 1.1171
 Frc consts  --      6.3528                 6.3991                 6.8124
 IR Inten    --     20.5987                13.1443                 3.0797

 - Thermochemistry -
 -------------------
 Temperature   298.150 Kelvin.  Pressure   1.00000 Atm.
 Atom     1 has atomic number  8 and mass  15.99491

 Molecular mass:   126.06808 amu.
 Principal axes and moments of inertia in atomic units:
                           1         2         3
     Eigenvalues --   555.610051513.501551742.43305
           X            0.99964  -0.02263   0.01427
           Y            0.02282   0.99966  -0.01292
           Z           -0.01397   0.01324   0.99981
 This molecule is an asymmetric top.
 Rotational symmetry number  1.
 Warning -- assumption of classical behavior for rotation
           may cause significant error
 Rotational temperatures (Kelvin)      0.15589     0.05723     0.04971
 Rotational constants (GHZ):           3.24822     1.19243     1.03576
 Zero-point vibrational energy     418622.9 (Joules/Mol)
                                  100.05328 (Kcal/Mol)
 Warning -- explicit consideration of   9 degrees of freedom as
           vibrations may cause significant error
 Vibrational temperatures:     27.27   166.49   221.09   290.15   369.37
          (Kelvin)            443.64   510.36   610.83   709.45   928.44
                             1022.26  1075.51  1136.46  1228.20  1268.67
                             1317.99  1346.49  1389.27  1414.67  1483.99
                             1518.63  1541.22  1554.70  1593.02  1602.24
                             1623.25  1729.69  1754.84  1801.87  1837.70
                             1869.48  1904.98  1949.53  2007.19  2041.28
                             2058.33  2119.47  2134.92  2166.67  2187.99
                             2585.69  4150.85  4245.26  4272.82  4428.02
                             4432.91  4465.18  4492.47  4494.82  4542.96
                             4628.81

 Zero-point correction=                           0.159445 (Hartree/Particle)
 Thermal correction to Energy=                    0.167879
 Thermal correction to Enthalpy=                  0.168823
 Thermal correction to Gibbs Free Energy=         0.124970
 Sum of electronic and zero-point Energies=           -423.027183
 Sum of electronic and thermal Energies=              -423.018749
 Sum of electronic and thermal Enthalpies=            -423.017805
 Sum of electronic and thermal Free Energies=         -423.061659

                     E (Thermal)             CV                S
                      KCal/Mol        Cal/Mol-Kelvin    Cal/Mol-Kelvin
 Total                  105.346             31.105             92.298
 Electronic               0.000              0.000              0.000
 Translational            0.889              2.981             40.409
 Rotational               0.889              2.981             28.773
 Vibrational            103.568             25.143             23.116
 Vibration     1          0.593              1.986              6.741
 Vibration     2          0.608              1.936              3.171
 Vibration     3          0.619              1.899              2.626
 Vibration     4          0.639              1.838              2.118
 Vibration     5          0.666              1.751              1.684
 Vibration     6          0.698              1.658              1.371
 Vibration     7          0.731              1.566              1.145
 Vibration     8          0.787              1.417              0.877
 Vibration     9          0.849              1.265              0.676

 Normal termination of Gaussian 09 at Mon Jan 27 13:59:48 2020.
