 Gaussian 09, Revision D.01,
 Gaussian 09:  ES64L-G09RevD.01 24-Apr-2013

 -----------------------------
 # b3lyp 6-31G(2df,p) opt Freq
 -----------------------------

 -----
 titel
 -----
 Symbolic Z-matrix:
 Charge =  0 Multiplicity = 1

 SCF Done:  E(RB3LYP) =  -423.200869438     A.U. after   14 cycles
 Optimization completed.
    -- Stationary point found.
 Normal termination of Gaussian 09 at Tue Jan 28 00:39:40 2020.

 ----------------------------------------------------------------------
 #N Geom=AllCheck Guess=TCheck SCRF=Check GenChk RB3LYP/6-31G(2df,p) Fr
 eq
 ----------------------------------------------------------------------

 Structure from the checkpoint file:  "/scratch/puck/g09_c3840cfa-5d62-4425-ae3d-bd34cb1c9eb8/Gau-71562.chk"
 -----
 titel
 -----
 Charge =  0 Multiplicity = 1

                         Standard orientation:
 ---------------------------------------------------------------------
 Center     Atomic      Atomic             Coordinates (Angstroms)
 Number     Number       Type             X           Y           Z
 ---------------------------------------------------------------------
      1          8           0        0.350287    2.036858   -0.639688
      2          6           0        0.289783    1.064166    0.398124
      3          6           0       -1.151818    0.762140    0.838697
      4          6           0       -1.596017   -0.433282   -0.010976
      5          8           0       -2.727725   -0.804835   -0.177968
      6          6           0       -0.342233   -1.078600   -0.626262
      7          6           0        0.826494   -0.308035   -0.027828
      8          6           0        1.849084   -1.002099    0.841712
      9          6           0        2.240822   -0.451713   -0.507474
     10          1           0       -0.093024    1.687200   -1.420192
     11          1           0        0.887747    1.492951    1.206191
     12          1           0       -1.171972    0.436920    1.887273
     13          1           0       -1.828634    1.613337    0.741221
     14          1           0       -0.329452   -2.153140   -0.423242
     15          1           0       -0.408884   -0.971196   -1.717878
     16          1           0        2.205522   -0.487339    1.728276
     17          1           0        1.772206   -2.078960    0.953072
     18          1           0        2.849785    0.445355   -0.541389
     19          1           0        2.439524   -1.156775   -1.308044
 ---------------------------------------------------------------------

 SCF Done:  E(RB3LYP) =  -423.200869438     A.U. after    1 cycles

 The electronic state is 1-A.
 Alpha  occ. eigenvalues --  -19.14220 -19.13261 -10.27252 -10.24230 -10.20505
 Alpha  occ. eigenvalues --  -10.19748 -10.19567 -10.19266 -10.19090  -1.04430
 Alpha  occ. eigenvalues --   -1.02477  -0.87829  -0.79871  -0.72550  -0.65733
 Alpha  occ. eigenvalues --   -0.61090  -0.56989  -0.54313  -0.50279  -0.49465
 Alpha  occ. eigenvalues --   -0.47618  -0.45483  -0.43858  -0.42250  -0.40770
 Alpha  occ. eigenvalues --   -0.39903  -0.38372  -0.37051  -0.35262  -0.33093
 Alpha  occ. eigenvalues --   -0.30781  -0.29433  -0.27130  -0.24083
 Alpha virt. eigenvalues --   -0.02259   0.06265   0.09051   0.09901   0.10599
 Alpha virt. eigenvalues --    0.12059   0.13963   0.15076   0.15982   0.17072
 Alpha virt. eigenvalues --    0.17827   0.19269   0.20711   0.22141   0.23539

 Mulliken charges:
               1
     1  O   -0.430136
     2  C    0.031560
     3  C   -0.342056
     4  C    0.391938
     5  O   -0.307922
     6  C   -0.427255
     7  C    0.349779
     8  C   -0.317041
     9  C   -0.319739
    10  H    0.280880
    11  H    0.088357
    12  H    0.135385
    13  H    0.133512
    14  H    0.134837
    15  H    0.128652
    16  H    0.115765
    17  H    0.113791
    18  H    0.125947
    19  H    0.113746
 Sum of Mulliken charges =   0.00000

 Dipole moment (field-independent basis, Debye):
    X=              2.0387    Y=             -0.5294    Z=              0.2202  Tot=              2.1178
 Quadrupole moment (field-independent basis, Debye-Ang):
   XX=            -63.0128   YY=            -56.2281   ZZ=            -48.7160
   XY=             -4.8113   XZ=             -0.0358   YZ=              0.5892

  Exact polarizability:  84.605  -1.021  71.776   0.707   2.305  68.581
 Approx polarizability: 117.962   3.023 104.538   3.165   1.385 105.484

                      1                      2                      3
                      A                      A                      A
 Frequencies --     54.4942                89.0979               193.6536
 Red. masses --      3.8756                 3.0871                 1.3608
 Frc consts  --      0.0068                 0.0144                 0.0301
 IR Inten    --      4.8455                 1.9216                46.8034

                      4                      5                      6
                      A                      A                      A
 Frequencies --    224.2773               269.7982               312.8819
 Red. masses --      1.9203                 2.8793                 2.0725
 Frc consts  --      0.0569                 0.1235                 0.1195
 IR Inten    --     42.6233                 4.4788                 2.0422

                      7                      8                      9
                      A                      A                      A
 Frequencies --    367.4565               449.4571               466.8510
 Red. masses --      3.1592                 2.7548                 2.7574
 Frc consts  --      0.2513                 0.3279                 0.3541
 IR Inten    --      8.6170                 3.0472                 0.9776

                     10                     11                     12
                      A                      A                      A
 Frequencies --    496.5074               531.0264               658.4440
 Red. masses --      4.2531                 3.3463                 4.1345
 Frc consts  --      0.6177                 0.5560                 1.0561
 IR Inten    --      4.4208                 4.4964                 5.0177

                     13                     14                     15
                      A                      A                      A
 Frequencies --    731.4831               779.4427               804.8986
 Red. masses --      2.4216                 1.1148                 2.5275
 Frc consts  --      0.7634                 0.3990                 0.9648
 IR Inten    --      4.4330                 1.5805                 6.0174

                     16                     17                     18
                      A                      A                      A
 Frequencies --    819.3664               869.5693               924.2864
 Red. masses --      2.9360                 2.2637                 1.9480
 Frc consts  --      1.1613                 1.0085                 0.9805
 IR Inten    --      8.2127                 6.7898                 0.5020

                     19                     20                     21
                      A                      A                      A
 Frequencies --    945.2866               950.1023               986.1962
 Red. masses --      1.5486                 1.6611                 2.5021
 Frc consts  --      0.8153                 0.8835                 1.4338
 IR Inten    --      2.8824                 8.3490                13.7878

                     22                     23                     24
                      A                      A                      A
 Frequencies --   1022.6223              1049.6319              1072.6309
 Red. masses --      2.0164                 1.5586                 2.1937
 Frc consts  --      1.2424                 1.0117                 1.4871
 IR Inten    --      8.5337                18.4274                45.9289

                     25                     26                     27
                      A                      A                      A
 Frequencies --   1083.9868              1124.6249              1144.9803
 Red. masses --      1.4267                 2.4689                 1.8525
 Frc consts  --      0.9877                 1.8398                 1.4308
 IR Inten    --      8.3726                48.3171                75.6734

                     28                     29                     30
                      A                      A                      A
 Frequencies --   1187.4262              1198.7096              1228.9252
 Red. masses --      1.2853                 1.3374                 2.0364
 Frc consts  --      1.0677                 1.1323                 1.8120
 IR Inten    --      0.3115                 9.3726                14.1515

                     31                     32                     33
                      A                      A                      A
 Frequencies --   1245.3046              1270.4288              1297.4933
 Red. masses --      1.4709                 1.5132                 2.0724
 Frc consts  --      1.3440                 1.4389                 2.0555
 IR Inten    --      0.9347                 6.0488                 5.8562

                     34                     35                     36
                      A                      A                      A
 Frequencies --   1313.2057              1382.8335              1424.3695
 Red. masses --      1.7417                 2.2527                 1.1239
 Frc consts  --      1.7697                 2.5380                 1.3434
 IR Inten    --     13.4258                 2.4195                23.8621

                     37                     38                     39
                      A                      A                      A
 Frequencies --   1437.7650              1452.5672              1470.8298
 Red. masses --      1.1691                 1.1106                 1.0887
 Frc consts  --      1.4238                 1.3807                 1.3877
 IR Inten    --     37.3255                 9.7787                 3.3698

                     40                     41                     42
                      A                      A                      A
 Frequencies --   1505.2390              1848.3596              3019.9564
 Red. masses --      1.4007                12.7161                 1.0692
 Frc consts  --      1.8699                25.5964                 5.7450
 IR Inten    --      0.5208               228.4753                14.9088

                     43                     44                     45
                      A                      A                      A
 Frequencies --   3036.2653              3082.4612              3090.4370
 Red. masses --      1.0675                 1.0871                 1.0926
 Frc consts  --      5.7984                 6.0857                 6.1484
 IR Inten    --      5.2299                23.4894                 5.5161

                     46                     47                     48
                      A                      A                      A
 Frequencies --   3119.4251              3124.2347              3130.9077
 Red. masses --      1.0950                 1.0520                 1.0567
 Frc consts  --      6.2780                 6.0502                 6.1028
 IR Inten    --      5.6922                16.9523                10.8334

                     49                     50                     51
                      A                      A                      A
 Frequencies --   3203.9559              3219.3524              3805.5515
 Red. masses --      1.1179                 1.1158                 1.0661
 Frc consts  --      6.7614                 6.8133                 9.0969
 IR Inten    --      1.4949                13.3981                12.9531

 - Thermochemistry -
 -------------------
 Temperature   298.150 Kelvin.  Pressure   1.00000 Atm.
 Atom     1 has atomic number  8 and mass  15.99491

 Molecular mass:   126.06808 amu.
 Principal axes and moments of inertia in atomic units:
                           1         2         3
     Eigenvalues --   710.287971277.936561628.44116
           X            0.99889  -0.04701  -0.00343
           Y            0.04708   0.99858   0.02482
           Z            0.00225  -0.02495   0.99969
 This molecule is an asymmetric top.
 Rotational symmetry number  1.
 Warning -- assumption of classical behavior for rotation
           may cause significant error
 Rotational temperatures (Kelvin)      0.12194     0.06778     0.05319
 Rotational constants (GHZ):           2.54086     1.41223     1.10826
 Zero-point vibrational energy     415816.3 (Joules/Mol)
                                   99.38248 (Kcal/Mol)
 Warning -- explicit consideration of  11 degrees of freedom as
           vibrations may cause significant error
 Vibrational temperatures:     78.40   128.19   278.62   322.68   388.18
          (Kelvin)            450.17   528.69   646.67   671.69   714.36
                              764.03   947.35  1052.44  1121.44  1158.07
                             1178.88  1251.11  1329.84  1360.05  1366.98
                             1418.91  1471.32  1510.18  1543.27  1559.61
                             1618.08  1647.37  1708.44  1724.67  1768.15
                             1791.71  1827.86  1866.80  1889.41  1989.59
                             2049.35  2068.62  2089.92  2116.19  2165.70
                             2659.37  4345.04  4368.50  4434.97  4446.44
                             4488.15  4495.07  4504.67  4609.77  4631.92
                             5475.33

 Zero-point correction=                           0.158376 (Hartree/Particle)
 Thermal correction to Energy=                    0.167036
 Thermal correction to Enthalpy=                  0.167980
 Thermal correction to Gibbs Free Energy=         0.124710
 Sum of electronic and zero-point Energies=           -423.042493
 Sum of electronic and thermal Energies=              -423.033833
 Sum of electronic and thermal Enthalpies=            -423.032889
 Sum of electronic and thermal Free Energies=         -423.076159

                     E (Thermal)             CV                S
                      KCal/Mol        Cal/Mol-Kelvin    Cal/Mol-Kelvin
 Total                  104.817             33.084             91.069
 Electronic               0.000              0.000              0.000
 Translational            0.889              2.981             40.409
 Rotational               0.889              2.981             28.782
 Vibrational            103.039             27.122             21.879
 Vibration     1          0.596              1.976              4.647
 Vibration     2          0.602              1.957              3.680
 Vibration     3          0.635              1.849              2.193
 Vibration     4          0.649              1.804              1.924
 Vibration     5          0.674              1.729              1.598
 Vibration     6          0.701              1.649              1.347
 Vibration     7          0.740              1.539              1.090
 Vibration     8          0.808              1.362              0.797
 Vibration     9          0.824              1.324              0.746
 Vibration    10          0.852              1.258              0.667
 Vibration    11          0.886              1.181              0.585

 Normal termination of Gaussian 09 at Tue Jan 28 01:23:36 2020.
