 Gaussian 09, Revision D.01,
 Gaussian 09:  ES64L-G09RevD.01 24-Apr-2013

 -----------------------------
 # b3lyp 6-31G(2df,p) opt Freq
 -----------------------------

 -----
 titel
 -----
 Symbolic Z-matrix:
 Charge =  0 Multiplicity = 1

 SCF Done:  E(RB3LYP) =  -423.148633388     A.U. after   14 cycles
 Optimization completed.
    -- Stationary point found.
 Normal termination of Gaussian 09 at Tue Jan 28 09:46:06 2020.

 ----------------------------------------------------------------------
 #N Geom=AllCheck Guess=TCheck SCRF=Check GenChk RB3LYP/6-31G(2df,p) Fr
 eq
 ----------------------------------------------------------------------

 Structure from the checkpoint file:  "/scratch/puck/g09_05cbbb09-07cf-40ba-a189-ec3af42643b5/Gau-132421.chk"
 -----
 titel
 -----
 Charge =  0 Multiplicity = 1

                         Standard orientation:
 ---------------------------------------------------------------------
 Center     Atomic      Atomic             Coordinates (Angstroms)
 Number     Number       Type             X           Y           Z
 ---------------------------------------------------------------------
      1          6           0        0.920479    2.311517    0.190653
      2          8           0        0.823136    1.203191   -0.696012
      3          6           0        0.676647   -0.002727   -0.051347
      4          6           0        1.827249   -0.731718    0.585044
      5          6           0        1.067417   -1.380403   -0.552930
      6          6           0       -0.245836   -1.957093   -0.018750
      7          6           0       -0.675482   -0.528933    0.488878
      8          6           0       -1.845726    0.019769   -0.284423
      9          8           0       -2.772086    0.613580    0.205237
     10          1           0        1.775377    2.201354    0.871088
     11          1           0        1.061850    3.199311   -0.428689
     12          1           0        0.005231    2.432565    0.784993
     13          1           0        2.797483   -0.334228    0.304244
     14          1           0        1.770063   -1.133766    1.594381
     15          1           0        1.556955   -1.663400   -1.475835
     16          1           0       -0.909918   -2.329746   -0.803355
     17          1           0       -0.158469   -2.719782    0.760263
     18          1           0       -0.860575   -0.404771    1.558872
     19          1           0       -1.794892   -0.164170   -1.382512
 ---------------------------------------------------------------------

 SCF Done:  E(RB3LYP) =  -423.148633388     A.U. after    1 cycles

 The electronic state is 1-A.
 Alpha  occ. eigenvalues --  -19.15813 -19.13625 -10.26753 -10.25246 -10.23087
 Alpha  occ. eigenvalues --  -10.20333 -10.20209 -10.20029 -10.19529  -1.05379
 Alpha  occ. eigenvalues --   -1.04262  -0.90324  -0.76073  -0.70754  -0.67046
 Alpha  occ. eigenvalues --   -0.59623  -0.59135  -0.54331  -0.52536  -0.48611
 Alpha  occ. eigenvalues --   -0.46568  -0.45177  -0.44099  -0.43508  -0.41260
 Alpha  occ. eigenvalues --   -0.40580  -0.39622  -0.36980  -0.34608  -0.33580
 Alpha  occ. eigenvalues --   -0.31696  -0.27039  -0.26075  -0.24340
 Alpha virt. eigenvalues --   -0.02086   0.09301   0.10080   0.10388   0.11153
 Alpha virt. eigenvalues --    0.12070   0.13076   0.14577   0.15428   0.15880
 Alpha virt. eigenvalues --    0.16169   0.17158   0.17864   0.19485   0.21099

 Mulliken charges:
               1
     1  C   -0.265022
     2  O   -0.279970
     3  C    0.447882
     4  C   -0.342042
     5  C   -0.135488
     6  C   -0.253963
     7  C   -0.175536
     8  C    0.174357
     9  O   -0.265293
    10  H    0.114364
    11  H    0.132549
    12  H    0.127993
    13  H    0.121994
    14  H    0.107786
    15  H    0.101918
    16  H    0.113941
    17  H    0.110150
    18  H    0.085983
    19  H    0.078398
 Sum of Mulliken charges =   0.00000

 Dipole moment (field-independent basis, Debye):
    X=              2.4819    Y=             -1.0529    Z=              0.3209  Tot=              2.7150
 Quadrupole moment (field-independent basis, Debye-Ang):
   XX=            -60.7321   YY=            -49.8664   ZZ=            -52.8295
   XY=              4.0850   XZ=              2.3887   YZ=              1.3814

  Exact polarizability:  82.229  -3.317  81.365   0.724   2.134  66.125
 Approx polarizability: 116.254  -9.370 112.968  -2.711   5.149 104.864

                      1                      2                      3
                      A                      A                      A
 Frequencies --     50.2746                97.7231               117.1225
 Red. masses --      4.9546                 3.0707                 3.1384
 Frc consts  --      0.0074                 0.0173                 0.0254
 IR Inten    --      5.4971                 3.2102                 0.7094

                      4                      5                      6
                      A                      A                      A
 Frequencies --    181.8645               212.4396               260.4274
 Red. masses --      1.1374                 2.6756                 2.5502
 Frc consts  --      0.0222                 0.0711                 0.1019
 IR Inten    --      0.5159                 3.4635                 3.8798

                      7                      8                      9
                      A                      A                      A
 Frequencies --    372.4427               380.1545               421.6969
 Red. masses --      2.8542                 2.7414                 2.6198
 Frc consts  --      0.2333                 0.2334                 0.2745
 IR Inten    --      2.2333                 5.1434                 0.5499

                     10                     11                     12
                      A                      A                      A
 Frequencies --    471.9330               495.5074               644.9844
 Red. masses --      3.4960                 3.8718                 3.1748
 Frc consts  --      0.4588                 0.5601                 0.7782
 IR Inten    --      7.7561                10.8659                 5.8341

                     13                     14                     15
                      A                      A                      A
 Frequencies --    749.6385               839.5289               859.9003
 Red. masses --      2.7714                 2.1661                 1.7725
 Frc consts  --      0.9176                 0.8995                 0.7722
 IR Inten    --      0.4604                 6.9039                 7.4240

                     16                     17                     18
                      A                      A                      A
 Frequencies --    899.5065               944.0157               964.0671
 Red. masses --      1.9030                 2.9613                 2.1694
 Frc consts  --      0.9072                 1.5549                 1.1880
 IR Inten    --     12.4764                 3.8454                 1.9304

                     19                     20                     21
                      A                      A                      A
 Frequencies --    984.5962              1016.2830              1022.8463
 Red. masses --      1.7375                 2.0506                 1.3108
 Frc consts  --      0.9924                 1.2478                 0.8080
 IR Inten    --      4.4288                16.6555                 1.0984

                     22                     23                     24
                      A                      A                      A
 Frequencies --   1046.2232              1072.1588              1090.8328
 Red. masses --      2.1304                 1.8625                 2.4265
 Frc consts  --      1.3739                 1.2614                 1.7012
 IR Inten    --      9.6121                13.4227                47.6967

                     25                     26                     27
                      A                      A                      A
 Frequencies --   1139.5634              1180.8518              1181.5279
 Red. masses --      2.4157                 1.5250                 1.2855
 Frc consts  --      1.8483                 1.2529                 1.0574
 IR Inten    --     37.8949                 3.8212                 2.9057

                     28                     29                     30
                      A                      A                      A
 Frequencies --   1196.5963              1225.5984              1234.6196
 Red. masses --      1.6170                 1.5489                 1.4230
 Frc consts  --      1.3641                 1.3708                 1.2780
 IR Inten    --     20.4426                 5.9066                 0.0959

                     31                     32                     33
                      A                      A                      A
 Frequencies --   1268.7936              1278.0907              1297.8363
 Red. masses --      2.1422                 1.5932                 1.8686
 Frc consts  --      2.0319                 1.5334                 1.8544
 IR Inten    --     27.9614                18.6776                46.4594

                     34                     35                     36
                      A                      A                      A
 Frequencies --   1372.3860              1429.8273              1470.7711
 Red. masses --      2.4342                 1.2025                 1.1458
 Frc consts  --      2.7012                 1.4484                 1.4603
 IR Inten    --     85.0502                 3.6904                 3.4696

                     37                     38                     39
                      A                      A                      A
 Frequencies --   1483.4548              1490.3788              1502.7664
 Red. masses --      1.1393                 1.0593                 1.2789
 Frc consts  --      1.4772                 1.3864                 1.7016
 IR Inten    --      0.5996                 4.1384                26.2798

                     40                     41                     42
                      A                      A                      A
 Frequencies --   1505.4121              1828.8387              2866.1906
 Red. masses --      1.1085                10.2115                 1.0822
 Frc consts  --      1.4802                20.1228                 5.2382
 IR Inten    --      0.2108               196.0834                80.6422

                     43                     44                     45
                      A                      A                      A
 Frequencies --   3002.0196              3052.6773              3061.2152
 Red. masses --      1.0340                 1.0580                 1.1047
 Frc consts  --      5.4904                 5.8088                 6.0996
 IR Inten    --     43.2295                39.9641                32.7151

                     46                     47                     48
                      A                      A                      A
 Frequencies --   3080.4789              3103.1446              3105.1372
 Red. masses --      1.0871                 1.0588                 1.1054
 Frc consts  --      6.0782                 6.0069                 6.2796
 IR Inten    --     17.6355                10.3505                26.9776

                     49                     50                     51
                      A                      A                      A
 Frequencies --   3130.0621              3196.3786              3205.4794
 Red. masses --      1.0994                 1.0994                 1.1070
 Frc consts  --      6.3463                 6.6177                 6.7017
 IR Inten    --     24.2854                 6.1149                12.1702

 - Thermochemistry -
 -------------------
 Temperature   298.150 Kelvin.  Pressure   1.00000 Atm.
 Atom     1 has atomic number  6 and mass  12.00000

 Molecular mass:   126.06808 amu.
 Principal axes and moments of inertia in atomic units:
                           1         2         3
     Eigenvalues --   865.781311091.058351725.39992
           X            0.99687   0.07698   0.01799
           Y           -0.07723   0.99692   0.01379
           Z           -0.01687  -0.01513   0.99974
 This molecule is an asymmetric top.
 Rotational symmetry number  1.
 Warning -- assumption of classical behavior for rotation
           may cause significant error
 Rotational temperatures (Kelvin)      0.10004     0.07939     0.05020
 Rotational constants (GHZ):           2.08452     1.65412     1.04598
 Zero-point vibrational energy     413227.6 (Joules/Mol)
                                   98.76377 (Kcal/Mol)
 Warning -- explicit consideration of  11 degrees of freedom as
           vibrations may cause significant error
 Vibrational temperatures:     72.33   140.60   168.51   261.66   305.65
          (Kelvin)            374.70   535.86   546.96   606.73   679.01
                              712.92   927.99  1078.56  1207.89  1237.20
                             1294.19  1358.23  1387.08  1416.61  1462.20
                             1471.65  1505.28  1542.60  1569.46  1639.58
                             1698.98  1699.95  1721.63  1763.36  1776.34
                             1825.51  1838.89  1867.29  1974.55  2057.20
                             2116.11  2134.36  2144.32  2162.14  2165.95
                             2631.29  4123.80  4319.23  4392.12  4404.40
                             4432.12  4464.73  4467.59  4503.46  4598.87
                             4611.96

 Zero-point correction=                           0.157390 (Hartree/Particle)
 Thermal correction to Energy=                    0.166407
 Thermal correction to Enthalpy=                  0.167352
 Thermal correction to Gibbs Free Energy=         0.122976
 Sum of electronic and zero-point Energies=           -422.991243
 Sum of electronic and thermal Energies=              -422.982226
 Sum of electronic and thermal Enthalpies=            -422.981282
 Sum of electronic and thermal Free Energies=         -423.025657

                     E (Thermal)             CV                S
                      KCal/Mol        Cal/Mol-Kelvin    Cal/Mol-Kelvin
 Total                  104.422             32.862             93.395
 Electronic               0.000              0.000              0.000
 Translational            0.889              2.981             40.409
 Rotational               0.889              2.981             28.879
 Vibrational            102.645             26.900             24.108
 Vibration     1          0.595              1.977              4.807
 Vibration     2          0.603              1.951              3.499
 Vibration     3          0.608              1.935              3.147
 Vibration     4          0.630              1.864              2.309
 Vibration     5          0.643              1.822              2.023
 Vibration     6          0.668              1.745              1.659
 Vibration     7          0.744              1.529              1.070
 Vibration     8          0.750              1.512              1.039
 Vibration     9          0.784              1.423              0.886
 Vibration    10          0.829              1.312              0.732
 Vibration    11          0.851              1.260              0.669

 Normal termination of Gaussian 09 at Tue Jan 28 10:29:02 2020.
