 Gaussian 09, Revision D.01,
 Gaussian 09:  ES64L-G09RevD.01 24-Apr-2013

 -----------------------------
 # b3lyp 6-31G(2df,p) opt Freq
 -----------------------------

 -----
 titel
 -----
 Symbolic Z-matrix:
 Charge =  0 Multiplicity = 1

 SCF Done:  E(RB3LYP) =  -423.131287589     A.U. after   14 cycles
 Optimization completed.
    -- Stationary point found.
 Normal termination of Gaussian 09 at Tue Jan 28 01:53:13 2020.

 ----------------------------------------------------------------------
 #N Geom=AllCheck Guess=TCheck SCRF=Check GenChk RB3LYP/6-31G(2df,p) Fr
 eq
 ----------------------------------------------------------------------

 Structure from the checkpoint file:  "/scratch/puck/g09_5f729497-4261-466e-85c7-29955b35fe25/Gau-38010.chk"
 -----
 titel
 -----
 Charge =  0 Multiplicity = 1

                         Standard orientation:
 ---------------------------------------------------------------------
 Center     Atomic      Atomic             Coordinates (Angstroms)
 Number     Number       Type             X           Y           Z
 ---------------------------------------------------------------------
      1          6           0       -2.633841   -0.359126   -0.717217
      2          6           0       -1.617107    0.365294    0.126167
      3          8           0       -1.142016   -0.316232    1.303403
      4          6           0       -0.224937   -0.061381    0.242782
      5          6           0        0.533009   -1.106145   -0.536181
      6          6           0        1.766084   -1.507483    0.232945
      7          6           0        1.772552   -0.196876   -0.494461
      8          6           0        1.024801    0.854655    0.331760
      9          8           0        0.920926    2.071190   -0.376667
     10          1           0       -2.718570    0.111490   -1.702695
     11          1           0       -2.355144   -1.407230   -0.850567
     12          1           0       -3.619736   -0.325940   -0.241963
     13          1           0       -1.828922    1.424451    0.290495
     14          1           0        0.146587   -1.700708   -1.354824
     15          1           0        1.748227   -1.535762    1.319689
     16          1           0        2.353635   -2.298094   -0.222090
     17          1           0        2.462220    0.046034   -1.291311
     18          1           0        1.412028    1.013263    1.348946
     19          1           0        0.445034    2.699200    0.175671
 ---------------------------------------------------------------------

 SCF Done:  E(RB3LYP) =  -423.131287589     A.U. after    1 cycles

 The electronic state is 1-A.
 Alpha  occ. eigenvalues --  -19.14226 -19.14146 -10.23645 -10.23534 -10.23361
 Alpha  occ. eigenvalues --  -10.19606 -10.19547 -10.19276 -10.18218  -1.06351
 Alpha  occ. eigenvalues --   -1.02429  -0.89347  -0.74411  -0.71030  -0.64584
 Alpha  occ. eigenvalues --   -0.60720  -0.58441  -0.53647  -0.52313  -0.49537
 Alpha  occ. eigenvalues --   -0.47795  -0.45587  -0.43054  -0.41727  -0.40540
 Alpha  occ. eigenvalues --   -0.38338  -0.37521  -0.35243  -0.32387  -0.32071
 Alpha  occ. eigenvalues --   -0.30042  -0.28018  -0.26410  -0.24281
 Alpha virt. eigenvalues --    0.06137   0.08886   0.11008   0.11274   0.11784
 Alpha virt. eigenvalues --    0.12880   0.14015   0.15610   0.16242   0.16687
 Alpha virt. eigenvalues --    0.17317   0.18463   0.19731   0.20676   0.22015

 Mulliken charges:
               1
     1  C   -0.417320
     2  C   -0.023811
     3  O   -0.306885
     4  C    0.414882
     5  C   -0.149065
     6  C   -0.296355
     7  C   -0.050845
     8  C    0.013862
     9  O   -0.432946
    10  H    0.125008
    11  H    0.127731
    12  H    0.128779
    13  H    0.075222
    14  H    0.091876
    15  H    0.119780
    16  H    0.117409
    17  H    0.101350
    18  H    0.074229
    19  H    0.287099
 Sum of Mulliken charges =   0.00000

 Dipole moment (field-independent basis, Debye):
    X=             -0.1279    Y=              0.3621    Z=             -0.7134  Tot=              0.8102
 Quadrupole moment (field-independent basis, Debye-Ang):
   XX=            -51.3374   YY=            -50.0367   ZZ=            -55.3066
   XY=             -3.9261   XZ=              2.9194   YZ=              4.7364

  Exact polarizability:  87.965  -4.834  75.367   1.813   1.718  64.062
 Approx polarizability: 116.287  -4.091 108.814  -0.782  -1.536 102.460

                      1                      2                      3
                      A                      A                      A
 Frequencies --    103.0773               134.7533               178.3176
 Red. masses --      2.7377                 3.8427                 1.4102
 Frc consts  --      0.0171                 0.0411                 0.0264
 IR Inten    --      5.3008                 1.7924                 2.1850

                      4                      5                      6
                      A                      A                      A
 Frequencies --    196.1636               243.7038               271.3722
 Red. masses --      1.8022                 1.2452                 3.4405
 Frc consts  --      0.0409                 0.0436                 0.1493
 IR Inten    --      0.5205                82.7237                20.2177

                      7                      8                      9
                      A                      A                      A
 Frequencies --    290.7128               431.9809               456.4315
 Red. masses --      2.7931                 3.5995                 3.5145
 Frc consts  --      0.1391                 0.3958                 0.4314
 IR Inten    --     18.5933                 7.6883                 4.6255

                     10                     11                     12
                      A                      A                      A
 Frequencies --    518.6182               546.4913               581.5364
 Red. masses --      3.8746                 3.4354                 5.0078
 Frc consts  --      0.6140                 0.6045                 0.9978
 IR Inten    --      1.2730                 5.2816                 9.6380

                     13                     14                     15
                      A                      A                      A
 Frequencies --    750.5263               789.7490               813.3383
 Red. masses --      2.3371                 1.7407                 3.3707
 Frc consts  --      0.7756                 0.6397                 1.3138
 IR Inten    --      7.7791                17.7963                15.4066

                     16                     17                     18
                      A                      A                      A
 Frequencies --    885.7237               927.8135               940.2856
 Red. masses --      2.1859                 1.8841                 1.9772
 Frc consts  --      1.0103                 0.9556                 1.0300
 IR Inten    --      7.1567                18.7164                 4.0429

                     19                     20                     21
                      A                      A                      A
 Frequencies --    971.4225               973.7816              1002.3890
 Red. masses --      2.0397                 2.6297                 1.6155
 Frc consts  --      1.1341                 1.4692                 0.9564
 IR Inten    --      5.5347                25.1038                29.4949

                     22                     23                     24
                      A                      A                      A
 Frequencies --   1034.6442              1050.7507              1060.5173
 Red. masses --      1.4990                 2.6188                 1.2276
 Frc consts  --      0.9454                 1.7036                 0.8135
 IR Inten    --     18.8239                28.5467                 0.9303

                     25                     26                     27
                      A                      A                      A
 Frequencies --   1089.1684              1121.2389              1132.2359
 Red. masses --      1.3503                 2.3599                 2.7729
 Frc consts  --      0.9438                 1.7480                 2.0944
 IR Inten    --      1.0796                 5.8880                24.9488

                     28                     29                     30
                      A                      A                      A
 Frequencies --   1150.0041              1176.9436              1188.7524
 Red. masses --      2.4325                 1.6059                 1.4757
 Frc consts  --      1.8954                 1.3106                 1.2287
 IR Inten    --     20.2585                19.9265                28.9643

                     31                     32                     33
                      A                      A                      A
 Frequencies --   1217.4313              1275.9545              1299.7491
 Red. masses --      1.5353                 1.6126                 1.4551
 Frc consts  --      1.3407                 1.5469                 1.4483
 IR Inten    --      6.1162                11.2868                16.1531

                     34                     35                     36
                      A                      A                      A
 Frequencies --   1323.8841              1367.5062              1407.5264
 Red. masses --      2.1125                 1.4727                 1.2728
 Frc consts  --      2.1814                 1.6226                 1.4856
 IR Inten    --     18.5043                13.8804                 3.5814

                     37                     38                     39
                      A                      A                      A
 Frequencies --   1427.6698              1474.6597              1490.3472
 Red. masses --      1.5213                 1.1905                 1.0982
 Frc consts  --      1.8269                 1.5254                 1.4371
 IR Inten    --     11.2216                 3.0283                 6.8961

                     40                     41                     42
                      A                      A                      A
 Frequencies --   1493.2196              1527.9391              2992.1497
 Red. masses --      1.1734                 3.0607                 1.0847
 Frc consts  --      1.5416                 4.2100                 5.7216
 IR Inten    --      0.5961                16.6067                60.0049

                     43                     44                     45
                      A                      A                      A
 Frequencies --   3037.4164              3075.9907              3101.2249
 Red. masses --      1.0361                 1.0860                 1.1008
 Frc consts  --      5.6319                 6.0541                 6.2376
 IR Inten    --     18.5116                29.1391                17.2423

                     46                     47                     48
                      A                      A                      A
 Frequencies --   3113.7832              3127.2209              3184.7225
 Red. masses --      1.0565                 1.1010                 1.0933
 Frc consts  --      6.0351                 6.3437                 6.5334
 IR Inten    --     19.0885                24.0766                11.2158

                     49                     50                     51
                      A                      A                      A
 Frequencies --   3202.4022              3215.2943              3823.4969
 Red. masses --      1.1102                 1.0973                 1.0662
 Frc consts  --      6.7083                 6.6839                 9.1835
 IR Inten    --      5.8432                11.2810                21.8086

 - Thermochemistry -
 -------------------
 Temperature   298.150 Kelvin.  Pressure   1.00000 Atm.
 Atom     1 has atomic number  6 and mass  12.00000

 Molecular mass:   126.06808 amu.
 Principal axes and moments of inertia in atomic units:
                           1         2         3
     Eigenvalues --   725.572871225.431451555.22969
           X            0.99906  -0.03037   0.03086
           Y            0.02904   0.99867   0.04272
           Z           -0.03212  -0.04178   0.99861
 This molecule is an asymmetric top.
 Rotational symmetry number  1.
 Warning -- assumption of classical behavior for rotation
           may cause significant error
 Rotational temperatures (Kelvin)      0.11937     0.07068     0.05569
 Rotational constants (GHZ):           2.48733     1.47274     1.16043
 Zero-point vibrational energy     413860.3 (Joules/Mol)
                                   98.91498 (Kcal/Mol)
 Warning -- explicit consideration of  12 degrees of freedom as
           vibrations may cause significant error
 Vibrational temperatures:    148.31   193.88   256.56   282.24   350.63
          (Kelvin)            390.44   418.27   621.52   656.70   746.18
                              786.28   836.70  1079.84  1136.27  1170.21
                             1274.36  1334.92  1352.86  1397.66  1401.05
                             1442.21  1488.62  1511.79  1525.85  1567.07
                             1613.21  1629.03  1654.60  1693.36  1710.35
                             1751.61  1835.81  1870.05  1904.77  1967.53
                             2025.11  2054.10  2121.70  2144.27  2148.41
                             2198.36  4305.03  4370.16  4425.66  4461.97
                             4480.03  4499.37  4582.10  4607.54  4626.09
                             5501.15

 Zero-point correction=                           0.157631 (Hartree/Particle)
 Thermal correction to Energy=                    0.166351
 Thermal correction to Enthalpy=                  0.167295
 Thermal correction to Gibbs Free Energy=         0.124463
 Sum of electronic and zero-point Energies=           -422.973657
 Sum of electronic and thermal Energies=              -422.964936
 Sum of electronic and thermal Enthalpies=            -422.963992
 Sum of electronic and thermal Free Energies=         -423.006824

                     E (Thermal)             CV                S
                      KCal/Mol        Cal/Mol-Kelvin    Cal/Mol-Kelvin
 Total                  104.387             33.280             90.148
 Electronic               0.000              0.000              0.000
 Translational            0.889              2.981             40.409
 Rotational               0.889              2.981             28.716
 Vibrational            102.609             27.319             21.023
 Vibration     1          0.605              1.947              3.395
 Vibration     2          0.613              1.919              2.877
 Vibration     3          0.629              1.869              2.346
 Vibration     4          0.636              1.845              2.169
 Vibration     5          0.659              1.773              1.776
 Vibration     6          0.675              1.726              1.587
 Vibration     7          0.687              1.691              1.470
 Vibration     8          0.793              1.401              0.852
 Vibration     9          0.815              1.347              0.777
 Vibration    10          0.874              1.209              0.613
 Vibration    11          0.902              1.147              0.551
 Vibration    12          0.938              1.071              0.483

 Optimization completed.
    -- Stationary point found.
 Normal termination of Gaussian 09 at Tue Jan 28 02:41:44 2020.
