 Gaussian 09, Revision D.01,
 Gaussian 09:  ES64L-G09RevD.01 24-Apr-2013

 -----------------------------
 # b3lyp 6-31G(2df,p) opt Freq
 -----------------------------

 -----
 titel
 -----
 Symbolic Z-matrix:
 Charge =  0 Multiplicity = 1

 SCF Done:  E(RB3LYP) =  -423.161006904     A.U. after   14 cycles
 Optimization completed.
    -- Stationary point found.
 Normal termination of Gaussian 09 at Mon Jan 27 13:57:19 2020.

 ----------------------------------------------------------------------
 #N Geom=AllCheck Guess=TCheck SCRF=Check GenChk RB3LYP/6-31G(2df,p) Fr
 eq
 ----------------------------------------------------------------------

 Structure from the checkpoint file:  "/scratch/puck/g09_b18308e6-1ae5-483c-99d9-3511b2a3184c/Gau-76320.chk"
 -----
 titel
 -----
 Charge =  0 Multiplicity = 1

                         Standard orientation:
 ---------------------------------------------------------------------
 Center     Atomic      Atomic             Coordinates (Angstroms)
 Number     Number       Type             X           Y           Z
 ---------------------------------------------------------------------
      1          6           0        3.715017   -0.522001    0.044935
      2          6           0        2.302528   -0.171161    0.021257
      3          6           0        1.133550    0.116569   -0.009736
      4          6           0       -0.283915    0.481218   -0.030417
      5          6           0       -0.474534    1.995067   -0.172292
      6          6           0       -1.050197   -0.105916    1.201148
      7          8           0       -2.254345   -0.602924    0.645742
      8          6           0       -1.864596   -1.086801   -0.614436
      9          8           0       -0.959395   -0.146051   -1.144501
     10          1           0        3.937024   -1.237079    0.844579
     11          1           0        4.021954   -0.977699   -0.902858
     12          1           0        4.341364    0.362401    0.205047
     13          1           0        0.054054    2.527081    0.623810
     14          1           0       -0.083756    2.330801   -1.135517
     15          1           0       -1.540864    2.232690   -0.121982
     16          1           0       -0.465226   -0.909910    1.667763
     17          1           0       -1.294596    0.651072    1.948508
     18          1           0       -1.384264   -2.078110   -0.519344
     19          1           0       -2.742888   -1.151307   -1.262691
 ---------------------------------------------------------------------

 SCF Done:  E(RB3LYP) =  -423.161006904     A.U. after    1 cycles

 The electronic state is 1-A.
 Alpha  occ. eigenvalues --  -19.15076 -19.14278 -10.27244 -10.26138 -10.23510
 Alpha  occ. eigenvalues --  -10.20671 -10.17973 -10.17829 -10.16839  -1.08960
 Alpha  occ. eigenvalues --   -0.99460  -0.80767  -0.77045  -0.69957  -0.69629
 Alpha  occ. eigenvalues --   -0.63698  -0.61142  -0.51975  -0.50777  -0.48585
 Alpha  occ. eigenvalues --   -0.45984  -0.45347  -0.42981  -0.42902  -0.41612
 Alpha  occ. eigenvalues --   -0.40194  -0.39342  -0.38039  -0.34407  -0.33566
 Alpha  occ. eigenvalues --   -0.27934  -0.26650  -0.25558  -0.24708
 Alpha virt. eigenvalues --    0.03968   0.05658   0.09950   0.10847   0.11428
 Alpha virt. eigenvalues --    0.13897   0.14119   0.15337   0.16681   0.17048
 Alpha virt. eigenvalues --    0.17707   0.17824   0.18823   0.19851   0.20851

 Mulliken charges:
               1
     1  C   -0.499437
     2  C    0.020352
     3  C    0.116946
     4  C    0.160846
     5  C   -0.421719
     6  C   -0.150241
     7  O   -0.233165
     8  C    0.014039
     9  O   -0.274494
    10  H    0.148966
    11  H    0.153992
    12  H    0.150354
    13  H    0.120004
    14  H    0.134271
    15  H    0.125604
    16  H    0.104620
    17  H    0.122731
    18  H    0.085896
    19  H    0.120435
 Sum of Mulliken charges =   0.00000

 Dipole moment (field-independent basis, Debye):
    X=              1.5827    Y=             -0.0613    Z=              0.7673  Tot=              1.7600
 Quadrupole moment (field-independent basis, Debye-Ang):
   XX=            -48.5850   YY=            -50.8112   ZZ=            -54.0397
   XY=             -1.1244   XZ=              1.7696   YZ=              1.3917

  Exact polarizability: 106.845  -3.978  70.870   3.121   1.688  63.253
 Approx polarizability: 149.701  -8.790  96.646   4.307   2.163  94.478

                      1                      2                      3
                      A                      A                      A
 Frequencies --     21.1285                48.5647               103.2280
 Red. masses --      1.0215                 3.4255                 3.6678
 Frc consts  --      0.0003                 0.0048                 0.0230
 IR Inten    --      0.0159                 0.4827                 0.9138

                      4                      5                      6
                      A                      A                      A
 Frequencies --    118.4752               254.3842               260.1671
 Red. masses --      3.4190                 2.7241                 1.0593
 Frc consts  --      0.0283                 0.1039                 0.0422
 IR Inten    --      2.8006                 6.3064                 0.2844

                      7                      8                      9
                      A                      A                      A
 Frequencies --    289.8014               316.4829               359.3127
 Red. masses --      3.3080                 2.7023                 2.3102
 Frc consts  --      0.1637                 0.1595                 0.1757
 IR Inten    --      2.7555                 5.4202                 0.9805

                     10                     11                     12
                      A                      A                      A
 Frequencies --    370.1926               468.6447               534.6974
 Red. masses --      3.7195                 5.7754                 6.5948
 Frc consts  --      0.3003                 0.7473                 1.1109
 IR Inten    --      5.5732                 0.1691                 0.7078

                     13                     14                     15
                      A                      A                      A
 Frequencies --    581.3600               732.1487               769.1308
 Red. masses --      4.6663                 7.1926                 4.6748
 Frc consts  --      0.9292                 2.2716                 1.6294
 IR Inten    --      7.0262                 1.7179                12.7435

                     16                     17                     18
                      A                      A                      A
 Frequencies --    857.5990               910.9059               955.2383
 Red. masses --      2.6579                 2.4097                 1.7813
 Frc consts  --      1.1518                 1.1781                 0.9577
 IR Inten    --     12.4314                13.6844                14.7996

                     19                     20                     21
                      A                      A                      A
 Frequencies --    979.5331              1047.7148              1051.7040
 Red. masses --      3.6517                 5.2108                 1.5615
 Frc consts  --      2.0644                 3.3701                 1.0176
 IR Inten    --     89.1099                45.1379                 5.9128

                     22                     23                     24
                      A                      A                      A
 Frequencies --   1054.3270              1066.3646              1108.7721
 Red. masses --      1.4080                 2.2322                 3.9756
 Frc consts  --      0.9221                 1.4956                 2.8796
 IR Inten    --      2.7717                 5.4265               148.9887

                     25                     26                     27
                      A                      A                      A
 Frequencies --   1137.0236              1173.1158              1184.0897
 Red. masses --      2.2266                 2.1455                 1.7228
 Frc consts  --      1.6961                 1.7396                 1.4232
 IR Inten    --      0.9015                39.3118                60.7356

                     28                     29                     30
                      A                      A                      A
 Frequencies --   1230.2871              1254.3716              1289.4558
 Red. masses --      1.5030                 2.0260                 1.6982
 Frc consts  --      1.3404                 1.8782                 1.6636
 IR Inten    --      8.8716                 8.2303                40.7232

                     31                     32                     33
                      A                      A                      A
 Frequencies --   1356.9706              1399.1868              1413.7305
 Red. masses --      1.2742                 1.2418                 1.2426
 Frc consts  --      1.3824                 1.4323                 1.4633
 IR Inten    --      2.5458                 4.9780                 7.0131

                     34                     35                     36
                      A                      A                      A
 Frequencies --   1426.3647              1476.8523              1478.1708
 Red. masses --      1.2602                 1.0395                 1.0399
 Frc consts  --      1.5106                 1.3358                 1.3387
 IR Inten    --      9.1165                 6.5245                 5.5824

                     37                     38                     39
                      A                      A                      A
 Frequencies --   1481.7964              1491.3460              1509.6829
 Red. masses --      1.0526                 1.0506                 1.0879
 Frc consts  --      1.3617                 1.3767                 1.4609
 IR Inten    --      1.8715                 1.2036                 2.5170

                     40                     41                     42
                      A                      A                      A
 Frequencies --   1541.3188              2368.0725              2933.9919
 Red. masses --      1.1063                11.8946                 1.0703
 Frc consts  --      1.5485                39.2999                 5.4284
 IR Inten    --      4.7318                12.9410               100.9851

                     43                     44                     45
                      A                      A                      A
 Frequencies --   3013.9520              3028.5099              3044.4318
 Red. masses --      1.0674                 1.0347                 1.0340
 Frc consts  --      5.7126                 5.5915                 5.6464
 IR Inten    --     41.5386                30.3802                11.8343

                     46                     47                     48
                      A                      A                      A
 Frequencies --   3089.9250              3090.8751              3091.3557
 Red. masses --      1.1004                 1.1000                 1.0940
 Frc consts  --      6.1900                 6.1917                 6.1599
 IR Inten    --      9.5379                 9.4714                43.6483

                     49                     50                     51
                      A                      A                      A
 Frequencies --   3115.7462              3123.3084              3132.9562
 Red. masses --      1.0988                 1.1028                 1.1024
 Frc consts  --      6.2847                 6.3381                 6.3751
 IR Inten    --     18.4844                19.9182                16.0073

 - Thermochemistry -
 -------------------
 Temperature   298.150 Kelvin.  Pressure   1.00000 Atm.
 Atom     1 has atomic number  6 and mass  12.00000

 Molecular mass:   126.06808 amu.
 Principal axes and moments of inertia in atomic units:
                           1         2         3
     Eigenvalues --   581.579761876.765752018.24650
           X            0.99989  -0.01389   0.00426
           Y            0.01380   0.99968   0.02124
           Z           -0.00455  -0.02118   0.99977
 This molecule is an asymmetric top.
 Rotational symmetry number  1.
 Warning -- assumption of classical behavior for rotation
           may cause significant error
 Rotational temperatures (Kelvin)      0.14893     0.04615     0.04292
 Rotational constants (GHZ):           3.10317     0.96162     0.89421
 Zero-point vibrational energy     413529.7 (Joules/Mol)
                                   98.83597 (Kcal/Mol)
 Warning -- explicit consideration of  13 degrees of freedom as
           vibrations may cause significant error
 Vibrational temperatures:     30.40    69.87   148.52   170.46   366.00
          (Kelvin)            374.32   416.96   455.35   516.97   532.62
                              674.27   769.31   836.45  1053.40  1106.61
                             1233.89  1310.59  1374.37  1409.33  1507.43
                             1513.17  1516.94  1534.26  1595.27  1635.92
                             1687.85  1703.64  1770.11  1804.76  1855.24
                             1952.38  2013.12  2034.04  2052.22  2124.86
                             2126.76  2131.97  2145.71  2172.09  2217.61
                             3407.12  4221.35  4336.40  4357.34  4380.25
                             4445.71  4447.07  4447.77  4482.86  4493.74
                             4507.62

 Zero-point correction=                           0.157505 (Hartree/Particle)
 Thermal correction to Energy=                    0.167284
 Thermal correction to Enthalpy=                  0.168228
 Thermal correction to Gibbs Free Energy=         0.120982
 Sum of electronic and zero-point Energies=           -423.003502
 Sum of electronic and thermal Energies=              -422.993723
 Sum of electronic and thermal Enthalpies=            -422.992779
 Sum of electronic and thermal Free Energies=         -423.040024

                     E (Thermal)             CV                S
                      KCal/Mol        Cal/Mol-Kelvin    Cal/Mol-Kelvin
 Total                  104.972             34.285             99.437
 Electronic               0.000              0.000              0.000
 Translational            0.889              2.981             40.409
 Rotational               0.889              2.981             29.178
 Vibrational            103.195             28.323             29.850
 Vibration     1          0.593              1.985              6.525
 Vibration     2          0.595              1.978              4.875
 Vibration     3          0.605              1.947              3.392
 Vibration     4          0.609              1.934              3.125
 Vibration     5          0.665              1.755              1.700
 Vibration     6          0.668              1.746              1.661
 Vibration     7          0.686              1.693              1.475
 Vibration     8          0.703              1.642              1.328
 Vibration     9          0.734              1.556              1.125
 Vibration    10          0.742              1.533              1.079
 Vibration    11          0.826              1.320              0.741
 Vibration    12          0.890              1.173              0.577
 Vibration    13          0.938              1.072              0.483

 Optimization completed.
    -- Stationary point found.
 Normal termination of Gaussian 09 at Mon Jan 27 14:34:34 2020.
