 Gaussian 09, Revision D.01,
 Gaussian 09:  ES64L-G09RevD.01 24-Apr-2013

 -----------------------------
 # b3lyp 6-31G(2df,p) opt Freq
 -----------------------------

 -----
 titel
 -----
 Symbolic Z-matrix:
 Charge =  0 Multiplicity = 1

 SCF Done:  E(RB3LYP) =  -423.137931616     A.U. after   14 cycles
 SCF Done:  E(RB3LYP) =  -423.137930976     A.U. after    8 cycles
 SCF Done:  E(RB3LYP) =  -423.137931996     A.U. after    8 cycles
 Optimization completed.
    -- Stationary point found.
 Normal termination of Gaussian 09 at Tue Jan 28 09:27:01 2020.

 ----------------------------------------------------------------------
 #N Geom=AllCheck Guess=TCheck SCRF=Check GenChk RB3LYP/6-31G(2df,p) Fr
 eq
 ----------------------------------------------------------------------

 Structure from the checkpoint file:  "/scratch/puck/g09_be695168-5ca7-4d48-8be7-1b44b1411912/Gau-107402.chk"
 -----
 titel
 -----
 Charge =  0 Multiplicity = 1

                         Standard orientation:
 ---------------------------------------------------------------------
 Center     Atomic      Atomic             Coordinates (Angstroms)
 Number     Number       Type             X           Y           Z
 ---------------------------------------------------------------------
      1          8           0        3.028205   -0.592487    0.001187
      2          6           0        2.289864    0.621020    0.000049
      3          6           0        0.830757    0.270705   -0.000116
      4          6           0       -0.376112    1.257540   -0.004150
      5          6           0       -0.997624   -0.164355   -0.001092
      6          6           0        0.067963   -0.561479    1.075763
      7          6           0        0.070332   -0.567553   -1.073035
      8          6           0       -2.438393   -0.532167   -0.000649
      9          8           0       -3.347339    0.261352    0.001616
     10          1           0        3.964835   -0.374965    0.001884
     11          1           0        2.518544    1.233579    0.887684
     12          1           0        2.518932    1.232193   -0.888450
     13          1           0       -0.527389    1.855312    0.898064
     14          1           0       -0.525276    1.850456   -0.909934
     15          1           0       -0.054560   -0.101321    2.060081
     16          1           0        0.328671   -1.619262    1.148343
     17          1           0        0.331409   -1.625669   -1.139065
     18          1           0       -0.049706   -0.112943   -2.060243
     19          1           0       -2.633107   -1.630563   -0.001407
 ---------------------------------------------------------------------

 SCF Done:  E(RB3LYP) =  -423.137931996     A.U. after    1 cycles

 The electronic state is 1-A.
 Alpha  occ. eigenvalues --  -19.14134 -19.13599 -10.26581 -10.23385 -10.21400
 Alpha  occ. eigenvalues --  -10.21378 -10.19688 -10.19681 -10.19244  -1.04144
 Alpha  occ. eigenvalues --   -1.02218  -0.92275  -0.72672  -0.67675  -0.67572
 Alpha  occ. eigenvalues --   -0.66556  -0.54381  -0.54149  -0.51821  -0.48256
 Alpha  occ. eigenvalues --   -0.46546  -0.45761  -0.44926  -0.43718  -0.39402
 Alpha  occ. eigenvalues --   -0.37015  -0.36043  -0.32925  -0.32792  -0.32224
 Alpha  occ. eigenvalues --   -0.32126  -0.32120  -0.27396  -0.24354
 Alpha virt. eigenvalues --   -0.02450   0.06620   0.09676   0.11667   0.12936
 Alpha virt. eigenvalues --    0.13599   0.14270   0.15350   0.15365   0.16149
 Alpha virt. eigenvalues --    0.16489   0.16571   0.17604   0.19159   0.22732

 Mulliken charges:
               1
     1  O   -0.421931
     2  C   -0.218348
     3  C    0.358857
     4  C   -0.314183
     5  C    0.246943
     6  C   -0.292680
     7  C   -0.292798
     8  C    0.031693
     9  O   -0.249569
    10  H    0.290846
    11  H    0.089980
    12  H    0.089973
    13  H    0.099986
    14  H    0.099895
    15  H    0.098642
    16  H    0.107896
    17  H    0.107896
    18  H    0.098546
    19  H    0.068358
 Sum of Mulliken charges =   0.00000

 Dipole moment (field-independent basis, Debye):
    X=              3.4360    Y=              0.0239    Z=             -0.0020  Tot=              3.4360
 Quadrupole moment (field-independent basis, Debye-Ang):
   XX=            -57.9567   YY=            -52.7659   ZZ=            -51.9767
   XY=              6.5023   XZ=              0.0152   YZ=             -0.0002

  Exact polarizability:  92.980  -0.772  74.578  -0.001   0.006  66.594
 Approx polarizability: 124.317  -8.729 115.898  -0.002   0.018 101.856

                      1                      2                      3
                      A                      A                      A
 Frequencies --     62.9699                93.9114               116.1834
 Red. masses --      6.2603                 3.1699                 5.5199
 Frc consts  --      0.0146                 0.0165                 0.0439
 IR Inten    --      5.2614                 0.2753                 4.9549

                      4                      5                      6
                      A                      A                      A
 Frequencies --    205.5338               212.9548               255.7124
 Red. masses --      5.4018                 1.6514                 1.2587
 Frc consts  --      0.1344                 0.0441                 0.0485
 IR Inten    --      3.7122                38.8432                67.2858

                      7                      8                      9
                      A                      A                      A
 Frequencies --    352.0670               416.8342               449.7522
 Red. masses --      2.0703                 4.0300                 4.7429
 Frc consts  --      0.1512                 0.4126                 0.5652
 IR Inten    --      3.9754                 7.2680                 6.2547

                     10                     11                     12
                      A                      A                      A
 Frequencies --    536.3021               554.7119               655.3732
 Red. masses --      1.7902                 2.0712                 3.1584
 Frc consts  --      0.3034                 0.3755                 0.7993
 IR Inten    --      0.1417                 0.3164                 6.0064

                     13                     14                     15
                      A                      A                      A
 Frequencies --    715.3084               757.0292               859.2147
 Red. masses --      3.4280                 2.9563                 2.8259
 Frc consts  --      1.0334                 0.9982                 1.2291
 IR Inten    --     25.9923                 0.5425                 7.6805

                     16                     17                     18
                      A                      A                      A
 Frequencies --    913.1611               927.6613               962.8469
 Red. masses --      2.3506                 4.4756                 1.2524
 Frc consts  --      1.1548                 2.2692                 0.6841
 IR Inten    --      0.1478                 1.6029                 0.0000

                     19                     20                     21
                      A                      A                      A
 Frequencies --    993.7142              1020.9296              1036.8308
 Red. masses --      1.0123                 1.4063                 3.9356
 Frc consts  --      0.5890                 0.8636                 2.4927
 IR Inten    --      0.0266                 0.1383                16.2847

                     22                     23                     24
                      A                      A                      A
 Frequencies --   1074.8431              1082.3565              1103.8847
 Red. masses --      3.1572                 1.8921                 1.8266
 Frc consts  --      2.1490                 1.3060                 1.3115
 IR Inten    --     13.0521                 0.0471                58.5909

                     25                     26                     27
                      A                      A                      A
 Frequencies --   1129.6788              1138.7790              1148.4502
 Red. masses --      1.3745                 1.4785                 1.4220
 Frc consts  --      1.0335                 1.1297                 1.1050
 IR Inten    --      0.1458                 1.7763                 3.2619

                     28                     29                     30
                      A                      A                      A
 Frequencies --   1166.2663              1171.1489              1173.7695
 Red. masses --      1.4965                 1.7856                 1.8848
 Frc consts  --      1.1993                 1.4429                 1.5300
 IR Inten    --      0.1033                14.7736                 2.9056

                     31                     32                     33
                      A                      A                      A
 Frequencies --   1251.7785              1276.0933              1298.7900
 Red. masses --      1.3503                 1.2394                 2.7335
 Frc consts  --      1.2466                 1.1891                 2.7167
 IR Inten    --     57.7116                 0.0074                 4.8500

                     34                     35                     36
                      A                      A                      A
 Frequencies --   1346.9850              1420.9473              1467.3401
 Red. masses --      2.6272                 1.2809                 1.6672
 Frc consts  --      2.8085                 1.5237                 2.1149
 IR Inten    --     27.7592                15.5481                 5.5614

                     37                     38                     39
                      A                      A                      A
 Frequencies --   1496.0217              1498.2855              1511.8379
 Red. masses --      1.0935                 1.0969                 1.0801
 Frc consts  --      1.4420                 1.4508                 1.4546
 IR Inten    --      0.3410                 0.7091                 3.1571

                     40                     41                     42
                      A                      A                      A
 Frequencies --   1558.4769              1815.5501              2854.4393
 Red. masses --      1.2597                10.8462                 1.0815
 Frc consts  --      1.8027                21.0641                 5.1918
 IR Inten    --      3.0773               188.8553               129.4595

                     43                     44                     45
                      A                      A                      A
 Frequencies --   2960.3613              2988.9890              3054.0291
 Red. masses --      1.0546                 1.1059                 1.0538
 Frc consts  --      5.4456                 5.8213                 5.7911
 IR Inten    --     54.4480                49.0294                59.7500

                     46                     47                     48
                      A                      A                      A
 Frequencies --   3054.8286              3063.3279              3123.2903
 Red. masses --      1.0544                 1.0557                 1.1122
 Frc consts  --      5.7973                 5.8367                 6.3920
 IR Inten    --     37.7735                 3.0779                 8.0374

                     49                     50                     51
                      A                      A                      A
 Frequencies --   3128.2567              3131.5759              3831.8664
 Red. masses --      1.1114                 1.1100                 1.0664
 Frc consts  --      6.4082                 6.4135                 9.2256
 IR Inten    --     32.8614                42.1024                23.5712

 - Thermochemistry -
 -------------------
 Temperature   298.150 Kelvin.  Pressure   1.00000 Atm.
 Atom     1 has atomic number  8 and mass  15.99491

 Molecular mass:   126.06808 amu.
 Principal axes and moments of inertia in atomic units:
                           1         2         3
     Eigenvalues --   366.919682001.734882067.73601
           X            0.99991   0.01306   0.00001
           Y           -0.01306   0.99991   0.00003
           Z           -0.00001  -0.00003   1.00000
 This molecule is an asymmetric top.
 Rotational symmetry number  1.
 Rotational temperatures (Kelvin)      0.23606     0.04327     0.04189
 Rotational constants (GHZ):           4.91863     0.90159     0.87281
 Zero-point vibrational energy     415231.3 (Joules/Mol)
                                   99.24266 (Kcal/Mol)
 Warning -- explicit consideration of  11 degrees of freedom as
           vibrations may cause significant error
 Vibrational temperatures:     90.60   135.12   167.16   295.72   306.39
          (Kelvin)            367.91   506.55   599.73   647.09   771.62
                              798.11   942.93  1029.17  1089.19  1236.22
                             1313.83  1334.70  1385.32  1429.73  1468.89
                             1491.77  1546.46  1557.27  1588.24  1625.35
                             1638.45  1652.36  1677.99  1685.02  1688.79
                             1801.03  1836.01  1868.67  1938.01  2044.42
                             2111.17  2152.44  2155.70  2175.19  2242.30
                             2612.17  4106.90  4259.29  4300.48  4394.06
                             4395.21  4407.44  4493.71  4500.86  4505.63
                             5513.19

 Zero-point correction=                           0.158153 (Hartree/Particle)
 Thermal correction to Energy=                    0.167035
 Thermal correction to Enthalpy=                  0.167979
 Thermal correction to Gibbs Free Energy=         0.124052
 Sum of electronic and zero-point Energies=           -422.979779
 Sum of electronic and thermal Energies=              -422.970897
 Sum of electronic and thermal Enthalpies=            -422.969953
 Sum of electronic and thermal Free Energies=         -423.013880

                     E (Thermal)             CV                S
                      KCal/Mol        Cal/Mol-Kelvin    Cal/Mol-Kelvin
 Total                  104.816             32.733             92.453
 Electronic               0.000              0.000              0.000
 Translational            0.889              2.981             40.409
 Rotational               0.889              2.981             28.809
 Vibrational            103.039             26.771             23.236
 Vibration     1          0.597              1.972              4.362
 Vibration     2          0.603              1.954              3.577
 Vibration     3          0.608              1.936              3.163
 Vibration     4          0.640              1.832              2.083
 Vibration     5          0.644              1.821              2.018
 Vibration     6          0.666              1.753              1.691
 Vibration     7          0.729              1.571              1.157
 Vibration     8          0.780              1.434              0.903
 Vibration     9          0.809              1.361              0.797
 Vibration    10          0.891              1.170              0.573
 Vibration    11          0.910              1.129              0.534

 Normal termination of Gaussian 09 at Tue Jan 28 10:05:19 2020.
