 Gaussian 09, Revision D.01,
 Gaussian 09:  ES64L-G09RevD.01 24-Apr-2013

 -----------------------------
 # b3lyp 6-31G(2df,p) opt Freq
 -----------------------------

 -----
 titel
 -----
 Symbolic Z-matrix:
 Charge =  0 Multiplicity = 1

 SCF Done:  E(RB3LYP) =  -423.109463958     A.U. after   13 cycles
 Optimization completed.
    -- Stationary point found.
 Normal termination of Gaussian 09 at Tue Jan 28 14:05:38 2020.

 ----------------------------------------------------------------------
 #N Geom=AllCheck Guess=TCheck SCRF=Check GenChk RB3LYP/6-31G(2df,p) Fr
 eq
 ----------------------------------------------------------------------

 Structure from the checkpoint file:  "/scratch/puck/g09_108030f6-95e4-442f-acef-e54c090e068f/Gau-122917.chk"
 -----
 titel
 -----
 Charge =  0 Multiplicity = 1

                         Standard orientation:
 ---------------------------------------------------------------------
 Center     Atomic      Atomic             Coordinates (Angstroms)
 Number     Number       Type             X           Y           Z
 ---------------------------------------------------------------------
      1          6           0       -0.018010    2.250121   -0.053986
      2          6           0       -0.392471    0.804735    0.088600
      3          6           0       -1.447484    0.104321   -0.793668
      4          8           0       -1.179957   -1.297830   -0.802957
      5          6           0       -0.886282   -1.155436    0.620409
      6          6           0       -1.671460    0.204924    0.676829
      7          6           0        0.446859   -0.358649    0.650426
      8          6           0        1.647784   -0.900276   -0.112942
      9          8           0        2.747068    0.006747   -0.104059
     10          1           0        0.382605    2.653682    0.882425
     11          1           0        0.739587    2.400938   -0.832778
     12          1           0       -0.887111    2.857196   -0.331438
     13          1           0       -1.941343    0.553740   -1.645695
     14          1           0       -1.054893   -2.066623    1.190507
     15          1           0       -2.460924    0.605987    1.297362
     16          1           0        0.723907   -0.134584    1.686637
     17          1           0        2.013059   -1.812831    0.372903
     18          1           0        1.349463   -1.168366   -1.134052
     19          1           0        2.525148    0.741087   -0.683756
 ---------------------------------------------------------------------

 SCF Done:  E(RB3LYP) =  -423.109463958     A.U. after    1 cycles

 The electronic state is 1-A.
 Alpha  occ. eigenvalues --  -19.13792 -19.12976 -10.24531 -10.24040 -10.21714
 Alpha  occ. eigenvalues --  -10.20439 -10.19525 -10.19120 -10.18915  -1.06238
 Alpha  occ. eigenvalues --   -1.00871  -0.86465  -0.75156  -0.72789  -0.67285
 Alpha  occ. eigenvalues --   -0.61598  -0.55146  -0.54359  -0.51239  -0.50239
 Alpha  occ. eigenvalues --   -0.45956  -0.44993  -0.43126  -0.41689  -0.40748
 Alpha  occ. eigenvalues --   -0.39682  -0.38569  -0.35398  -0.33513  -0.32183
 Alpha  occ. eigenvalues --   -0.29972  -0.27529  -0.24877  -0.22866
 Alpha virt. eigenvalues --    0.05724   0.08162   0.09667   0.11399   0.12708
 Alpha virt. eigenvalues --    0.13042   0.13661   0.15329   0.15630   0.16757
 Alpha virt. eigenvalues --    0.16812   0.17984   0.19700   0.20317   0.21430

 Mulliken charges:
               1
     1  C   -0.509676
     2  C    0.268543
     3  C    0.047429
     4  O   -0.293631
     5  C    0.033738
     6  C   -0.196047
     7  C   -0.051235
     8  C   -0.106074
     9  O   -0.422018
    10  H    0.129927
    11  H    0.112575
    12  H    0.121854
    13  H    0.106990
    14  H    0.085868
    15  H    0.099592
    16  H    0.079609
    17  H    0.104114
    18  H    0.105521
    19  H    0.282922
 Sum of Mulliken charges =   0.00000

 Dipole moment (field-independent basis, Debye):
    X=             -1.3422    Y=              1.7333    Z=              0.4319  Tot=              2.2344
 Quadrupole moment (field-independent basis, Debye-Ang):
   XX=            -59.0838   YY=            -51.5901   ZZ=            -51.4641
   XY=             -1.3154   XZ=             -2.8122   YZ=             -4.1528

  Exact polarizability:  77.313   0.038  78.043   0.363  -3.623  66.315
 Approx polarizability: 108.112   2.355 111.562   1.970  -3.205 106.989

                      1                      2                      3
                      A                      A                      A
 Frequencies --     68.2924               134.7757               204.0290
 Red. masses --      2.9317                 3.2017                 1.3087
 Frc consts  --      0.0081                 0.0343                 0.0321
 IR Inten    --      3.7117                 0.3068                 1.2332

                      4                      5                      6
                      A                      A                      A
 Frequencies --    217.1871               257.8056               266.0416
 Red. masses --      1.8030                 1.3318                 2.8429
 Frc consts  --      0.0501                 0.0522                 0.1186
 IR Inten    --     22.3453                60.5194                 1.7795

                      7                      8                      9
                      A                      A                      A
 Frequencies --    308.8113               388.0590               541.8404
 Red. masses --      2.2050                 4.6884                 5.0656
 Frc consts  --      0.1239                 0.4160                 0.8762
 IR Inten    --     42.3190                 0.4082                 3.1299

                     10                     11                     12
                      A                      A                      A
 Frequencies --    570.3608               657.9306               741.9690
 Red. masses --      2.8425                 2.9103                 4.8770
 Frc consts  --      0.5448                 0.7422                 1.5819
 IR Inten    --      2.1939                16.0521                 4.5893

                     13                     14                     15
                      A                      A                      A
 Frequencies --    763.9465               798.6593               818.2615
 Red. masses --      2.5786                 2.3317                 1.4476
 Frc consts  --      0.8866                 0.8763                 0.5711
 IR Inten    --      0.3232                15.4199                 7.3301

                     16                     17                     18
                      A                      A                      A
 Frequencies --    879.8613               899.1987               921.8348
 Red. masses --      2.1248                 2.6827                 1.8384
 Frc consts  --      0.9692                 1.2780                 0.9204
 IR Inten    --      1.2436                16.9534                 4.6048

                     19                     20                     21
                      A                      A                      A
 Frequencies --    964.0841               981.6939              1005.1206
 Red. masses --      2.4170                 3.1270                 1.5632
 Frc consts  --      1.3236                 1.7756                 0.9305
 IR Inten    --     20.4201                22.5168                30.3959

                     22                     23                     24
                      A                      A                      A
 Frequencies --   1035.3795              1057.9349              1071.7925
 Red. masses --      1.7938                 4.7380                 2.1005
 Frc consts  --      1.1330                 3.1244                 1.4217
 IR Inten    --      4.2555                81.4025                21.3856

                     25                     26                     27
                      A                      A                      A
 Frequencies --   1103.6772              1116.9929              1147.8856
 Red. masses --      1.7981                 2.8730                 1.5788
 Frc consts  --      1.2905                 2.1120                 1.2257
 IR Inten    --      7.1695                 3.4453                 1.2270

                     28                     29                     30
                      A                      A                      A
 Frequencies --   1163.5691              1199.6704              1202.8272
 Red. masses --      1.9566                 1.5322                 1.3435
 Frc consts  --      1.5608                 1.2992                 1.1453
 IR Inten    --      2.0128                 3.3724                 5.2133

                     31                     32                     33
                      A                      A                      A
 Frequencies --   1234.7518              1280.0535              1294.3789
 Red. masses --      1.5759                 2.1792                 1.6483
 Frc consts  --      1.4156                 2.1038                 1.6271
 IR Inten    --      1.3301                 6.1101                 9.7205

                     34                     35                     36
                      A                      A                      A
 Frequencies --   1344.7762              1391.9420              1411.0795
 Red. masses --      1.7374                 1.3017                 1.4322
 Frc consts  --      1.8512                 1.4860                 1.6802
 IR Inten    --      0.0898                17.2853                19.7169

                     37                     38                     39
                      A                      A                      A
 Frequencies --   1415.4335              1428.1352              1489.3530
 Red. masses --      1.3120                 2.3372                 1.0476
 Frc consts  --      1.5487                 2.8085                 1.3691
 IR Inten    --     10.1324                 1.8134                 5.6562

                     40                     41                     42
                      A                      A                      A
 Frequencies --   1494.1353              1506.2110              3018.6416
 Red. masses --      1.0591                 1.0846                 1.0364
 Frc consts  --      1.3930                 1.4497                 5.5642
 IR Inten    --      4.9790                 1.2501                35.8983

                     43                     44                     45
                      A                      A                      A
 Frequencies --   3023.4558              3051.3003              3072.3895
 Red. masses --      1.0575                 1.0868                 1.1038
 Frc consts  --      5.6958                 5.9618                 6.1388
 IR Inten    --     31.4101                11.2418                38.6644

                     46                     47                     48
                      A                      A                      A
 Frequencies --   3076.2818              3090.3218              3144.3899
 Red. masses --      1.0990                 1.1009                 1.0924
 Frc consts  --      6.1275                 6.1945                 6.3635
 IR Inten    --     29.3570                19.4875                35.3945

                     49                     50                     51
                      A                      A                      A
 Frequencies --   3197.8407              3212.5869              3831.2496
 Red. masses --      1.0900                 1.1028                 1.0662
 Frc consts  --      6.5675                 6.7062                 9.2212
 IR Inten    --     13.2880                10.7300                11.2951

 - Thermochemistry -
 -------------------
 Temperature   298.150 Kelvin.  Pressure   1.00000 Atm.
 Atom     1 has atomic number  6 and mass  12.00000

 Molecular mass:   126.06808 amu.
 Principal axes and moments of inertia in atomic units:
                           1         2         3
     Eigenvalues --   714.962641139.248251528.40231
           X            0.99949  -0.03003  -0.01049
           Y            0.02972   0.99913  -0.02915
           Z            0.01136   0.02882   0.99952
 This molecule is an asymmetric top.
 Rotational symmetry number  1.
 Warning -- assumption of classical behavior for rotation
           may cause significant error
 Rotational temperatures (Kelvin)      0.12114     0.07603     0.05667
 Rotational constants (GHZ):           2.52425     1.58415     1.18080
 Zero-point vibrational energy     415691.5 (Joules/Mol)
                                   99.35266 (Kcal/Mol)
 Warning -- explicit consideration of  10 degrees of freedom as
           vibrations may cause significant error
 Vibrational temperatures:     98.26   193.91   293.55   312.48   370.92
          (Kelvin)            382.77   444.31   558.33   779.59   820.62
                              946.61  1067.53  1099.15  1149.09  1177.29
                             1265.92  1293.74  1326.31  1387.10  1412.44
                             1446.14  1489.68  1522.13  1542.07  1587.94
                             1607.10  1651.55  1674.11  1726.06  1730.60
                             1776.53  1841.71  1862.32  1934.83  2002.69
                             2030.23  2036.49  2054.77  2142.84  2149.72
                             2167.10  4343.15  4350.07  4390.14  4420.48
                             4426.08  4446.28  4524.07  4600.97  4622.19
                             5512.31

 Zero-point correction=                           0.158329 (Hartree/Particle)
 Thermal correction to Energy=                    0.166810
 Thermal correction to Enthalpy=                  0.167755
 Thermal correction to Gibbs Free Energy=         0.125162
 Sum of electronic and zero-point Energies=           -422.951135
 Sum of electronic and thermal Energies=              -422.942654
 Sum of electronic and thermal Enthalpies=            -422.941709
 Sum of electronic and thermal Free Energies=         -422.984302

                     E (Thermal)             CV                S
                      KCal/Mol        Cal/Mol-Kelvin    Cal/Mol-Kelvin
 Total                  104.675             32.367             89.644
 Electronic               0.000              0.000              0.000
 Translational            0.889              2.981             40.409
 Rotational               0.889              2.981             28.611
 Vibrational            102.898             26.405             20.624
 Vibration     1          0.598              1.969              4.202
 Vibration     2          0.613              1.919              2.877
 Vibration     3          0.640              1.834              2.096
 Vibration     4          0.646              1.815              1.982
 Vibration     5          0.667              1.750              1.677
 Vibration     6          0.672              1.735              1.622
 Vibration     7          0.698              1.657              1.369
 Vibration     8          0.756              1.496              1.008
 Vibration     9          0.897              1.158              0.561
 Vibration    10          0.926              1.095              0.504

 Optimization completed.
    -- Stationary point found.
 Normal termination of Gaussian 09 at Tue Jan 28 14:47:46 2020.
