 Gaussian 09, Revision D.01,
 Gaussian 09:  ES64L-G09RevD.01 24-Apr-2013

 -----------------------------
 # b3lyp 6-31G(2df,p) opt Freq
 -----------------------------

 -----
 titel
 -----
 Symbolic Z-matrix:
 Charge =  0 Multiplicity = 1

 SCF Done:  E(RB3LYP) =  -423.162518721     A.U. after   13 cycles
 Optimization completed.
    -- Stationary point found.
 Normal termination of Gaussian 09 at Mon Jan 27 23:49:20 2020.

 ----------------------------------------------------------------------
 #N Geom=AllCheck Guess=TCheck SCRF=Check GenChk RB3LYP/6-31G(2df,p) Fr
 eq
 ----------------------------------------------------------------------

 Structure from the checkpoint file:  "/scratch/puck/g09_c14ab008-f307-44a3-b144-856480f9162f/Gau-104221.chk"
 -----
 titel
 -----
 Charge =  0 Multiplicity = 1

                         Standard orientation:
 ---------------------------------------------------------------------
 Center     Atomic      Atomic             Coordinates (Angstroms)
 Number     Number       Type             X           Y           Z
 ---------------------------------------------------------------------
      1          8           0       -2.658850    0.348787   -0.147040
      2          6           0       -1.297012    0.182562   -0.479244
      3          6           0       -0.297151    0.967160    0.440574
      4          6           0        0.948842    1.568865   -0.251404
      5          6           0        2.051295    0.471460   -0.228260
      6          6           0        1.378122   -0.794284    0.292973
      7          8           0        0.548384   -1.443474   -0.714000
      8          6           0       -0.666554   -1.145709    0.004084
      9          6           0        0.131019   -0.387160    1.099327
     10          1           0       -2.760877    0.213890    0.801695
     11          1           0       -1.216329    0.364980   -1.554365
     12          1           0       -0.818164    1.685291    1.078081
     13          1           0        0.707528    1.882839   -1.271270
     14          1           0        1.289784    2.463821    0.277037
     15          1           0        2.497256    0.290871   -1.210535
     16          1           0        2.864993    0.752219    0.450246
     17          1           0        2.071043   -1.515736    0.738874
     18          1           0       -1.316236   -2.015771    0.135842
     19          1           0        0.073367   -0.542279    2.174433
 ---------------------------------------------------------------------

 SCF Done:  E(RB3LYP) =  -423.162518721     A.U. after    1 cycles

 The electronic state is 1-A.
 Alpha  occ. eigenvalues --  -19.14073 -19.13221 -10.23211 -10.22739 -10.22643
 Alpha  occ. eigenvalues --  -10.18939 -10.18836 -10.18421 -10.18165  -1.04223
 Alpha  occ. eigenvalues --   -1.01995  -0.83258  -0.77054  -0.70334  -0.65344
 Alpha  occ. eigenvalues --   -0.62762  -0.56914  -0.52904  -0.52429  -0.48844
 Alpha  occ. eigenvalues --   -0.46212  -0.45399  -0.44541  -0.40354  -0.39029
 Alpha  occ. eigenvalues --   -0.38686  -0.35935  -0.34716  -0.33501  -0.32215
 Alpha  occ. eigenvalues --   -0.29425  -0.28660  -0.26922  -0.23640
 Alpha virt. eigenvalues --    0.05819   0.07549   0.08337   0.11774   0.13013
 Alpha virt. eigenvalues --    0.13721   0.13999   0.14524   0.16526   0.17299
 Alpha virt. eigenvalues --    0.17861   0.18572   0.20312   0.21620   0.23208

 Mulliken charges:
               1
     1  O   -0.431816
     2  C    0.120280
     3  C   -0.063845
     4  C   -0.233345
     5  C   -0.223848
     6  C    0.134243
     7  O   -0.314863
     8  C    0.067371
     9  C   -0.139080
    10  H    0.280098
    11  H    0.093073
    12  H    0.068621
    13  H    0.109362
    14  H    0.100633
    15  H    0.115087
    16  H    0.098947
    17  H    0.072678
    18  H    0.074609
    19  H    0.071795
 Sum of Mulliken charges =   0.00000

 Dipole moment (field-independent basis, Debye):
    X=              0.8904    Y=              0.7572    Z=              2.3258  Tot=              2.6030
 Quadrupole moment (field-independent basis, Debye-Ang):
   XX=            -54.8018   YY=            -54.7858   ZZ=            -51.4949
   XY=              2.3085   XZ=             -2.7668   YZ=             -1.8635

  Exact polarizability:  82.790   1.969  71.366  -0.470  -1.414  65.583
 Approx polarizability: 113.056   1.209 102.315  -0.082   1.061 104.276

                      1                      2                      3
                      A                      A                      A
 Frequencies --     66.5963               199.7739               264.1531
 Red. masses --      2.3795                 2.7947                 1.2011
 Frc consts  --      0.0062                 0.0657                 0.0494
 IR Inten    --      0.5962                 3.0208                47.7602

                      4                      5                      6
                      A                      A                      A
 Frequencies --    302.4500               332.7406               350.0978
 Red. masses --      3.5303                 2.7776                 3.2836
 Frc consts  --      0.1903                 0.1812                 0.2371
 IR Inten    --      6.2006                24.8520                19.0240

                      7                      8                      9
                      A                      A                      A
 Frequencies --    455.1867               648.7642               682.9601
 Red. masses --      5.7225                 4.3051                 4.0915
 Frc consts  --      0.6986                 1.0676                 1.1244
 IR Inten    --      2.0138                 1.3213                10.5018

                     10                     11                     12
                      A                      A                      A
 Frequencies --    734.0474               770.3587               820.2424
 Red. masses --      3.6843                 1.6803                 1.7926
 Frc consts  --      1.1696                 0.5875                 0.7106
 IR Inten    --      0.3062                 1.1333                 1.0098

                     13                     14                     15
                      A                      A                      A
 Frequencies --    847.7065               869.9594               892.4494
 Red. masses --      2.2654                 2.0744                 3.1323
 Frc consts  --      0.9592                 0.9250                 1.4699
 IR Inten    --     19.9820                 1.7732                 6.2840

                     16                     17                     18
                      A                      A                      A
 Frequencies --    919.7726               938.6883               974.9206
 Red. masses --      2.1998                 3.0932                 2.0221
 Frc consts  --      1.0965                 1.6058                 1.1324
 IR Inten    --     15.7283                10.1328                 3.6831

                     19                     20                     21
                      A                      A                      A
 Frequencies --    998.8412              1006.1808              1033.6763
 Red. masses --      2.8266                 2.8366                 2.4355
 Frc consts  --      1.6615                 1.6920                 1.5332
 IR Inten    --     39.1718                10.8950                16.2557

                     22                     23                     24
                      A                      A                      A
 Frequencies --   1063.4571              1064.6026              1102.4685
 Red. masses --      2.8866                 1.8360                 3.1576
 Frc consts  --      1.9235                 1.2260                 2.2612
 IR Inten    --     48.2203                 2.2862                93.5435

                     25                     26                     27
                      A                      A                      A
 Frequencies --   1139.2332              1168.0683              1197.8665
 Red. masses --      1.3709                 1.6000                 2.0821
 Frc consts  --      1.0483                 1.2862                 1.7602
 IR Inten    --     19.5511                 1.2040                 5.3711

                     28                     29                     30
                      A                      A                      A
 Frequencies --   1210.5067              1223.4968              1237.1844
 Red. masses --      1.4551                 1.5434                 1.2741
 Frc consts  --      1.2562                 1.3613                 1.1490
 IR Inten    --      4.5063                 1.7834                 2.2801

                     31                     32                     33
                      A                      A                      A
 Frequencies --   1261.1121              1263.4676              1271.3464
 Red. masses --      1.3809                 1.5606                 1.3087
 Frc consts  --      1.2939                 1.4679                 1.2463
 IR Inten    --      0.0124                 4.4013                 1.1081

                     34                     35                     36
                      A                      A                      A
 Frequencies --   1287.8121              1318.4461              1340.2101
 Red. masses --      1.3780                 1.5864                 1.5740
 Frc consts  --      1.3465                 1.6247                 1.6657
 IR Inten    --      1.4422                 1.0693                 2.8717

                     37                     38                     39
                      A                      A                      A
 Frequencies --   1344.0917              1360.9325              1415.2923
 Red. masses --      1.4505                 1.4809                 1.2757
 Frc consts  --      1.5440                 1.6160                 1.5056
 IR Inten    --      7.2363                 6.5851                65.7689

                     40                     41                     42
                      A                      A                      A
 Frequencies --   1472.4598              1500.6243              3036.5568
 Red. masses --      1.0813                 1.0899                 1.0697
 Frc consts  --      1.3813                 1.4460                 5.8112
 IR Inten    --      1.3534                 3.5872                 3.1601

                     43                     44                     45
                      A                      A                      A
 Frequencies --   3049.8841              3056.5304              3069.0978
 Red. masses --      1.0721                 1.0714                 1.0882
 Frc consts  --      5.8755                 5.8974                 6.0394
 IR Inten    --     63.3833                59.0841                60.5784

                     46                     47                     48
                      A                      A                      A
 Frequencies --   3077.2624              3080.4370              3086.5897
 Red. masses --      1.0935                 1.0885                 1.0943
 Frc consts  --      6.1008                 6.0855                 6.1424
 IR Inten    --     16.8940                23.3971                10.0151

                     49                     50                     51
                      A                      A                      A
 Frequencies --   3102.0261              3135.0819              3797.7705
 Red. masses --      1.1027                 1.0921                 1.0659
 Frc consts  --      6.2517                 6.3243                 9.0576
 IR Inten    --     36.4460                29.8696                12.7930

 - Thermochemistry -
 -------------------
 Temperature   298.150 Kelvin.  Pressure   1.00000 Atm.
 Atom     1 has atomic number  8 and mass  15.99491

 Molecular mass:   126.06808 amu.
 Principal axes and moments of inertia in atomic units:
                           1         2         3
     Eigenvalues --   598.196101088.573291377.23263
           X            0.99943   0.03230  -0.00949
           Y           -0.03262   0.99885  -0.03517
           Z            0.00834   0.03546   0.99934
 This molecule is an asymmetric top.
 Rotational symmetry number  1.
 Warning -- assumption of classical behavior for rotation
           may cause significant error
 Rotational temperatures (Kelvin)      0.14479     0.07957     0.06289
 Rotational constants (GHZ):           3.01697     1.65790     1.31041
 Zero-point vibrational energy     423738.1 (Joules/Mol)
                                  101.27584 (Kcal/Mol)
 Warning -- explicit consideration of   7 degrees of freedom as
           vibrations may cause significant error
 Vibrational temperatures:     95.82   287.43   380.06   435.16   478.74
          (Kelvin)            503.71   654.91   933.43   982.63  1056.13
                             1108.37  1180.14  1219.66  1251.68  1284.03
                             1323.35  1350.56  1402.69  1437.11  1447.67
                             1487.23  1530.08  1531.72  1586.20  1639.10
                             1680.59  1723.46  1741.65  1760.34  1780.03
                             1814.46  1817.85  1829.18  1852.87  1896.95
                             1928.26  1933.85  1958.08  2036.29  2118.54
                             2159.06  4368.92  4388.10  4397.66  4415.74
                             4427.49  4432.06  4440.91  4463.12  4510.68
                             5464.14

 Zero-point correction=                           0.161393 (Hartree/Particle)
 Thermal correction to Energy=                    0.168703
 Thermal correction to Enthalpy=                  0.169647
 Thermal correction to Gibbs Free Energy=         0.129492
 Sum of electronic and zero-point Energies=           -423.001125
 Sum of electronic and thermal Energies=              -422.993816
 Sum of electronic and thermal Enthalpies=            -422.992872
 Sum of electronic and thermal Free Energies=         -423.033027

                     E (Thermal)             CV                S
                      KCal/Mol        Cal/Mol-Kelvin    Cal/Mol-Kelvin
 Total                  105.863             29.220             84.514
 Electronic               0.000              0.000              0.000
 Translational            0.889              2.981             40.409
 Rotational               0.889              2.981             28.285
 Vibrational            104.085             23.258             15.820
 Vibration     1          0.598              1.970              4.252
 Vibration     2          0.638              1.840              2.135
 Vibration     3          0.671              1.739              1.634
 Vibration     4          0.694              1.669              1.403
 Vibration     5          0.715              1.610              1.247
 Vibration     6          0.727              1.575              1.166
 Vibration     7          0.814              1.349              0.780

 Optimization completed.
    -- Stationary point found.
 Normal termination of Gaussian 09 at Tue Jan 28 00:35:55 2020.
