 Gaussian 09, Revision D.01,
 Gaussian 09:  ES64L-G09RevD.01 24-Apr-2013

 -----------------------------
 # b3lyp 6-31G(2df,p) opt Freq
 -----------------------------

 -----
 titel
 -----
 Symbolic Z-matrix:
 Charge =  0 Multiplicity = 1

 SCF Done:  E(RB3LYP) =  -423.161622897     A.U. after   15 cycles
 Optimization completed.
    -- Stationary point found.
 Normal termination of Gaussian 09 at Mon Jan 27 13:58:23 2020.

 ----------------------------------------------------------------------
 #N Geom=AllCheck Guess=TCheck SCRF=Check GenChk RB3LYP/6-31G(2df,p) Fr
 eq
 ----------------------------------------------------------------------

 Structure from the checkpoint file:  "/scratch/puck/g09_01f56a4f-598b-40c4-9d9e-2b92c51046e0/Gau-157968.chk"
 -----
 titel
 -----
 Charge =  0 Multiplicity = 1

                         Standard orientation:
 ---------------------------------------------------------------------
 Center     Atomic      Atomic             Coordinates (Angstroms)
 Number     Number       Type             X           Y           Z
 ---------------------------------------------------------------------
      1          6           0        3.591464    0.255157   -0.086254
      2          6           0        2.209774   -0.171166    0.080788
      3          6           0        1.065444   -0.518024    0.223350
      4          6           0       -0.332944   -0.916914    0.363764
      5          6           0       -0.602013   -2.314654   -0.225679
      6          6           0       -1.272089    0.139979   -0.277240
      7          8           0       -2.641986   -0.192721   -0.097864
      8          6           0       -1.033226    1.529598    0.305210
      9          8           0       -0.582191    2.470039   -0.288036
     10          1           0        4.138923    0.211626    0.861644
     11          1           0        4.119891   -0.380873   -0.804773
     12          1           0        3.642546    1.285875   -0.453287
     13          1           0       -0.580237   -0.945013    1.438091
     14          1           0       -0.013126   -3.070104    0.300123
     15          1           0       -1.662407   -2.562028   -0.139980
     16          1           0       -0.323827   -2.340686   -1.283251
     17          1           0       -1.101866    0.184792   -1.355903
     18          1           0       -2.821325   -0.242190    0.849079
     19          1           0       -1.363624    1.616195    1.371816
 ---------------------------------------------------------------------

 SCF Done:  E(RB3LYP) =  -423.161622897     A.U. after    1 cycles

 The electronic state is 1-A.
 Alpha  occ. eigenvalues --  -19.16026 -19.14504 -10.27342 -10.24784 -10.22354
 Alpha  occ. eigenvalues --  -10.20486 -10.18463 -10.17918 -10.17160  -1.05558
 Alpha  occ. eigenvalues --   -1.03784  -0.82101  -0.76965  -0.71480  -0.69506
 Alpha  occ. eigenvalues --   -0.62650  -0.60142  -0.51359  -0.50522  -0.47690
 Alpha  occ. eigenvalues --   -0.45854  -0.44820  -0.42868  -0.42704  -0.41273
 Alpha  occ. eigenvalues --   -0.41022  -0.39131  -0.37891  -0.36915  -0.34546
 Alpha  occ. eigenvalues --   -0.31392  -0.26003  -0.25445  -0.24170
 Alpha virt. eigenvalues --   -0.02830   0.04672   0.05352   0.07017   0.10985
 Alpha virt. eigenvalues --    0.11098   0.12559   0.14427   0.15729   0.16856
 Alpha virt. eigenvalues --    0.17417   0.18141   0.18525   0.20540   0.22309

 Mulliken charges:
               1
     1  C   -0.499359
     2  C    0.075885
     3  C    0.068599
     4  C   -0.203998
     5  C   -0.386916
     6  C    0.053915
     7  O   -0.423114
     8  C    0.159166
     9  O   -0.235074
    10  H    0.148749
    11  H    0.149410
    12  H    0.157626
    13  H    0.090994
    14  H    0.124289
    15  H    0.127322
    16  H    0.129404
    17  H    0.120275
    18  H    0.285413
    19  H    0.057414
 Sum of Mulliken charges =   0.00000

 Dipole moment (field-independent basis, Debye):
    X=              0.6098    Y=             -1.9748    Z=              1.7671  Tot=              2.7192
 Quadrupole moment (field-independent basis, Debye-Ang):
   XX=            -47.6332   YY=            -59.6597   ZZ=            -51.0171
   XY=              1.6911   XZ=             -5.1785   YZ=              1.2676

  Exact polarizability: 102.758  10.011  77.371  -5.546  -0.857  63.196
 Approx polarizability: 147.174  21.072 107.690 -11.458  -6.995  98.864

                      1                      2                      3
                      A                      A                      A
 Frequencies --     28.4673                50.4041                56.1172
 Red. masses --      1.0202                 4.3407                 5.9877
 Frc consts  --      0.0005                 0.0065                 0.0111
 IR Inten    --      0.0536                 5.9130                 2.3680

                      4                      5                      6
                      A                      A                      A
 Frequencies --     88.0294               141.8259               215.1445
 Red. masses --      3.7580                 3.1133                 2.7590
 Frc consts  --      0.0172                 0.0369                 0.0752
 IR Inten    --      0.7836                 1.2204                 5.9065

                      7                      8                      9
                      A                      A                      A
 Frequencies --    228.2186               274.5710               286.1976
 Red. masses --      1.0979                 1.0609                 3.1653
 Frc consts  --      0.0337                 0.0471                 0.1528
 IR Inten    --      0.4607                98.2010                 1.6222

                     10                     11                     12
                      A                      A                      A
 Frequencies --    302.3737               331.9208               351.6683
 Red. masses --      3.4132                 3.1794                 6.3223
 Frc consts  --      0.1839                 0.2064                 0.4607
 IR Inten    --     12.3954                12.5249                 6.8722

                     13                     14                     15
                      A                      A                      A
 Frequencies --    413.1481               485.0267               535.1972
 Red. masses --      3.9002                 5.2764                 4.8173
 Frc consts  --      0.3922                 0.7313                 0.8130
 IR Inten    --     24.5453                 0.7718                 0.6163

                     16                     17                     18
                      A                      A                      A
 Frequencies --    542.1727               761.3882               879.9313
 Red. masses --      3.8182                 2.7861                 2.2059
 Frc consts  --      0.6613                 0.9516                 1.0063
 IR Inten    --     16.7121                 0.4674                 4.9135

                     19                     20                     21
                      A                      A                      A
 Frequencies --    962.3285               997.7784              1051.3831
 Red. masses --      1.9699                 2.2183                 1.6064
 Frc consts  --      1.0748                 1.3012                 1.0462
 IR Inten    --     18.2654                 3.7843                26.5530

                     22                     23                     24
                      A                      A                      A
 Frequencies --   1052.7679              1055.0372              1069.3108
 Red. masses --      1.4241                 2.1471                 2.4341
 Frc consts  --      0.9299                 1.4081                 1.6398
 IR Inten    --      2.2208                81.7616                 1.7628

                     25                     26                     27
                      A                      A                      A
 Frequencies --   1106.3669              1120.0249              1186.2178
 Red. masses --      2.3885                 2.7233                 1.9695
 Frc consts  --      1.7225                 2.0128                 1.6328
 IR Inten    --      2.7918                 7.9552                 0.4871

                     28                     29                     30
                      A                      A                      A
 Frequencies --   1232.8400              1264.8964              1333.3498
 Red. masses --      1.4567                 1.3737                 1.5218
 Frc consts  --      1.3045                 1.2950                 1.5940
 IR Inten    --      9.8268                 8.3358                12.0743

                     31                     32                     33
                      A                      A                      A
 Frequencies --   1350.4854              1397.6977              1406.5264
 Red. masses --      1.3682                 1.2130                 1.2200
 Frc consts  --      1.4703                 1.3961                 1.4220
 IR Inten    --     15.3932                20.6004                37.8867

                     34                     35                     36
                      A                      A                      A
 Frequencies --   1414.4784              1424.3476              1477.2049
 Red. masses --      1.2475                 1.2040                 1.0394
 Frc consts  --      1.4706                 1.4391                 1.3364
 IR Inten    --      1.6789                 7.9086                 6.0516

                     37                     38                     39
                      A                      A                      A
 Frequencies --   1478.0934              1492.0675              1498.9088
 Red. masses --      1.0396                 1.0443                 1.0510
 Frc consts  --      1.3382                 1.3697                 1.3913
 IR Inten    --      5.7228                 5.1464                 2.5732

                     40                     41                     42
                      A                      A                      A
 Frequencies --   1849.3455              2370.7269              2808.3894
 Red. masses --     10.8562                11.8524                 1.0807
 Frc consts  --     21.8758                39.2482                 5.0217
 IR Inten    --    135.8824                 5.1750               118.1810

                     43                     44                     45
                      A                      A                      A
 Frequencies --   2964.7535              3029.3098              3049.3541
 Red. masses --      1.0804                 1.0347                 1.0340
 Frc consts  --      5.5952                 5.5945                 5.6646
 IR Inten    --     31.4313                28.1866                19.0085

                     46                     47                     48
                      A                      A                      A
 Frequencies --   3090.1783              3093.0395              3097.9739
 Red. masses --      1.1002                 1.1002                 1.0869
 Frc consts  --      6.1900                 6.2017                 6.1460
 IR Inten    --      9.4847                 7.4680                 9.2534

                     49                     50                     51
                      A                      A                      A
 Frequencies --   3123.4432              3135.9982              3784.1609
 Red. masses --      1.1022                 1.1027                 1.0658
 Frc consts  --      6.3352                 6.3894                 8.9919
 IR Inten    --     20.2917                15.1719                19.2811

 - Thermochemistry -
 -------------------
 Temperature   298.150 Kelvin.  Pressure   1.00000 Atm.
 Atom     1 has atomic number  6 and mass  12.00000

 Molecular mass:   126.06808 amu.
 Principal axes and moments of inertia in atomic units:
                           1         2         3
     Eigenvalues --   886.135841644.861672414.26265
           X            0.99930   0.03609  -0.00984
           Y           -0.03597   0.99928   0.01210
           Z            0.01027  -0.01174   0.99988
 This molecule is an asymmetric top.
 Rotational symmetry number  1.
 Warning -- assumption of classical behavior for rotation
           may cause significant error
 Rotational temperatures (Kelvin)      0.09774     0.05266     0.03588
 Rotational constants (GHZ):           2.03664     1.09720     0.74753
 Zero-point vibrational energy     405178.7 (Joules/Mol)
                                   96.84003 (Kcal/Mol)
 Warning -- explicit consideration of  16 degrees of freedom as
           vibrations may cause significant error
 Vibrational temperatures:     40.96    72.52    80.74   126.65   204.06
          (Kelvin)            309.54   328.36   395.05   411.77   435.05
                              477.56   505.97   594.43   697.84   770.03
                              780.06  1095.47  1266.02  1384.57  1435.58
                             1512.70  1514.70  1517.96  1538.50  1591.81
                             1611.46  1706.70  1773.78  1819.90  1918.39
                             1943.04  2010.97  2023.68  2035.12  2049.32
                             2125.37  2126.64  2146.75  2156.59  2660.79
                             3410.94  4040.64  4265.61  4358.50  4387.33
                             4446.07  4450.19  4457.29  4493.93  4512.00
                             5444.56

 Zero-point correction=                           0.154324 (Hartree/Particle)
 Thermal correction to Energy=                    0.165648
 Thermal correction to Enthalpy=                  0.166592
 Thermal correction to Gibbs Free Energy=         0.115912
 Sum of electronic and zero-point Energies=           -423.007298
 Sum of electronic and thermal Energies=              -422.995975
 Sum of electronic and thermal Enthalpies=            -422.995030
 Sum of electronic and thermal Free Energies=         -423.045711

                     E (Thermal)             CV                S
                      KCal/Mol        Cal/Mol-Kelvin    Cal/Mol-Kelvin
 Total                  103.946             38.137            106.667
 Electronic               0.000              0.000              0.000
 Translational            0.889              2.981             40.409
 Rotational               0.889              2.981             29.644
 Vibrational            102.168             32.176             36.614
 Vibration     1          0.593              1.984              5.933
 Vibration     2          0.595              1.977              4.801
 Vibration     3          0.596              1.975              4.589
 Vibration     4          0.601              1.958              3.703
 Vibration     5          0.615              1.911              2.779
 Vibration     6          0.645              1.818              2.000
 Vibration     7          0.651              1.798              1.893
 Vibration     8          0.677              1.720              1.567
 Vibration     9          0.684              1.699              1.496
 Vibration    10          0.694              1.669              1.404
 Vibration    11          0.714              1.612              1.251
 Vibration    12          0.728              1.572              1.159
 Vibration    13          0.777              1.442              0.916
 Vibration    14          0.841              1.283              0.697
 Vibration    15          0.890              1.172              0.576
 Vibration    16          0.897              1.157              0.561

 Optimization completed.
    -- Stationary point found.
 Normal termination of Gaussian 09 at Mon Jan 27 14:33:45 2020.
