 Gaussian 09, Revision D.01,
 Gaussian 09:  ES64L-G09RevD.01 24-Apr-2013

 -----------------------------
 # b3lyp 6-31G(2df,p) opt Freq
 -----------------------------

 -----
 titel
 -----
 Symbolic Z-matrix:
 Charge =  0 Multiplicity = 1

 SCF Done:  E(RB3LYP) =  -423.159675469     A.U. after   14 cycles
 Optimization completed.
    -- Stationary point found.
 Normal termination of Gaussian 09 at Tue Jan 28 11:42:34 2020.

 ----------------------------------------------------------------------
 #N Geom=AllCheck Guess=TCheck SCRF=Check GenChk RB3LYP/6-31G(2df,p) Fr
 eq
 ----------------------------------------------------------------------

 Structure from the checkpoint file:  "/scratch/puck/g09_b53355b9-d4be-44b7-bd80-197a5f32bc0a/Gau-26388.chk"
 -----
 titel
 -----
 Charge =  0 Multiplicity = 1

                         Standard orientation:
 ---------------------------------------------------------------------
 Center     Atomic      Atomic             Coordinates (Angstroms)
 Number     Number       Type             X           Y           Z
 ---------------------------------------------------------------------
      1          6           0       -2.519010   -0.450175   -0.205134
      2          8           0       -1.246688   -1.047086   -0.374462
      3          6           0       -0.257884   -0.600322    0.531095
      4          6           0        0.890411   -1.638472    0.509547
      5          6           0        1.973409   -0.982469   -0.313626
      6          6           0        1.712172    0.299961   -0.561975
      7          6           0        0.427418    0.706557    0.061028
      8          6           0        0.222994    2.015655    0.707257
      9          8           0       -0.367905    1.723601   -0.560228
     10          1           0       -2.501667    0.622552   -0.420904
     11          1           0       -3.194919   -0.949160   -0.904372
     12          1           0       -2.896565   -0.605015    0.818648
     13          1           0       -0.698606   -0.484413    1.531879
     14          1           0        1.244484   -1.864872    1.523161
     15          1           0        0.527283   -2.576126    0.077565
     16          1           0        2.863101   -1.513599   -0.631967
     17          1           0        2.328461    0.995409   -1.118714
     18          1           0       -0.472315    2.100761    1.542388
     19          1           0        1.020426    2.757924    0.690689
 ---------------------------------------------------------------------

 SCF Done:  E(RB3LYP) =  -423.159675469     A.U. after    1 cycles

 The electronic state is 1-A.
 Alpha  occ. eigenvalues --  -19.15308 -19.13512 -10.24047 -10.23552 -10.23386
 Alpha  occ. eigenvalues --  -10.21355 -10.18883 -10.18680 -10.18240  -1.07291
 Alpha  occ. eigenvalues --   -1.02566  -0.83744  -0.72433  -0.69125  -0.66466
 Alpha  occ. eigenvalues --   -0.64472  -0.57207  -0.54459  -0.51426  -0.48893
 Alpha  occ. eigenvalues --   -0.47141  -0.45593  -0.43438  -0.42374  -0.39580
 Alpha  occ. eigenvalues --   -0.38695  -0.36848  -0.36182  -0.35147  -0.33582
 Alpha  occ. eigenvalues --   -0.30424  -0.28050  -0.24543  -0.23862
 Alpha virt. eigenvalues --    0.00939   0.08153   0.10249   0.11106   0.12570
 Alpha virt. eigenvalues --    0.13675   0.14301   0.15277   0.15940   0.17372
 Alpha virt. eigenvalues --    0.17485   0.18099   0.19544   0.20870   0.22097

 Mulliken charges:
               1
     1  C   -0.241489
     2  O   -0.239989
     3  C   -0.001126
     4  C   -0.291573
     5  C   -0.074316
     6  C   -0.143804
     7  C    0.439022
     8  C   -0.255682
     9  O   -0.273482
    10  H    0.134432
    11  H    0.122891
    12  H    0.094650
    13  H    0.063010
    14  H    0.110253
    15  H    0.125715
    16  H    0.100822
    17  H    0.104574
    18  H    0.112248
    19  H    0.113842
 Sum of Mulliken charges =   0.00000

 Dipole moment (field-independent basis, Debye):
    X=              0.8530    Y=             -0.0224    Z=              1.9367  Tot=              2.1163
 Quadrupole moment (field-independent basis, Debye-Ang):
   XX=            -48.9889   YY=            -52.9411   ZZ=            -53.4218
   XY=              0.0788   XZ=             -1.7469   YZ=              1.4721

  Exact polarizability:  82.565  -4.140  89.024  -4.135   0.556  61.808
 Approx polarizability: 108.448 -10.635 135.814  -2.622  -1.429  97.983

                      1                      2                      3
                      A                      A                      A
 Frequencies --     50.8212               124.5806               186.9889
 Red. masses --      3.1857                 1.6537                 1.7469
 Frc consts  --      0.0048                 0.0151                 0.0360
 IR Inten    --      0.5352                 2.5734                 3.2589

                      4                      5                      6
                      A                      A                      A
 Frequencies --    228.4654               256.4622               270.4797
 Red. masses --      3.2391                 4.0196                 2.3599
 Frc consts  --      0.0996                 0.1558                 0.1017
 IR Inten    --      1.3038                 2.4866                 1.9561

                      7                      8                      9
                      A                      A                      A
 Frequencies --    352.1631               403.2682               454.7821
 Red. masses --      2.9131                 2.9269                 3.0475
 Frc consts  --      0.2129                 0.2804                 0.3714
 IR Inten    --      2.2360                 1.0350                 8.4663

                     10                     11                     12
                      A                      A                      A
 Frequencies --    545.5851               579.7799               744.1370
 Red. masses --      4.3010                 3.6687                 1.5126
 Frc consts  --      0.7543                 0.7266                 0.4935
 IR Inten    --      0.5660                15.7003                12.0912

                     13                     14                     15
                      A                      A                      A
 Frequencies --    764.4626               826.1674               862.1786
 Red. masses --      4.0071                 4.0054                 2.2676
 Frc consts  --      1.3797                 1.6108                 0.9931
 IR Inten    --      1.2366                15.9687                23.1097

                     16                     17                     18
                      A                      A                      A
 Frequencies --    898.5689               922.3128               941.5945
 Red. masses --      2.4004                 2.0297                 2.9126
 Frc consts  --      1.1419                 1.0173                 1.5215
 IR Inten    --      5.1308                 0.9020                26.7510

                     19                     20                     21
                      A                      A                      A
 Frequencies --    969.5651               976.2534              1015.5415
 Red. masses --      1.3588                 3.7904                 2.2417
 Frc consts  --      0.7526                 2.1284                 1.3622
 IR Inten    --      5.1204                21.7435                 7.7560

                     22                     23                     24
                      A                      A                      A
 Frequencies --   1049.1348              1113.0974              1129.8268
 Red. masses --      2.3658                 1.1378                 1.2867
 Frc consts  --      1.5343                 0.8306                 0.9677
 IR Inten    --      3.5087                 3.8780                 8.4774

                     25                     26                     27
                      A                      A                      A
 Frequencies --   1140.7127              1160.8600              1180.9647
 Red. masses --      3.6878                 1.4143                 1.2617
 Frc consts  --      2.8273                 1.1229                 1.0367
 IR Inten    --    118.7880                 9.9087                 1.6312

                     28                     29                     30
                      A                      A                      A
 Frequencies --   1186.9879              1225.8359              1246.4986
 Red. masses --      1.2103                 1.9783                 2.1030
 Frc consts  --      1.0047                 1.7515                 1.9252
 IR Inten    --      6.2563                22.8311                17.7208

                     31                     32                     33
                      A                      A                      A
 Frequencies --   1267.0220              1319.1840              1335.6008
 Red. masses --      1.4935                 1.5354                 2.1978
 Frc consts  --      1.4126                 1.5743                 2.3099
 IR Inten    --      5.1140                 1.0791                 2.1375

                     34                     35                     36
                      A                      A                      A
 Frequencies --   1381.0874              1428.8362              1470.4019
 Red. masses --      1.3122                 2.3467                 1.1030
 Frc consts  --      1.4746                 2.8228                 1.4050
 IR Inten    --     17.9830                16.6211                 4.3671

                     37                     38                     39
                      A                      A                      A
 Frequencies --   1476.3012              1482.5138              1520.1162
 Red. masses --      1.1397                 1.0626                 1.0689
 Frc consts  --      1.4635                 1.3760                 1.4553
 IR Inten    --      1.6170                 3.0707                 3.0048

                     40                     41                     42
                      A                      A                      A
 Frequencies --   1524.4090              1680.3561              2975.8179
 Red. masses --      1.2864                 6.3997                 1.0507
 Frc consts  --      1.7612                10.6467                 5.4821
 IR Inten    --      4.4983                 2.1744                53.7831

                     43                     44                     45
                      A                      A                      A
 Frequencies --   2993.9168              3031.8502              3073.3124
 Red. masses --      1.0829                 1.0665                 1.0501
 Frc consts  --      5.7190                 5.7757                 5.8438
 IR Inten    --     44.1259                37.4443                32.9507

                     46                     47                     48
                      A                      A                      A
 Frequencies --   3075.4691              3082.1894              3119.6952
 Red. masses --      1.0809                 1.0963                 1.1043
 Frc consts  --      6.0238                 6.1362                 6.3323
 IR Inten    --     32.4628                10.7137                21.6066

                     49                     50                     51
                      A                      A                      A
 Frequencies --   3160.9681              3192.6920              3218.1598
 Red. masses --      1.1194                 1.0856                 1.1046
 Frc consts  --      6.5901                 6.5200                 6.7401
 IR Inten    --     21.6709                 4.3717                13.7710

 - Thermochemistry -
 -------------------
 Temperature   298.150 Kelvin.  Pressure   1.00000 Atm.
 Atom     1 has atomic number  6 and mass  12.00000

 Molecular mass:   126.06808 amu.
 Principal axes and moments of inertia in atomic units:
                           1         2         3
     Eigenvalues --   839.38728 988.012181569.49471
           X            0.99993  -0.00635  -0.00991
           Y            0.00643   0.99995   0.00774
           Z            0.00987  -0.00780   0.99992
 This molecule is an asymmetric top.
 Rotational symmetry number  1.
 Warning -- assumption of classical behavior for rotation
           may cause significant error
 Rotational temperatures (Kelvin)      0.10319     0.08766     0.05519
 Rotational constants (GHZ):           2.15007     1.82664     1.14989
 Zero-point vibrational energy     416408.0 (Joules/Mol)
                                   99.52389 (Kcal/Mol)
 Warning -- explicit consideration of  11 degrees of freedom as
           vibrations may cause significant error
 Vibrational temperatures:     73.12   179.24   269.03   328.71   368.99
          (Kelvin)            389.16   506.68   580.21   654.33   784.97
                              834.17  1070.65  1099.89  1188.67  1240.48
                             1292.84  1327.00  1354.74  1394.99  1404.61
                             1461.14  1509.47  1601.50  1625.57  1641.23
                             1670.22  1699.14  1707.81  1763.70  1793.43
                             1822.96  1898.01  1921.63  1987.07  2055.77
                             2115.58  2124.07  2133.00  2187.11  2193.28
                             2417.65  4281.53  4307.57  4362.15  4421.81
                             4424.91  4434.58  4488.54  4547.92  4593.57
                             4630.21

 Zero-point correction=                           0.158601 (Hartree/Particle)
 Thermal correction to Energy=                    0.167122
 Thermal correction to Enthalpy=                  0.168066
 Thermal correction to Gibbs Free Energy=         0.125116
 Sum of electronic and zero-point Energies=           -423.001074
 Sum of electronic and thermal Energies=              -422.992554
 Sum of electronic and thermal Enthalpies=            -422.991610
 Sum of electronic and thermal Free Energies=         -423.034559

                     E (Thermal)             CV                S
                      KCal/Mol        Cal/Mol-Kelvin    Cal/Mol-Kelvin
 Total                  104.870             32.019             90.394
 Electronic               0.000              0.000              0.000
 Translational            0.889              2.981             40.409
 Rotational               0.889              2.981             28.656
 Vibrational            103.093             26.057             21.330
 Vibration     1          0.595              1.977              4.785
 Vibration     2          0.610              1.928              3.028
 Vibration     3          0.632              1.858              2.257
 Vibration     4          0.651              1.798              1.891
 Vibration     5          0.666              1.752              1.686
 Vibration     6          0.674              1.728              1.593
 Vibration     7          0.729              1.571              1.157
 Vibration     8          0.769              1.463              0.951
 Vibration     9          0.813              1.350              0.781
 Vibration    10          0.901              1.149              0.553
 Vibration    11          0.936              1.075              0.486

 Optimization completed.
    -- Stationary point found.
 Normal termination of Gaussian 09 at Tue Jan 28 12:25:08 2020.
