 Gaussian 09, Revision D.01,
 Gaussian 09:  ES64L-G09RevD.01 24-Apr-2013

 -----------------------------
 # b3lyp 6-31G(2df,p) opt Freq
 -----------------------------

 -----
 titel
 -----
 Symbolic Z-matrix:
 Charge =  0 Multiplicity = 1

 SCF Done:  E(RB3LYP) =  -423.183268605     A.U. after   14 cycles
 Optimization completed.
    -- Stationary point found.
 Normal termination of Gaussian 09 at Tue Jan 28 03:06:57 2020.

 ----------------------------------------------------------------------
 #N Geom=AllCheck Guess=TCheck SCRF=Check GenChk RB3LYP/6-31G(2df,p) Fr
 eq
 ----------------------------------------------------------------------

 Structure from the checkpoint file:  "/scratch/puck/g09_da504686-db2d-4977-aab8-d61fed2cf730/Gau-78904.chk"
 -----
 titel
 -----
 Charge =  0 Multiplicity = 1

                         Standard orientation:
 ---------------------------------------------------------------------
 Center     Atomic      Atomic             Coordinates (Angstroms)
 Number     Number       Type             X           Y           Z
 ---------------------------------------------------------------------
      1          6           0       -2.437658    0.074860   -0.251620
      2          6           0       -0.982765   -0.133997   -0.634808
      3          8           0       -0.571405   -1.506292   -0.353724
      4          6           0        0.611485   -1.337213    0.438270
      5          6           0        0.202515   -0.234145    1.451701
      6          6           0        0.090769    0.657575    0.156733
      7          6           0        0.065783    2.163542    0.140725
      8          6           0        1.326242   -0.172718   -0.285129
      9          8           0        2.384359    0.062030   -0.784102
     10          1           0       -2.594021   -0.004266    0.827518
     11          1           0       -2.784180    1.058691   -0.584378
     12          1           0       -3.054788   -0.685801   -0.739108
     13          1           0       -0.864680    0.051649   -1.711961
     14          1           0        1.050885   -2.296587    0.697393
     15          1           0       -0.715976   -0.427756    2.007497
     16          1           0        1.010317    0.081055    2.115792
     17          1           0        0.932376    2.573574    0.667760
     18          1           0        0.097020    2.538437   -0.888022
     19          1           0       -0.838822    2.557678    0.614882
 ---------------------------------------------------------------------

 SCF Done:  E(RB3LYP) =  -423.183268605     A.U. after    1 cycles

 The electronic state is 1-A.
 Alpha  occ. eigenvalues --  -19.14813 -19.14552 -10.27172 -10.24529 -10.24504
 Alpha  occ. eigenvalues --  -10.21268 -10.20300 -10.19020 -10.18467  -1.06293
 Alpha  occ. eigenvalues --   -1.04232  -0.84732  -0.78064  -0.72572  -0.66619
 Alpha  occ. eigenvalues --   -0.63870  -0.56468  -0.54224  -0.50239  -0.47055
 Alpha  occ. eigenvalues --   -0.46491  -0.44822  -0.42770  -0.41722  -0.40443
 Alpha  occ. eigenvalues --   -0.39607  -0.38450  -0.37530  -0.37186  -0.35355
 Alpha  occ. eigenvalues --   -0.34267  -0.32109  -0.27709  -0.22488
 Alpha virt. eigenvalues --   -0.01618   0.08004   0.10860   0.11684   0.12039
 Alpha virt. eigenvalues --    0.13230   0.13823   0.14756   0.15430   0.15820
 Alpha virt. eigenvalues --    0.17036   0.17878   0.18875   0.19375   0.21249

 Mulliken charges:
               1
     1  C   -0.417398
     2  C    0.120604
     3  O   -0.297005
     4  C   -0.020599
     5  C   -0.301730
     6  C    0.137802
     7  C   -0.505845
     8  C    0.413671
     9  O   -0.319720
    10  H    0.120181
    11  H    0.120058
    12  H    0.135152
    13  H    0.086980
    14  H    0.100288
    15  H    0.118098
    16  H    0.119812
    17  H    0.131965
    18  H    0.132216
    19  H    0.125470
 Sum of Mulliken charges =   0.00000

 Dipole moment (field-independent basis, Debye):
    X=             -2.0001    Y=              1.1005    Z=              1.6101  Tot=              2.7936
 Quadrupole moment (field-independent basis, Debye-Ang):
   XX=            -58.6166   YY=            -53.6370   ZZ=            -52.0578
   XY=             -2.5114   XZ=              3.8263   YZ=             -1.3697

  Exact polarizability:  82.809  -1.616  74.748   0.159  -2.746  68.253
 Approx polarizability: 121.099   0.769 108.194  -4.697  -3.660 107.213

                      1                      2                      3
                      A                      A                      A
 Frequencies --    127.5590               168.2039               195.2929
 Red. masses --      4.5070                 1.1556                 1.7924
 Frc consts  --      0.0432                 0.0193                 0.0403
 IR Inten    --      1.9980                 0.0545                 0.7933

                      4                      5                      6
                      A                      A                      A
 Frequencies --    212.5202               221.7709               258.2871
 Red. masses --      3.9980                 1.2225                 3.0796
 Frc consts  --      0.1064                 0.0354                 0.1210
 IR Inten    --      2.7639                 0.2197                 0.9539

                      7                      8                      9
                      A                      A                      A
 Frequencies --    320.2412               448.6432               468.2710
 Red. masses --      2.4659                 3.2571                 2.4847
 Frc consts  --      0.1490                 0.3863                 0.3210
 IR Inten    --      0.8152                 2.2698                 2.4635

                     10                     11                     12
                      A                      A                      A
 Frequencies --    505.7620               596.5623               671.7342
 Red. masses --      3.8022                 3.8627                 3.0044
 Frc consts  --      0.5730                 0.8099                 0.7987
 IR Inten    --      5.5412                 4.4417                 1.8996

                     13                     14                     15
                      A                      A                      A
 Frequencies --    692.6230               771.3838               817.0145
 Red. masses --      4.2882                 3.4367                 3.0218
 Frc consts  --      1.2120                 1.2049                 1.1884
 IR Inten    --      1.5176                 8.6102                 1.3567

                     16                     17                     18
                      A                      A                      A
 Frequencies --    845.9426               858.8227               884.8017
 Red. masses --      3.5880                 2.6769                 2.4705
 Frc consts  --      1.5128                 1.1633                 1.1395
 IR Inten    --      1.8676                29.4434                 1.7882

                     19                     20                     21
                      A                      A                      A
 Frequencies --    961.7856               995.3973              1012.0207
 Red. masses --      3.2184                 1.4070                 1.9812
 Frc consts  --      1.7541                 0.8214                 1.1955
 IR Inten    --     39.9420                 0.3728                 4.9069

                     22                     23                     24
                      A                      A                      A
 Frequencies --   1054.8253              1061.1006              1075.5922
 Red. masses --      1.6234                 1.4412                 2.3096
 Frc consts  --      1.0643                 0.9561                 1.5743
 IR Inten    --     17.8061                 1.4389                52.4533

                     25                     26                     27
                      A                      A                      A
 Frequencies --   1123.0957              1140.9775              1192.3388
 Red. masses --      2.0422                 1.8539                 1.9210
 Frc consts  --      1.5177                 1.4219                 1.6090
 IR Inten    --      7.6461                 3.8205                 0.6146

                     28                     29                     30
                      A                      A                      A
 Frequencies --   1203.7019              1218.8939              1259.7931
 Red. masses --      1.9037                 2.2454                 1.4031
 Frc consts  --      1.6251                 1.9655                 1.3120
 IR Inten    --      3.2641                 1.5212                 4.3363

                     31                     32                     33
                      A                      A                      A
 Frequencies --   1298.5384              1353.7489              1397.0555
 Red. masses --      1.7626                 2.1820                 1.2785
 Frc consts  --      1.7511                 2.3561                 1.4702
 IR Inten    --     13.2958                 1.9207                 3.8281

                     34                     35                     36
                      A                      A                      A
 Frequencies --   1411.7999              1415.7826              1476.2424
 Red. masses --      1.3511                 1.3286                 1.1153
 Frc consts  --      1.5866                 1.5690                 1.4321
 IR Inten    --     27.8997                 2.1328                 0.8214

                     37                     38                     39
                      A                      A                      A
 Frequencies --   1487.8867              1489.8193              1493.2759
 Red. masses --      1.0585                 1.0526                 1.0489
 Frc consts  --      1.3806                 1.3765                 1.3780
 IR Inten    --      6.0645                 8.3588                 4.6429

                     40                     41                     42
                      A                      A                      A
 Frequencies --   1497.2863              1904.7495              2999.0015
 Red. masses --      1.0541                12.4332                 1.0848
 Frc consts  --      1.3924                26.5771                 5.7487
 IR Inten    --      3.0807               282.4554                39.1154

                     43                     44                     45
                      A                      A                      A
 Frequencies --   3035.0542              3041.9434              3076.6575
 Red. masses --      1.0355                 1.0353                 1.0562
 Frc consts  --      5.6202                 5.6445                 5.8908
 IR Inten    --     19.6094                14.0048                 8.8748

                     46                     47                     48
                      A                      A                      A
 Frequencies --   3100.3503              3108.6200              3113.2166
 Red. masses --      1.1006                 1.1012                 1.1008
 Frc consts  --      6.2332                 6.2699                 6.2862
 IR Inten    --     14.6368                15.2451                13.9749

                     49                     50                     51
                      A                      A                      A
 Frequencies --   3121.4881              3145.6459              3168.8827
 Red. masses --      1.1019                 1.1096                 1.0928
 Frc consts  --      6.3256                 6.4687                 6.4658
 IR Inten    --     25.3653                12.2295                22.7014

 - Thermochemistry -
 -------------------
 Temperature   298.150 Kelvin.  Pressure   1.00000 Atm.
 Atom     1 has atomic number  6 and mass  12.00000

 Molecular mass:   126.06808 amu.
 Principal axes and moments of inertia in atomic units:
                           1         2         3
     Eigenvalues --   744.941911055.518461360.84356
           X            0.99920  -0.03042   0.02605
           Y            0.03084   0.99939  -0.01618
           Z           -0.02554   0.01697   0.99953
 This molecule is an asymmetric top.
 Rotational symmetry number  1.
 Warning -- assumption of classical behavior for rotation
           may cause significant error
 Rotational temperatures (Kelvin)      0.11627     0.08206     0.06365
 Rotational constants (GHZ):           2.42266     1.70981     1.32619
 Zero-point vibrational energy     415714.3 (Joules/Mol)
                                   99.35810 (Kcal/Mol)
 Warning -- explicit consideration of  11 degrees of freedom as
           vibrations may cause significant error
 Vibrational temperatures:    183.53   242.01   280.98   305.77   319.08
          (Kelvin)            371.62   460.76   645.50   673.74   727.68
                              858.32   966.47   996.53  1109.85  1175.50
                             1217.12  1235.65  1273.03  1383.79  1432.15
                             1456.07  1517.66  1526.69  1547.54  1615.88
                             1641.61  1715.51  1731.86  1753.71  1812.56
                             1868.30  1947.74  2010.05  2031.26  2036.99
                             2123.98  2140.73  2143.52  2148.49  2154.26
                             2740.51  4314.89  4366.76  4376.67  4426.62
                             4460.71  4472.61  4479.22  4491.12  4525.88
                             4559.31

 Zero-point correction=                           0.158337 (Hartree/Particle)
 Thermal correction to Energy=                    0.166832
 Thermal correction to Enthalpy=                  0.167776
 Thermal correction to Gibbs Free Energy=         0.125688
 Sum of electronic and zero-point Energies=           -423.024931
 Sum of electronic and thermal Energies=              -423.016437
 Sum of electronic and thermal Enthalpies=            -423.015493
 Sum of electronic and thermal Free Energies=         -423.057581

                     E (Thermal)             CV                S
                      KCal/Mol        Cal/Mol-Kelvin    Cal/Mol-Kelvin
 Total                  104.689             32.673             88.582
 Electronic               0.000              0.000              0.000
 Translational            0.889              2.981             40.409
 Rotational               0.889              2.981             28.461
 Vibrational            102.911             26.711             19.712
 Vibration     1          0.611              1.926              2.983
 Vibration     2          0.625              1.882              2.455
 Vibration     3          0.636              1.846              2.177
 Vibration     4          0.644              1.822              2.022
 Vibration     5          0.648              1.808              1.945
 Vibration     6          0.667              1.749              1.673
 Vibration     7          0.706              1.635              1.309
 Vibration     8          0.808              1.364              0.800
 Vibration     9          0.825              1.320              0.742
 Vibration    10          0.861              1.237              0.644
 Vibration    11          0.954              1.039              0.456

 Optimization completed.
    -- Stationary point found.
 Normal termination of Gaussian 09 at Tue Jan 28 03:51:52 2020.
