 Gaussian 09, Revision D.01,
 Gaussian 09:  ES64L-G09RevD.01 24-Apr-2013

 -----------------------------
 # b3lyp 6-31G(2df,p) opt Freq
 -----------------------------

 -----
 titel
 -----
 Symbolic Z-matrix:
 Charge =  0 Multiplicity = 1

 SCF Done:  E(RB3LYP) =  -423.181812622     A.U. after   13 cycles
 Optimization completed.
    -- Stationary point found.
 Normal termination of Gaussian 09 at Mon Jan 27 22:03:45 2020.

 ----------------------------------------------------------------------
 #N Geom=AllCheck Guess=TCheck SCRF=Check GenChk RB3LYP/6-31G(2df,p) Fr
 eq
 ----------------------------------------------------------------------

 Structure from the checkpoint file:  "/scratch/puck/g09_8c73c646-a39d-4986-97fa-dd29c54a1983/Gau-14903.chk"
 -----
 titel
 -----
 Charge =  0 Multiplicity = 1

                         Standard orientation:
 ---------------------------------------------------------------------
 Center     Atomic      Atomic             Coordinates (Angstroms)
 Number     Number       Type             X           Y           Z
 ---------------------------------------------------------------------
      1          6           0       -2.981875    0.117297    0.224801
      2          6           0       -1.515644   -0.001614   -0.046012
      3          6           0       -0.888150   -1.021333   -0.644636
      4          6           0        0.590018   -0.804355   -0.732431
      5          8           0        1.364705   -1.514570    0.280139
      6          6           0        1.555881   -0.310186    1.047799
      7          6           0        0.826342    0.557137   -0.010204
      8          8           0        1.579945    1.562091   -0.637889
      9          6           0       -0.559436    1.105212    0.353423
     10          1           0       -3.174468    0.227886    1.299492
     11          1           0       -3.400636    1.009267   -0.258216
     12          1           0       -3.532119   -0.756725   -0.132863
     13          1           0       -1.377593   -1.916227   -1.014084
     14          1           0        1.025401   -0.952597   -1.727997
     15          1           0        1.081310   -0.363323    2.036071
     16          1           0        2.619197   -0.064784    1.176897
     17          1           0        2.435780    1.193704   -0.882736
     18          1           0       -0.646799    1.361298    1.417135
     19          1           0       -0.750093    2.028383   -0.208137
 ---------------------------------------------------------------------

 SCF Done:  E(RB3LYP) =  -423.181812622     A.U. after    1 cycles

 The electronic state is 1-A.
 Alpha  occ. eigenvalues --  -19.14592 -19.12647 -10.23932 -10.22511 -10.22432
 Alpha  occ. eigenvalues --  -10.19655 -10.18612 -10.18569 -10.17426  -1.04413
 Alpha  occ. eigenvalues --   -1.01438  -0.83664  -0.74020  -0.72279  -0.66816
 Alpha  occ. eigenvalues --   -0.64730  -0.56145  -0.54284  -0.50610  -0.48578
 Alpha  occ. eigenvalues --   -0.45827  -0.43004  -0.42816  -0.42313  -0.40110
 Alpha  occ. eigenvalues --   -0.38577  -0.38127  -0.36784  -0.35822  -0.34321
 Alpha  occ. eigenvalues --   -0.29138  -0.26122  -0.25270  -0.23917
 Alpha virt. eigenvalues --    0.01346   0.07034   0.09691   0.09861   0.11801
 Alpha virt. eigenvalues --    0.12925   0.14482   0.14952   0.16473   0.17250
 Alpha virt. eigenvalues --    0.17499   0.18005   0.20276   0.21641   0.22998

 Mulliken charges:
               1
     1  C   -0.487015
     2  C    0.317163
     3  C   -0.182001
     4  C    0.015762
     5  O   -0.295214
     6  C   -0.136918
     7  C    0.353363
     8  O   -0.482286
     9  C   -0.354854
    10  H    0.129121
    11  H    0.129516
    12  H    0.127048
    13  H    0.092568
    14  H    0.072734
    15  H    0.099984
    16  H    0.091154
    17  H    0.282962
    18  H    0.105705
    19  H    0.121209
 Sum of Mulliken charges =   0.00000

 Dipole moment (field-independent basis, Debye):
    X=             -0.6448    Y=              0.7105    Z=              0.0311  Tot=              0.9600
 Quadrupole moment (field-independent basis, Debye-Ang):
   XX=            -47.4544   YY=            -59.2370   ZZ=            -51.4752
   XY=              1.6493   XZ=             -1.3644   YZ=              2.5303

  Exact polarizability:  91.317  -3.156  72.866  -1.919   6.843  66.501
 Approx polarizability: 118.488 -10.411 118.077  -5.845  13.594 102.930

                      1                      2                      3
                      A                      A                      A
 Frequencies --     79.4550               144.3736               189.9562
 Red. masses --      2.6825                 2.9109                 1.1772
 Frc consts  --      0.0100                 0.0357                 0.0250
 IR Inten    --      2.1159                 1.8536                 1.2251

                      4                      5                      6
                      A                      A                      A
 Frequencies --    273.4133               289.4242               353.6297
 Red. masses --      2.3688                 2.2276                 1.3260
 Frc consts  --      0.1043                 0.1099                 0.0977
 IR Inten    --      7.5974                 3.3885                64.3780

                      7                      8                      9
                      A                      A                      A
 Frequencies --    370.5468               399.8348               435.8692
 Red. masses --      3.0424                 3.8428                 2.0671
 Frc consts  --      0.2461                 0.3620                 0.2314
 IR Inten    --     12.6726                17.2559                 1.9732

                     10                     11                     12
                      A                      A                      A
 Frequencies --    499.6604               547.0874               668.8118
 Red. masses --      2.7493                 3.9466                 4.1222
 Frc consts  --      0.4044                 0.6960                 1.0864
 IR Inten    --      9.5094                 2.2548                 1.0505

                     13                     14                     15
                      A                      A                      A
 Frequencies --    702.4806               835.8194               865.6346
 Red. masses --      4.1215                 1.8030                 2.4324
 Frc consts  --      1.1983                 0.7421                 1.0739
 IR Inten    --      9.5496                 6.1793                 5.8129

                     16                     17                     18
                      A                      A                      A
 Frequencies --    874.9374               917.8404               944.0177
 Red. masses --      3.5731                 1.6281                 2.0142
 Frc consts  --      1.6116                 0.8081                 1.0576
 IR Inten    --      6.2849                 2.5250                 9.5448

                     19                     20                     21
                      A                      A                      A
 Frequencies --    964.6866               991.9653              1009.8112
 Red. masses --      3.7824                 1.7189                 6.0433
 Frc consts  --      2.0739                 0.9966                 3.6308
 IR Inten    --     60.9648                16.6488                73.4199

                     22                     23                     24
                      A                      A                      A
 Frequencies --   1025.9580              1045.5405              1089.6985
 Red. masses --      1.5338                 1.5408                 2.4719
 Frc consts  --      0.9512                 0.9924                 1.7294
 IR Inten    --      0.3662                 1.3951                 9.6879

                     25                     26                     27
                      A                      A                      A
 Frequencies --   1115.4930              1144.0693              1159.0055
 Red. masses --      1.8902                 1.5163                 1.3739
 Frc consts  --      1.3858                 1.1694                 1.0874
 IR Inten    --     34.5792                12.4554                31.8797

                     28                     29                     30
                      A                      A                      A
 Frequencies --   1175.8084              1235.0584              1270.7840
 Red. masses --      2.3420                 1.7948                 1.6453
 Frc consts  --      1.9077                 1.6131                 1.5654
 IR Inten    --      2.7339                 7.4627                30.1866

                     31                     32                     33
                      A                      A                      A
 Frequencies --   1287.0420              1323.6003              1336.5917
 Red. masses --      1.3650                 1.4278                 2.1565
 Frc consts  --      1.3322                 1.4738                 2.2698
 IR Inten    --     13.0587                35.3646                 8.9258

                     34                     35                     36
                      A                      A                      A
 Frequencies --   1367.7067              1399.5377              1413.5406
 Red. masses --      1.9999                 1.8722                 1.3121
 Frc consts  --      2.2041                 2.1606                 1.5446
 IR Inten    --     28.5177                24.8593                 1.9918

                     37                     38                     39
                      A                      A                      A
 Frequencies --   1476.9075              1478.8401              1486.4055
 Red. masses --      1.0979                 1.0448                 1.0663
 Frc consts  --      1.4110                 1.3463                 1.3881
 IR Inten    --      2.8289                 7.5649                 8.2354

                     40                     41                     42
                      A                      A                      A
 Frequencies --   1517.4045              1706.3371              2997.7565
 Red. masses --      1.1004                 6.8047                 1.0561
 Frc consts  --      1.4928                11.6731                 5.5916
 IR Inten    --      0.3223                14.5882                69.6089

                     43                     44                     45
                      A                      A                      A
 Frequencies --   3018.2766              3023.5506              3035.5187
 Red. masses --      1.0434                 1.0548                 1.0861
 Frc consts  --      5.6004                 5.6815                 5.8965
 IR Inten    --     13.1329                48.6672                46.3031

                     46                     47                     48
                      A                      A                      A
 Frequencies --   3044.8473              3055.6195              3066.4804
 Red. masses --      1.1081                 1.1025                 1.0982
 Frc consts  --      6.0529                 6.0651                 6.0846
 IR Inten    --     32.7639                20.4831                19.9837

                     49                     50                     51
                      A                      A                      A
 Frequencies --   3115.7005              3187.8288              3805.6880
 Red. masses --      1.0993                 1.0936                 1.0659
 Frc consts  --      6.2873                 6.5480                 9.0955
 IR Inten    --     17.6735                14.7277                18.8329

 - Thermochemistry -
 -------------------
 Temperature   298.150 Kelvin.  Pressure   1.00000 Atm.
 Atom     1 has atomic number  6 and mass  12.00000

 Molecular mass:   126.06808 amu.
 Principal axes and moments of inertia in atomic units:
                           1         2         3
     Eigenvalues --   636.604131283.364641572.93558
           X            0.99999   0.00045  -0.00324
           Y           -0.00031   0.99914   0.04138
           Z            0.00326  -0.04138   0.99914
 This molecule is an asymmetric top.
 Rotational symmetry number  1.
 Warning -- assumption of classical behavior for rotation
           may cause significant error
 Rotational temperatures (Kelvin)      0.13606     0.06749     0.05507
 Rotational constants (GHZ):           2.83495     1.40626     1.14737
 Zero-point vibrational energy     417292.5 (Joules/Mol)
                                   99.73529 (Kcal/Mol)
 Warning -- explicit consideration of  11 degrees of freedom as
           vibrations may cause significant error
 Vibrational temperatures:    114.32   207.72   273.30   393.38   416.42
          (Kelvin)            508.79   533.13   575.27   627.12   718.90
                              787.14   962.27  1010.71  1202.56  1245.45
                             1258.84  1320.57  1358.23  1387.97  1427.22
                             1452.89  1476.12  1504.30  1567.83  1604.94
                             1646.06  1667.55  1691.72  1776.97  1828.37
                             1851.76  1904.36  1923.05  1967.82  2013.62
                             2033.77  2124.94  2127.72  2138.60  2183.20
                             2455.04  4313.10  4342.62  4350.21  4367.43
                             4380.85  4396.35  4411.98  4482.79  4586.57
                             5475.53

 Zero-point correction=                           0.158938 (Hartree/Particle)
 Thermal correction to Energy=                    0.167277
 Thermal correction to Enthalpy=                  0.168221
 Thermal correction to Gibbs Free Energy=         0.126129
 Sum of electronic and zero-point Energies=           -423.022874
 Sum of electronic and thermal Energies=              -423.014535
 Sum of electronic and thermal Enthalpies=            -423.013591
 Sum of electronic and thermal Free Energies=         -423.055683

                     E (Thermal)             CV                S
                      KCal/Mol        Cal/Mol-Kelvin    Cal/Mol-Kelvin
 Total                  104.968             32.320             88.591
 Electronic               0.000              0.000              0.000
 Translational            0.889              2.981             40.409
 Rotational               0.889              2.981             28.643
 Vibrational            103.191             26.358             19.539
 Vibration     1          0.600              1.963              3.904
 Vibration     2          0.616              1.909              2.745
 Vibration     3          0.633              1.854              2.228
 Vibration     4          0.676              1.722              1.575
 Vibration     5          0.686              1.693              1.477
 Vibration     6          0.730              1.568              1.150
 Vibration     7          0.743              1.533              1.078
 Vibration     8          0.766              1.470              0.963
 Vibration     9          0.796              1.392              0.840
 Vibration    10          0.855              1.251              0.659
 Vibration    11          0.902              1.146              0.550

 Optimization completed.
    -- Stationary point found.
 Normal termination of Gaussian 09 at Mon Jan 27 22:53:23 2020.
