 Gaussian 09, Revision D.01,
 Gaussian 09:  ES64L-G09RevD.01 24-Apr-2013

 -----------------------------
 # b3lyp 6-31G(2df,p) opt Freq
 -----------------------------

 -----
 titel
 -----
 Symbolic Z-matrix:
 Charge =  0 Multiplicity = 1

 SCF Done:  E(RB3LYP) =  -423.211351910     A.U. after   14 cycles
 Optimization completed.
    -- Stationary point found.
 Normal termination of Gaussian 09 at Mon Jan 27 13:38:34 2020.

 ----------------------------------------------------------------------
 #N Geom=AllCheck Guess=TCheck SCRF=Check GenChk RB3LYP/6-31G(2df,p) Fr
 eq
 ----------------------------------------------------------------------

 Structure from the checkpoint file:  "/scratch/puck/g09_a7c290f1-9afc-4084-879e-0142d07d4059/Gau-102225.chk"
 -----
 titel
 -----
 Charge =  0 Multiplicity = 1

                         Standard orientation:
 ---------------------------------------------------------------------
 Center     Atomic      Atomic             Coordinates (Angstroms)
 Number     Number       Type             X           Y           Z
 ---------------------------------------------------------------------
      1          8           0       -3.304308   -0.324464    0.337423
      2          6           0       -2.113432   -0.262581    0.397933
      3          8           0       -1.362199    0.260906   -0.594646
      4          6           0        0.042254    0.211115   -0.438382
      5          6           0        0.778542    1.487111   -0.697835
      6          6           0        0.781395    0.888607    0.697518
      7          6           0        1.951111   -0.004965    1.084543
      8          6           0        2.136772   -0.958720   -0.123930
      9          6           0        0.734858   -1.103499   -0.758356
     10          1           0       -1.508370   -0.606105    1.257302
     11          1           0        1.678742    1.473901   -1.303143
     12          1           0        0.154527    2.362613   -0.836313
     13          1           0        0.245073    1.428748    1.469556
     14          1           0        2.864660    0.554848    1.309843
     15          1           0        1.689222   -0.571578    1.986172
     16          1           0        2.829795   -0.517846   -0.846785
     17          1           0        2.560630   -1.922262    0.168111
     18          1           0        0.773388   -1.316486   -1.831074
     19          1           0        0.175393   -1.919775   -0.284835
 ---------------------------------------------------------------------

 SCF Done:  E(RB3LYP) =  -423.211351910     A.U. after    1 cycles

 The electronic state is 1-A.
 Alpha  occ. eigenvalues --  -19.18949 -19.13015 -10.30671 -10.25629 -10.20490
 Alpha  occ. eigenvalues --  -10.19756 -10.19703 -10.19696 -10.19630  -1.10420
 Alpha  occ. eigenvalues --   -1.02767  -0.89301  -0.77888  -0.72630  -0.64480
 Alpha  occ. eigenvalues --   -0.63651  -0.57951  -0.56738  -0.54112  -0.48543
 Alpha  occ. eigenvalues --   -0.46991  -0.44961  -0.44609  -0.42521  -0.41651
 Alpha  occ. eigenvalues --   -0.40793  -0.37688  -0.35739  -0.35215  -0.34892
 Alpha  occ. eigenvalues --   -0.32551  -0.29792  -0.27511  -0.26992
 Alpha virt. eigenvalues --    0.00510   0.07337   0.08602   0.10754   0.11680
 Alpha virt. eigenvalues --    0.12447   0.13411   0.14103   0.15495   0.16688
 Alpha virt. eigenvalues --    0.17056   0.18632   0.19795   0.21364   0.22082

 Mulliken charges:
               1
     1  O   -0.273977
     2  C    0.150848
     3  O   -0.237700
     4  C    0.432860
     5  C   -0.336188
     6  C   -0.102956
     7  C   -0.212766
     8  C   -0.228124
     9  C   -0.267681
    10  H    0.081087
    11  H    0.116164
    12  H    0.130849
    13  H    0.098044
    14  H    0.105814
    15  H    0.104405
    16  H    0.113022
    17  H    0.107604
    18  H    0.113071
    19  H    0.105626
 Sum of Mulliken charges =   0.00000

 Dipole moment (field-independent basis, Debye):
    X=              4.1660    Y=             -0.1223    Z=              0.7011  Tot=              4.2263
 Quadrupole moment (field-independent basis, Debye-Ang):
   XX=            -66.0462   YY=            -51.2114   ZZ=            -52.2112
   XY=             -1.1441   XZ=             -1.2940   YZ=              0.0966

  Exact polarizability:  89.543   1.204  69.208  -0.892  -1.970  68.039
 Approx polarizability: 123.967   4.765  99.721  -2.103  -4.507 104.548

                      1                      2                      3
                      A                      A                      A
 Frequencies --     84.0849               129.4660               156.2340
 Red. masses --      5.2803                 3.7962                 2.2542
 Frc consts  --      0.0220                 0.0375                 0.0324
 IR Inten    --      0.0862                 1.5528                17.4750

                      4                      5                      6
                      A                      A                      A
 Frequencies --    241.4121               268.6490               363.4833
 Red. masses --      1.7138                 2.7519                 3.3826
 Frc consts  --      0.0588                 0.1170                 0.2633
 IR Inten    --      0.1276                 0.2789                 0.9541

                      7                      8                      9
                      A                      A                      A
 Frequencies --    396.1718               453.7486               499.4002
 Red. masses --      3.3382                 4.5122                 2.8981
 Frc consts  --      0.3087                 0.5474                 0.4259
 IR Inten    --      3.3021                 2.4702                 1.7670

                     10                     11                     12
                      A                      A                      A
 Frequencies --    613.0426               637.6004               764.3373
 Red. masses --      2.6577                 2.4864                 3.0483
 Frc consts  --      0.5885                 0.5956                 1.0493
 IR Inten    --      0.2986                 3.5051                 6.1165

                     13                     14                     15
                      A                      A                      A
 Frequencies --    810.6063               840.0874               885.7270
 Red. masses --      1.8139                 2.1873                 1.6474
 Frc consts  --      0.7022                 0.9095                 0.7615
 IR Inten    --      0.3811                 2.1968                 0.9877

                     16                     17                     18
                      A                      A                      A
 Frequencies --    896.1118               933.0062               968.5486
 Red. masses --      2.4891                 1.5350                 1.9588
 Frc consts  --      1.1777                 0.7873                 1.0826
 IR Inten    --      1.6176                 3.8662                 2.4292

                     19                     20                     21
                      A                      A                      A
 Frequencies --    982.2389               999.3493              1048.5813
 Red. masses --      2.2701                 1.8244                 1.6426
 Frc consts  --      1.2904                 1.0735                 1.0641
 IR Inten    --      6.3009                 1.7082                 0.8936

                     22                     23                     24
                      A                      A                      A
 Frequencies --   1054.4455              1070.8368              1085.8852
 Red. masses --      1.5159                 1.2525                 2.1386
 Frc consts  --      0.9930                 0.8462                 1.4858
 IR Inten    --      3.6910                 3.1917                10.5355

                     25                     26                     27
                      A                      A                      A
 Frequencies --   1122.1279              1165.7752              1185.9547
 Red. masses --      1.9932                 3.2048                 1.6316
 Frc consts  --      1.4787                 2.5662                 1.3521
 IR Inten    --      6.1914               241.4336                22.5300

                     28                     29                     30
                      A                      A                      A
 Frequencies --   1200.3717              1243.9192              1257.7866
 Red. masses --      1.7096                 2.1164                 1.2689
 Frc consts  --      1.4514                 1.9294                 1.1827
 IR Inten    --     72.5187                69.9441                 2.5702

                     31                     32                     33
                      A                      A                      A
 Frequencies --   1286.5189              1320.1488              1336.1529
 Red. masses --      1.6206                 2.1152                 1.3343
 Frc consts  --      1.5804                 2.1720                 1.4036
 IR Inten    --      3.0003                 1.6767                15.2170

                     34                     35                     36
                      A                      A                      A
 Frequencies --   1350.0858              1391.4127              1420.2137
 Red. masses --      1.6280                 1.7315                 1.1471
 Frc consts  --      1.7483                 1.9750                 1.3632
 IR Inten    --      2.0842                25.2883                 0.6838

                     37                     38                     39
                      A                      A                      A
 Frequencies --   1480.1437              1493.1729              1495.2925
 Red. masses --      1.3442                 1.0961                 1.0814
 Frc consts  --      1.7351                 1.4398                 1.4246
 IR Inten    --     13.4853                 1.2309                 1.0451

                     40                     41                     42
                      A                      A                      A
 Frequencies --   1516.7190              1865.6553              2967.8406
 Red. masses --      1.1262                 9.6811                 1.0885
 Frc consts  --      1.5264                19.8536                 5.6489
 IR Inten    --      6.7645               412.4365                49.7437

                     43                     44                     45
                      A                      A                      A
 Frequencies --   3032.7125              3034.3960              3057.8319
 Red. masses --      1.0624                 1.0641                 1.0705
 Frc consts  --      5.7573                 5.7724                 5.8972
 IR Inten    --     41.7342                22.7849                 8.0535

                     46                     47                     48
                      A                      A                      A
 Frequencies --   3076.8390              3084.6458              3108.0725
 Red. masses --      1.0969                 1.0948                 1.1037
 Frc consts  --      6.1183                 6.1374                 6.2816
 IR Inten    --     30.7705                29.4413                30.9733

                     49                     50                     51
                      A                      A                      A
 Frequencies --   3135.3688              3175.6077              3224.9482
 Red. masses --      1.0552                 1.0914                 1.1158
 Frc consts  --      6.1119                 6.4845                 6.8370
 IR Inten    --     10.2467                 7.9079                 5.5294

 - Thermochemistry -
 -------------------
 Temperature   298.150 Kelvin.  Pressure   1.00000 Atm.
 Atom     1 has atomic number  8 and mass  15.99491

 Molecular mass:   126.06808 amu.
 Principal axes and moments of inertia in atomic units:
                           1         2         3
     Eigenvalues --   524.054021681.383371772.20311
           X            0.99995  -0.00950  -0.00026
           Y            0.00950   0.99995   0.00374
           Z            0.00023  -0.00374   0.99999
 This molecule is an asymmetric top.
 Rotational symmetry number  1.
 Warning -- assumption of classical behavior for rotation
           may cause significant error
 Rotational temperatures (Kelvin)      0.16528     0.05151     0.04887
 Rotational constants (GHZ):           3.44381     1.07337     1.01836
 Zero-point vibrational energy     419965.6 (Joules/Mol)
                                  100.37419 (Kcal/Mol)
 Warning -- explicit consideration of  10 degrees of freedom as
           vibrations may cause significant error
 Vibrational temperatures:    120.98   186.27   224.79   347.34   386.53
          (Kelvin)            522.97   570.00   652.84   718.52   882.03
                              917.36  1099.71  1166.28  1208.70  1274.36
                             1289.30  1342.39  1393.52  1413.22  1437.84
                             1508.67  1517.11  1540.69  1562.34  1614.49
                             1677.29  1706.32  1727.06  1789.72  1809.67
                             1851.01  1899.40  1922.42  1942.47  2001.93
                             2043.37  2129.59  2148.34  2151.39  2182.22
                             2684.26  4270.06  4363.39  4365.81  4399.53
                             4426.88  4438.11  4471.82  4511.09  4568.99
                             4639.98

 Zero-point correction=                           0.159956 (Hartree/Particle)
 Thermal correction to Energy=                    0.168069
 Thermal correction to Enthalpy=                  0.169014
 Thermal correction to Gibbs Free Energy=         0.127018
 Sum of electronic and zero-point Energies=           -423.051395
 Sum of electronic and thermal Energies=              -423.043283
 Sum of electronic and thermal Enthalpies=            -423.042338
 Sum of electronic and thermal Free Energies=         -423.084334

                     E (Thermal)             CV                S
                      KCal/Mol        Cal/Mol-Kelvin    Cal/Mol-Kelvin
 Total                  105.465             31.023             88.386
 Electronic               0.000              0.000              0.000
 Translational            0.889              2.981             40.409
 Rotational               0.889              2.981             28.836
 Vibrational            103.688             25.062             19.141
 Vibration     1          0.601              1.960              3.793
 Vibration     2          0.612              1.924              2.954
 Vibration     3          0.620              1.896              2.595
 Vibration     4          0.658              1.777              1.792
 Vibration     5          0.673              1.731              1.605
 Vibration     6          0.737              1.547              1.107
 Vibration     7          0.763              1.478              0.977
 Vibration     8          0.812              1.353              0.785
 Vibration     9          0.855              1.251              0.660
 Vibration    10          0.972              1.004              0.428

 Optimization completed.
    -- Stationary point found.
 Normal termination of Gaussian 09 at Mon Jan 27 14:20:38 2020.
