 Gaussian 09, Revision D.01,
 Gaussian 09:  ES64L-G09RevD.01 24-Apr-2013

 -----------------------------
 # b3lyp 6-31G(2df,p) opt Freq
 -----------------------------

 -----
 titel
 -----
 Symbolic Z-matrix:
 Charge =  0 Multiplicity = 1

 SCF Done:  E(RB3LYP) =  -423.114681642     A.U. after   14 cycles
 SCF Done:  E(RB3LYP) =  -423.114681645     A.U. after    6 cycles
 SCF Done:  E(RB3LYP) =  -423.114681618     A.U. after    7 cycles
 SCF Done:  E(RB3LYP) =  -423.114681707     A.U. after    6 cycles
 Optimization completed.
    -- Stationary point found.
 Normal termination of Gaussian 09 at Tue Jan 28 13:56:39 2020.

 ----------------------------------------------------------------------
 #N Geom=AllCheck Guess=TCheck SCRF=Check GenChk RB3LYP/6-31G(2df,p) Fr
 eq
 ----------------------------------------------------------------------

 Structure from the checkpoint file:  "/scratch/puck/g09_2d02e688-36d0-4780-b89e-9f36b2bdba90/Gau-93974.chk"
 -----
 titel
 -----
 Charge =  0 Multiplicity = 1

                         Standard orientation:
 ---------------------------------------------------------------------
 Center     Atomic      Atomic             Coordinates (Angstroms)
 Number     Number       Type             X           Y           Z
 ---------------------------------------------------------------------
      1          6           0       -2.926199   -0.430899   -0.376723
      2          8           0       -1.647017    0.178854   -0.391858
      3          6           0       -0.598875   -0.728633   -0.242184
      4          6           0       -0.167267   -1.156900    1.130926
      5          6           0        0.677772   -0.155750    0.332546
      6          6           0        0.620364    1.316401    0.753075
      7          8           0        0.516773    2.184449   -0.354123
      8          6           0        1.920308   -0.607990   -0.231157
      9          6           0        2.965675   -0.987493   -0.689328
     10          1           0       -3.108719   -0.954421    0.571465
     11          1           0       -3.662918    0.365823   -0.497895
     12          1           0       -3.035726   -1.149735   -1.201216
     13          1           0       -0.505523   -1.447574   -1.055613
     14          1           0       -0.710870   -0.751034    1.977426
     15          1           0        0.222244   -2.159060    1.264219
     16          1           0       -0.216105    1.453727    1.451571
     17          1           0        1.544262    1.580829    1.275197
     18          1           0       -0.323957    1.973990   -0.778264
     19          1           0        3.888603   -1.311392   -1.101962
 ---------------------------------------------------------------------

 SCF Done:  E(RB3LYP) =  -423.114681707     A.U. after    1 cycles

 The electronic state is 1-A.
 Alpha  occ. eigenvalues --  -19.16543 -19.12318 -10.24982 -10.23897 -10.22771
 Alpha  occ. eigenvalues --  -10.21919 -10.19967 -10.17800 -10.16812  -1.05868
 Alpha  occ. eigenvalues --   -1.00764  -0.87489  -0.74328  -0.70690  -0.69186
 Alpha  occ. eigenvalues --   -0.61857  -0.59414  -0.54693  -0.51543  -0.49749
 Alpha  occ. eigenvalues --   -0.48449  -0.46278  -0.44652  -0.43252  -0.42146
 Alpha  occ. eigenvalues --   -0.40321  -0.36357  -0.35227  -0.32680  -0.31328
 Alpha  occ. eigenvalues --   -0.28187  -0.26548  -0.24845  -0.24592
 Alpha virt. eigenvalues --    0.04858   0.05216   0.08201   0.10354   0.10949
 Alpha virt. eigenvalues --    0.11734   0.13343   0.14038   0.14838   0.15975
 Alpha virt. eigenvalues --    0.16265   0.16467   0.18687   0.20137   0.21053

 Mulliken charges:
               1
     1  C   -0.237220
     2  O   -0.251749
     3  C    0.093883
     4  C   -0.362850
     5  C    0.041442
     6  C   -0.117482
     7  O   -0.421062
     8  C    0.279267
     9  C   -0.438648
    10  H    0.117400
    11  H    0.134698
    12  H    0.116369
    13  H    0.105577
    14  H    0.123714
    15  H    0.128265
    16  H    0.087697
    17  H    0.116129
    18  H    0.293465
    19  H    0.191107
 Sum of Mulliken charges =   0.00000

 Dipole moment (field-independent basis, Debye):
    X=             -2.2999    Y=             -2.1581    Z=              0.5904  Tot=              3.2087
 Quadrupole moment (field-independent basis, Debye-Ang):
   XX=            -46.7727   YY=            -56.6410   ZZ=            -51.8028
   XY=             -2.0751   XZ=              0.0851   YZ=              1.8277

  Exact polarizability: 103.134  -5.368  69.481  -7.074   1.799  65.882
 Approx polarizability: 142.840 -10.419  99.850 -15.667   2.054 100.549

                      1                      2                      3
                      A                      A                      A
 Frequencies --     80.2516                88.7690               122.9743
 Red. masses --      2.9601                 4.2753                 4.1061
 Frc consts  --      0.0112                 0.0198                 0.0366
 IR Inten    --      1.0729                 1.7394                 0.7703

                      4                      5                      6
                      A                      A                      A
 Frequencies --    141.3659               192.0891               218.6936
 Red. masses --      2.0337                 1.7420                 2.1126
 Frc consts  --      0.0239                 0.0379                 0.0595
 IR Inten    --      0.3069                 0.1403                 3.1899

                      7                      8                      9
                      A                      A                      A
 Frequencies --    231.0667               345.3891               368.9010
 Red. masses --      3.1548                 2.7641                 4.9484
 Frc consts  --      0.0992                 0.1943                 0.3968
 IR Inten    --      0.1553                 1.9799                 5.3740

                     10                     11                     12
                      A                      A                      A
 Frequencies --    423.8817               490.5915               496.6699
 Red. masses --      5.2158                 1.6930                 1.5712
 Frc consts  --      0.5522                 0.2401                 0.2284
 IR Inten    --      4.3152                36.5769                41.9401

                     13                     14                     15
                      A                      A                      A
 Frequencies --    551.6478               570.2859               592.7471
 Red. masses --      3.3233                 3.4996                 1.3203
 Frc consts  --      0.5959                 0.6706                 0.2733
 IR Inten    --     26.7387                 5.6151                41.2060

                     16                     17                     18
                      A                      A                      A
 Frequencies --    643.4489               769.4820               830.9034
 Red. masses --      1.2285                 3.7337                 2.3199
 Frc consts  --      0.2997                 1.3025                 0.9437
 IR Inten    --     40.0883                14.8658                 6.5041

                     19                     20                     21
                      A                      A                      A
 Frequencies --    899.7356               925.4543               953.7225
 Red. masses --      2.3342                 1.9781                 1.7206
 Frc consts  --      1.1133                 0.9982                 0.9221
 IR Inten    --     16.0757                 3.2513                24.1642

                     22                     23                     24
                      A                      A                      A
 Frequencies --   1021.8932              1032.2914              1056.5842
 Red. masses --      2.5402                 2.4491                 1.5486
 Frc consts  --      1.5629                 1.5377                 1.0186
 IR Inten    --     24.3596                 2.2411                 9.2124

                     25                     26                     27
                      A                      A                      A
 Frequencies --   1081.0349              1115.0149              1166.4726
 Red. masses --      5.0413                 1.4937                 2.6096
 Frc consts  --      3.4711                 1.0941                 2.0920
 IR Inten    --    117.6730                16.5096                99.6667

                     28                     29                     30
                      A                      A                      A
 Frequencies --   1182.8168              1205.4036              1237.5042
 Red. masses --      1.3067                 1.3686                 1.8367
 Frc consts  --      1.0772                 1.1716                 1.6572
 IR Inten    --      3.7787                13.2697                66.2806

                     31                     32                     33
                      A                      A                      A
 Frequencies --   1275.1777              1300.8825              1393.5881
 Red. masses --      3.3382                 1.5503                 1.2196
 Frc consts  --      3.1982                 1.5458                 1.3955
 IR Inten    --     13.0471                 3.2770                 9.5317

                     34                     35                     36
                      A                      A                      A
 Frequencies --   1404.4720              1432.6992              1466.8936
 Red. masses --      1.5022                 1.2148                 1.2192
 Frc consts  --      1.7458                 1.4692                 1.5457
 IR Inten    --     27.6235                64.5384                18.2097

                     37                     38                     39
                      A                      A                      A
 Frequencies --   1485.0813              1486.9841              1497.1163
 Red. masses --      1.0954                 1.1804                 1.1115
 Frc consts  --      1.4234                 1.5377                 1.4679
 IR Inten    --      4.1355                 5.0009                 4.4449

                     40                     41                     42
                      A                      A                      A
 Frequencies --   1508.3607              2236.4352              2995.0160
 Red. masses --      1.0771                 6.0265                 1.0351
 Frc consts  --      1.4439                17.7594                 5.4707
 IR Inten    --      5.9469                11.5158                59.9739

                     43                     44                     45
                      A                      A                      A
 Frequencies --   3009.0678              3050.7547              3091.4409
 Red. masses --      1.0668                 1.1036                 1.0967
 Frc consts  --      5.6909                 6.0519                 6.1753
 IR Inten    --     46.6165                41.8507                27.4952

                     46                     47                     48
                      A                      A                      A
 Frequencies --   3111.2015              3127.4589              3138.2543
 Red. masses --      1.0879                 1.0989                 1.0544
 Frc consts  --      6.2046                 6.3325                 6.1185
 IR Inten    --     17.8279                22.7660                 5.9286

                     49                     50                     51
                      A                      A                      A
 Frequencies --   3233.6371              3504.2771              3788.8696
 Red. masses --      1.1176                 1.1603                 1.0656
 Frc consts  --      6.8855                 8.3950                 9.0125
 IR Inten    --      4.1633                79.3833                41.2032

 - Thermochemistry -
 -------------------
 Temperature   298.150 Kelvin.  Pressure   1.00000 Atm.
 Atom     1 has atomic number  6 and mass  12.00000

 Molecular mass:   126.06808 amu.
 Principal axes and moments of inertia in atomic units:
                           1         2         3
     Eigenvalues --   748.808551488.511241873.55617
           X            0.99993   0.01147   0.00215
           Y           -0.01151   0.99977   0.01810
           Z           -0.00194  -0.01812   0.99983
 This molecule is an asymmetric top.
 Rotational symmetry number  1.
 Warning -- assumption of classical behavior for rotation
           may cause significant error
 Rotational temperatures (Kelvin)      0.11567     0.05819     0.04623
 Rotational constants (GHZ):           2.41015     1.21245     0.96327
 Zero-point vibrational energy     410168.1 (Joules/Mol)
                                   98.03253 (Kcal/Mol)
 Warning -- explicit consideration of  15 degrees of freedom as
           vibrations may cause significant error
 Vibrational temperatures:    115.46   127.72   176.93   203.39   276.37
          (Kelvin)            314.65   332.45   496.94   530.77   609.87
                              705.85   714.60   793.70   820.51   852.83
                              925.78  1107.11  1195.48  1294.52  1331.52
                             1372.19  1470.27  1485.24  1520.19  1555.37
                             1604.26  1678.29  1701.81  1734.30  1780.49
                             1834.69  1871.68  2005.06  2020.72  2061.33
                             2110.53  2136.70  2139.44  2154.01  2170.19
                             3217.73  4309.15  4329.37  4389.35  4447.89
                             4476.32  4499.71  4515.24  4652.48  5041.87
                             5451.33

 Zero-point correction=                           0.156225 (Hartree/Particle)
 Thermal correction to Energy=                    0.166265
 Thermal correction to Enthalpy=                  0.167209
 Thermal correction to Gibbs Free Energy=         0.121177
 Sum of electronic and zero-point Energies=           -422.958457
 Sum of electronic and thermal Energies=              -422.948417
 Sum of electronic and thermal Enthalpies=            -422.947473
 Sum of electronic and thermal Free Energies=         -422.993504

                     E (Thermal)             CV                S
                      KCal/Mol        Cal/Mol-Kelvin    Cal/Mol-Kelvin
 Total                  104.333             36.587             96.882
 Electronic               0.000              0.000              0.000
 Translational            0.889              2.981             40.409
 Rotational               0.889              2.981             29.125
 Vibrational            102.555             30.625             27.348
 Vibration     1          0.600              1.963              3.885
 Vibration     2          0.602              1.957              3.687
 Vibration     3          0.610              1.930              3.053
 Vibration     4          0.615              1.912              2.785
 Vibration     5          0.634              1.851              2.208
 Vibration     6          0.646              1.813              1.970
 Vibration     7          0.653              1.794              1.871
 Vibration     8          0.724              1.585              1.187
 Vibration     9          0.741              1.536              1.084
 Vibration    10          0.786              1.418              0.879
 Vibration    11          0.846              1.271              0.682
 Vibration    12          0.852              1.257              0.667
 Vibration    13          0.907              1.136              0.541
 Vibration    14          0.926              1.096              0.504
 Vibration    15          0.950              1.047              0.462

 Optimization completed.
    -- Stationary point found.
 Normal termination of Gaussian 09 at Tue Jan 28 15:08:07 2020.
