 Gaussian 09, Revision D.01,
 Gaussian 09:  ES64L-G09RevD.01 24-Apr-2013

 -----------------------------
 # b3lyp 6-31G(2df,p) opt Freq
 -----------------------------

 -----
 titel
 -----
 Symbolic Z-matrix:
 Charge =  0 Multiplicity = 1

 SCF Done:  E(RB3LYP) =  -423.193767167     A.U. after   14 cycles
 Optimization completed.
    -- Stationary point found.
 Normal termination of Gaussian 09 at Mon Jan 27 15:45:18 2020.

 ----------------------------------------------------------------------
 #N Geom=AllCheck Guess=TCheck SCRF=Check GenChk RB3LYP/6-31G(2df,p) Fr
 eq
 ----------------------------------------------------------------------

 Structure from the checkpoint file:  "/scratch/puck/g09_875245c4-18ee-45ba-9b5a-be541438b484/Gau-9896.chk"
 -----
 titel
 -----
 Charge =  0 Multiplicity = 1

                         Standard orientation:
 ---------------------------------------------------------------------
 Center     Atomic      Atomic             Coordinates (Angstroms)
 Number     Number       Type             X           Y           Z
 ---------------------------------------------------------------------
      1          6           0       -1.593361    1.665790    0.578843
      2          6           0       -1.161183    0.185069    0.510691
      3          6           0       -1.956769   -0.510433   -0.590752
      4          8           0       -2.779968   -1.365438   -0.400122
      5          6           0        0.314216    0.015883    0.259932
      6          6           0        1.157987   -0.784255    0.908478
      7          6           0        2.539481   -0.660293    0.337997
      8          8           0        2.418532    0.276978   -0.730070
      9          6           0        1.082504    0.754760   -0.814460
     10          1           0       -1.448687    2.172548   -0.381216
     11          1           0       -2.651322    1.743227    0.844517
     12          1           0       -1.007678    2.199062    1.332648
     13          1           0       -1.428194   -0.318669    1.444275
     14          1           0       -1.728238   -0.150974   -1.621292
     15          1           0        0.913814   -1.438603    1.736247
     16          1           0        3.269826   -0.296059    1.078692
     17          1           0        2.924430   -1.616732   -0.049473
     18          1           0        1.063065    1.845875   -0.661109
     19          1           0        0.687218    0.568876   -1.826126
 ---------------------------------------------------------------------

 SCF Done:  E(RB3LYP) =  -423.193767167     A.U. after    1 cycles

 The electronic state is 1-A.
 Alpha  occ. eigenvalues --  -19.14555 -19.13879 -10.27655 -10.23776 -10.23501
 Alpha  occ. eigenvalues --  -10.21260 -10.20265 -10.19872 -10.19206  -1.05296
 Alpha  occ. eigenvalues --   -1.03767  -0.83402  -0.77029  -0.73592  -0.66954
 Alpha  occ. eigenvalues --   -0.61570  -0.58194  -0.55636  -0.50891  -0.48330
 Alpha  occ. eigenvalues --   -0.45998  -0.45566  -0.43655  -0.43046  -0.41664
 Alpha  occ. eigenvalues --   -0.41164  -0.39379  -0.38484  -0.36429  -0.35192
 Alpha  occ. eigenvalues --   -0.32110  -0.28499  -0.25743  -0.23184
 Alpha virt. eigenvalues --   -0.03193   0.01920   0.08010   0.10080   0.10804
 Alpha virt. eigenvalues --    0.12551   0.13204   0.14592   0.15094   0.15752
 Alpha virt. eigenvalues --    0.16941   0.17411   0.18733   0.19629   0.21159

 Mulliken charges:
               1
     1  C   -0.418434
     2  C   -0.172132
     3  C    0.165044
     4  O   -0.242512
     5  C    0.298897
     6  C   -0.221735
     7  C   -0.102688
     8  O   -0.263809
     9  C   -0.156194
    10  H    0.128890
    11  H    0.134823
    12  H    0.134640
    13  H    0.102040
    14  H    0.076401
    15  H    0.108626
    16  H    0.106567
    17  H    0.110102
    18  H    0.105394
    19  H    0.106080
 Sum of Mulliken charges =   0.00000

 Dipole moment (field-independent basis, Debye):
    X=              0.5423    Y=              1.4409    Z=              1.1238  Tot=              1.9061
 Quadrupole moment (field-independent basis, Debye-Ang):
   XX=            -62.9259   YY=            -54.1253   ZZ=            -51.8082
   XY=             -8.3296   XZ=              2.4438   YZ=             -1.4132

  Exact polarizability:  94.379  -5.979  74.526   5.497  -6.811  69.462
 Approx polarizability: 129.416  -5.495 114.423   9.681 -15.440 106.805

                      1                      2                      3
                      A                      A                      A
 Frequencies --     40.7194                56.9768                99.6359
 Red. masses --      3.3774                 5.6781                 2.9264
 Frc consts  --      0.0033                 0.0109                 0.0171
 IR Inten    --      0.9829                 6.1802                 5.1326

                      4                      5                      6
                      A                      A                      A
 Frequencies --    151.0477               189.8353               233.4498
 Red. masses --      2.4905                 3.3487                 1.0504
 Frc consts  --      0.0335                 0.0711                 0.0337
 IR Inten    --      2.2659                 1.3102                 0.2129

                      7                      8                      9
                      A                      A                      A
 Frequencies --    287.4026               307.3437               413.7196
 Red. masses --      2.2292                 2.6107                 3.9696
 Frc consts  --      0.1085                 0.1453                 0.4003
 IR Inten    --      2.2403                 0.8004                11.9731

                     10                     11                     12
                      A                      A                      A
 Frequencies --    450.3016               520.2235               674.9357
 Red. masses --      4.1387                 2.4866                 3.5339
 Frc consts  --      0.4944                 0.3965                 0.9485
 IR Inten    --      0.2529                 7.8057                 3.3504

                     13                     14                     15
                      A                      A                      A
 Frequencies --    776.8067               826.9954               880.0044
 Red. masses --      6.6630                 1.2702                 2.2319
 Frc consts  --      2.3689                 0.5118                 1.0183
 IR Inten    --      8.5214                 2.0716                12.6971

                     16                     17                     18
                      A                      A                      A
 Frequencies --    904.0769               925.3478               944.9767
 Red. masses --      2.3425                 3.2020                 2.3429
 Frc consts  --      1.1281                 1.6154                 1.2326
 IR Inten    --     30.6020                 7.6192                 1.2416

                     19                     20                     21
                      A                      A                      A
 Frequencies --    972.6061              1023.8342              1038.5566
 Red. masses --      2.1844                 1.5887                 1.7962
 Frc consts  --      1.2175                 0.9812                 1.1415
 IR Inten    --      9.8990                18.6795                15.0790

                     22                     23                     24
                      A                      A                      A
 Frequencies --   1061.1389              1089.4253              1117.1577
 Red. masses --      1.7081                 2.3146                 6.8860
 Frc consts  --      1.1332                 1.6185                 5.0635
 IR Inten    --      1.3258                 0.8473                58.7797

                     25                     26                     27
                      A                      A                      A
 Frequencies --   1141.2730              1178.1003              1208.1809
 Red. masses --      2.1611                 1.0985                 1.8533
 Frc consts  --      1.6584                 0.8983                 1.5939
 IR Inten    --     21.3422                 1.1409                 4.2815

                     28                     29                     30
                      A                      A                      A
 Frequencies --   1230.3445              1266.6834              1297.5990
 Red. masses --      1.0637                 1.8762                 1.4911
 Frc consts  --      0.9487                 1.7736                 1.4792
 IR Inten    --      0.1817                 4.0608                 1.3378

                     31                     32                     33
                      A                      A                      A
 Frequencies --   1342.9538              1370.1842              1397.5145
 Red. masses --      1.3370                 1.6334                 1.4999
 Frc consts  --      1.4207                 1.8068                 1.7260
 IR Inten    --      0.8144                 9.1411                 3.7012

                     34                     35                     36
                      A                      A                      A
 Frequencies --   1402.4441              1427.9961              1497.6194
 Red. masses --      1.2053                 1.1898                 1.0538
 Frc consts  --      1.3967                 1.4294                 1.3925
 IR Inten    --      1.4337                 3.8197                 3.7070

                     37                     38                     39
                      A                      A                      A
 Frequencies --   1498.3113              1516.9434              1529.4323
 Red. masses --      1.0436                 1.0806                 1.0868
 Frc consts  --      1.3803                 1.4650                 1.4978
 IR Inten    --      7.0839                 2.9601                 0.4719

                     40                     41                     42
                      A                      A                      A
 Frequencies --   1717.0912              1836.1039              2858.4077
 Red. masses --      7.3949                10.3775                 1.0817
 Frc consts  --     12.8461                20.6129                 5.2072
 IR Inten    --      3.4569               195.4703                83.7714

                     43                     44                     45
                      A                      A                      A
 Frequencies --   2965.4732              2973.1959              2981.5000
 Red. masses --      1.0551                 1.0601                 1.1041
 Frc consts  --      5.4668                 5.5212                 5.7828
 IR Inten    --    134.1981                20.0080                30.8679

                     46                     47                     48
                      A                      A                      A
 Frequencies --   2988.5823              3039.0186              3071.6273
 Red. masses --      1.1027                 1.0348                 1.0852
 Frc consts  --      5.8026                 5.6310                 6.0323
 IR Inten    --     63.0544                19.4643                 6.4833

                     49                     50                     51
                      A                      A                      A
 Frequencies --   3110.4176              3121.1831              3212.5174
 Red. masses --      1.1003                 1.1031                 1.0953
 Frc consts  --      6.2716                 6.3313                 6.6601
 IR Inten    --     22.6168                14.5087                 4.4670

 - Thermochemistry -
 -------------------
 Temperature   298.150 Kelvin.  Pressure   1.00000 Atm.
 Atom     1 has atomic number  6 and mass  12.00000

 Molecular mass:   126.06808 amu.
 Principal axes and moments of inertia in atomic units:
                           1         2         3
     Eigenvalues --   592.319621835.477982014.89376
           X            0.99921  -0.03951   0.00290
           Y            0.03958   0.99872  -0.03138
           Z           -0.00165   0.03147   0.99950
 This molecule is an asymmetric top.
 Rotational symmetry number  1.
 Warning -- assumption of classical behavior for rotation
           may cause significant error
 Rotational temperatures (Kelvin)      0.14623     0.04719     0.04299
 Rotational constants (GHZ):           3.04690     0.98325     0.89570
 Zero-point vibrational energy     413711.8 (Joules/Mol)
                                   98.87950 (Kcal/Mol)
 Warning -- explicit consideration of  11 degrees of freedom as
           vibrations may cause significant error
 Vibrational temperatures:     58.59    81.98   143.35   217.32   273.13
          (Kelvin)            335.88   413.51   442.20   595.25   647.88
                              748.48   971.08  1117.65  1189.86  1266.13
                             1300.76  1331.37  1359.61  1399.36  1473.07
                             1494.25  1526.74  1567.44  1607.34  1642.04
                             1695.02  1738.30  1770.19  1822.47  1866.95
                             1932.21  1971.39  2010.71  2017.80  2054.57
                             2154.74  2155.73  2182.54  2200.51  2470.51
                             2641.74  4112.61  4266.65  4277.76  4289.71
                             4299.90  4372.46  4419.38  4475.19  4490.68
                             4622.09

 Zero-point correction=                           0.157575 (Hartree/Particle)
 Thermal correction to Energy=                    0.166988
 Thermal correction to Enthalpy=                  0.167932
 Thermal correction to Gibbs Free Energy=         0.121902
 Sum of electronic and zero-point Energies=           -423.036193
 Sum of electronic and thermal Energies=              -423.026779
 Sum of electronic and thermal Enthalpies=            -423.025835
 Sum of electronic and thermal Free Energies=         -423.071865

                     E (Thermal)             CV                S
                      KCal/Mol        Cal/Mol-Kelvin    Cal/Mol-Kelvin
 Total                  104.787             32.913             96.879
 Electronic               0.000              0.000              0.000
 Translational            0.889              2.981             40.409
 Rotational               0.889              2.981             29.173
 Vibrational            103.009             26.951             27.298
 Vibration     1          0.594              1.981              5.224
 Vibration     2          0.596              1.975              4.559
 Vibration     3          0.604              1.949              3.461
 Vibration     4          0.618              1.902              2.659
 Vibration     5          0.633              1.854              2.229
 Vibration     6          0.654              1.790              1.852
 Vibration     7          0.685              1.697              1.489
 Vibration     8          0.697              1.660              1.377
 Vibration     9          0.777              1.440              0.914
 Vibration    10          0.809              1.360              0.795
 Vibration    11          0.875              1.205              0.609

 Optimization completed.
    -- Stationary point found.
 Normal termination of Gaussian 09 at Mon Jan 27 17:29:52 2020.
