 Gaussian 09, Revision D.01,
 Gaussian 09:  ES64L-G09RevD.01 24-Apr-2013

 -----------------------------
 # b3lyp 6-31G(2df,p) opt Freq
 -----------------------------

 -----
 titel
 -----
 Symbolic Z-matrix:
 Charge =  0 Multiplicity = 1

 SCF Done:  E(RB3LYP) =  -423.165832938     A.U. after   14 cycles
 Optimization completed.
    -- Stationary point found.
 Normal termination of Gaussian 09 at Mon Jan 27 22:06:42 2020.

 ----------------------------------------------------------------------
 #N Geom=AllCheck Guess=TCheck SCRF=Check GenChk RB3LYP/6-31G(2df,p) Fr
 eq
 ----------------------------------------------------------------------

 Structure from the checkpoint file:  "/scratch/puck/g09_48961ca4-6b27-43e7-a79c-2a6cd7bef527/Gau-85632.chk"
 -----
 titel
 -----
 Charge =  0 Multiplicity = 1

                         Standard orientation:
 ---------------------------------------------------------------------
 Center     Atomic      Atomic             Coordinates (Angstroms)
 Number     Number       Type             X           Y           Z
 ---------------------------------------------------------------------
      1          6           0       -3.045659    0.251609    0.012519
      2          6           0       -1.607219   -0.020456    0.393678
      3          6           0       -0.698945   -0.757930   -0.564680
      4          6           0        0.451451   -1.466704    0.077646
      5          8           0        1.738858   -1.120116   -0.469316
      6          6           0        1.314249   -0.482316    0.746902
      7          6           0        0.820728    0.940915    0.461124
      8          8           0        1.772152    1.672381   -0.287888
      9          6           0       -0.492080    0.723119   -0.299081
     10          1           0       -3.138322    0.453751   -1.059514
     11          1           0       -3.687905   -0.604211    0.247192
     12          1           0       -3.437870    1.122240    0.549008
     13          1           0       -1.455141   -0.235369    1.450502
     14          1           0       -1.100183   -1.123116   -1.504149
     15          1           0        0.368296   -2.495270    0.420223
     16          1           0        1.917018   -0.706336    1.622534
     17          1           0        0.668358    1.504269    1.388321
     18          1           0        2.072888    1.069213   -0.980988
     19          1           0       -0.750365    1.467291   -1.044145
 ---------------------------------------------------------------------

 SCF Done:  E(RB3LYP) =  -423.165832938     A.U. after    1 cycles

 The electronic state is 1-A.
 Alpha  occ. eigenvalues --  -19.15660 -19.12890 -10.24268 -10.23633 -10.23602
 Alpha  occ. eigenvalues --  -10.20091 -10.19585 -10.18992 -10.18477  -1.07781
 Alpha  occ. eigenvalues --   -1.01143  -0.87945  -0.74162  -0.70741  -0.67494
 Alpha  occ. eigenvalues --   -0.60856  -0.57196  -0.56808  -0.54091  -0.48770
 Alpha  occ. eigenvalues --   -0.46600  -0.44099  -0.43588  -0.42288  -0.39767
 Alpha  occ. eigenvalues --   -0.39362  -0.38340  -0.36088  -0.33812  -0.32038
 Alpha  occ. eigenvalues --   -0.29081  -0.28229  -0.27929  -0.25077
 Alpha virt. eigenvalues --    0.07872   0.08987   0.10157   0.11057   0.11877
 Alpha virt. eigenvalues --    0.12342   0.14722   0.14830   0.15995   0.16456
 Alpha virt. eigenvalues --    0.17063   0.17276   0.18917   0.20921   0.22529

 Mulliken charges:
               1
     1  C   -0.418638
     2  C   -0.021633
     3  C   -0.091042
     4  C    0.030846
     5  O   -0.271407
     6  C   -0.011057
     7  C    0.104811
     8  O   -0.438305
     9  C   -0.086798
    10  H    0.118580
    11  H    0.119756
    12  H    0.122584
    13  H    0.082110
    14  H    0.091329
    15  H    0.100362
    16  H    0.100371
    17  H    0.086216
    18  H    0.289111
    19  H    0.092805
 Sum of Mulliken charges =   0.00000

 Dipole moment (field-independent basis, Debye):
    X=             -2.0745    Y=             -1.1340    Z=              0.8028  Tot=              2.4968
 Quadrupole moment (field-independent basis, Debye-Ang):
   XX=            -55.4896   YY=            -56.0617   ZZ=            -50.1343
   XY=             -1.3434   XZ=              1.6879   YZ=             -1.1021

  Exact polarizability:  85.447   0.823  72.530   1.239   0.844  64.915
 Approx polarizability: 113.114   3.838 110.212  -3.258   4.533 104.161

                      1                      2                      3
                      A                      A                      A
 Frequencies --    146.2415               180.1607               217.0040
 Red. masses --      3.0919                 2.6158                 1.4032
 Frc consts  --      0.0390                 0.0500                 0.0389
 IR Inten    --      2.4695                 1.1272                 1.2861

                      4                      5                      6
                      A                      A                      A
 Frequencies --    225.5661               280.3705               386.9393
 Red. masses --      2.4155                 4.0937                 3.1964
 Frc consts  --      0.0724                 0.1896                 0.2820
 IR Inten    --      0.1689                 4.1487                 0.0663

                      7                      8                      9
                      A                      A                      A
 Frequencies --    402.1747               453.4899               489.7279
 Red. masses --      3.4748                 2.2731                 1.5226
 Frc consts  --      0.3311                 0.2754                 0.2152
 IR Inten    --      0.0827                 7.5544                81.1919

                     10                     11                     12
                      A                      A                      A
 Frequencies --    554.8309               696.8715               785.2462
 Red. masses --      4.4069                 5.4815                 3.5470
 Frc consts  --      0.7993                 1.5684                 1.2886
 IR Inten    --     13.3634                 1.0820                15.0744

                     13                     14                     15
                      A                      A                      A
 Frequencies --    814.4085               824.5369               858.8533
 Red. masses --      4.4990                 2.3869                 2.2584
 Frc consts  --      1.7581                 0.9561                 0.9815
 IR Inten    --     10.4557                 6.6680                12.2574

                     16                     17                     18
                      A                      A                      A
 Frequencies --    883.3007               909.5414               930.3989
 Red. masses --      2.3929                 2.6756                 1.7232
 Frc consts  --      1.1000                 1.3041                 0.8789
 IR Inten    --      5.4812                24.8002                 5.6482

                     19                     20                     21
                      A                      A                      A
 Frequencies --    973.7691               998.7727              1045.0926
 Red. masses --      1.7022                 2.4199                 1.3960
 Frc consts  --      0.9510                 1.4223                 0.8983
 IR Inten    --     10.6913                 0.7741                 8.9221

                     22                     23                     24
                      A                      A                      A
 Frequencies --   1054.6025              1086.1066              1089.0359
 Red. masses --      2.2343                 2.1409                 1.4887
 Frc consts  --      1.4641                 1.4879                 1.0403
 IR Inten    --     36.4097                44.2082                15.3542

                     25                     26                     27
                      A                      A                      A
 Frequencies --   1097.2591              1126.0170              1142.5612
 Red. masses --      1.6168                 1.7008                 1.5480
 Frc consts  --      1.1469                 1.2705                 1.1906
 IR Inten    --     21.6926                 7.5518                 4.8128

                     28                     29                     30
                      A                      A                      A
 Frequencies --   1147.4307              1206.0836              1255.3664
 Red. masses --      1.6607                 1.8062                 1.3645
 Frc consts  --      1.2882                 1.5480                 1.2670
 IR Inten    --     17.0465                 0.5671                 3.8870

                     31                     32                     33
                      A                      A                      A
 Frequencies --   1261.4958              1291.9972              1302.5759
 Red. masses --      1.4588                 1.3289                 1.4733
 Frc consts  --      1.3678                 1.3070                 1.4728
 IR Inten    --     17.9089                 0.0953                 3.0917

                     34                     35                     36
                      A                      A                      A
 Frequencies --   1311.1518              1346.8821              1416.8636
 Red. masses --      1.5079                 1.6332                 1.2593
 Frc consts  --      1.5273                 1.7457                 1.4894
 IR Inten    --      1.4959                 3.1546                 5.2908

                     37                     38                     39
                      A                      A                      A
 Frequencies --   1420.3080              1436.9002              1448.4981
 Red. masses --      3.3648                 1.4079                 1.9987
 Frc consts  --      3.9992                 1.7127                 2.4708
 IR Inten    --     30.2377                58.7731                29.4585

                     40                     41                     42
                      A                      A                      A
 Frequencies --   1493.5145              1502.0665              3029.4579
 Red. masses --      1.0446                 1.0791                 1.0351
 Frc consts  --      1.3729                 1.4345                 5.5972
 IR Inten    --      2.1859                 5.6316                35.0953

                     43                     44                     45
                      A                      A                      A
 Frequencies --   3053.2341              3093.0619              3096.2139
 Red. masses --      1.0853                 1.1013                 1.0973
 Frc consts  --      5.9611                 6.2077                 6.1980
 IR Inten    --     31.4351                22.5578                 8.0319

                     46                     47                     48
                      A                      A                      A
 Frequencies --   3117.9176              3142.0788              3157.9553
 Red. masses --      1.0911                 1.0873                 1.0932
 Frc consts  --      6.2493                 6.3243                 6.4235
 IR Inten    --     28.2475                17.1545                35.7808

                     49                     50                     51
                      A                      A                      A
 Frequencies --   3166.1205              3180.7160              3760.7217
 Red. masses --      1.0904                 1.0918                 1.0650
 Frc consts  --      6.4402                 6.5079                 8.8748
 IR Inten    --     14.1364                 7.8802                24.9572

 - Thermochemistry -
 -------------------
 Temperature   298.150 Kelvin.  Pressure   1.00000 Atm.
 Atom     1 has atomic number  6 and mass  12.00000

 Molecular mass:   126.06808 amu.
 Principal axes and moments of inertia in atomic units:
                           1         2         3
     Eigenvalues --   596.846081293.092361649.87898
           X            0.99992  -0.00821   0.00995
           Y            0.00835   0.99987  -0.01356
           Z           -0.00983   0.01364   0.99986
 This molecule is an asymmetric top.
 Rotational symmetry number  1.
 Warning -- assumption of classical behavior for rotation
           may cause significant error
 Rotational temperatures (Kelvin)      0.14512     0.06698     0.05250
 Rotational constants (GHZ):           3.02380     1.39568     1.09386
 Zero-point vibrational energy     420436.5 (Joules/Mol)
                                  100.48673 (Kcal/Mol)
 Warning -- explicit consideration of  10 degrees of freedom as
           vibrations may cause significant error
 Vibrational temperatures:    210.41   259.21   312.22   324.54   403.39
          (Kelvin)            556.72   578.64   652.47   704.61   798.28
                             1002.64  1129.79  1171.75  1186.32  1235.70
                             1270.87  1308.63  1338.63  1401.03  1437.01
                             1503.65  1517.34  1562.66  1566.88  1578.71
                             1620.09  1643.89  1650.89  1735.28  1806.19
                             1815.01  1858.89  1874.11  1886.45  1937.86
                             2038.55  2043.50  2067.38  2084.06  2148.83
                             2161.14  4358.71  4392.92  4450.22  4454.76
                             4485.98  4520.74  4543.59  4555.34  4576.34
                             5410.83

 Zero-point correction=                           0.160136 (Hartree/Particle)
 Thermal correction to Energy=                    0.167986
 Thermal correction to Enthalpy=                  0.168931
 Thermal correction to Gibbs Free Energy=         0.128081
 Sum of electronic and zero-point Energies=           -423.005697
 Sum of electronic and thermal Energies=              -422.997847
 Sum of electronic and thermal Enthalpies=            -422.996902
 Sum of electronic and thermal Free Energies=         -423.037752

                     E (Thermal)             CV                S
                      KCal/Mol        Cal/Mol-Kelvin    Cal/Mol-Kelvin
 Total                  105.413             31.247             85.976
 Electronic               0.000              0.000              0.000
 Translational            0.889              2.981             40.409
 Rotational               0.889              2.981             28.634
 Vibrational            103.636             25.286             16.933
 Vibration     1          0.617              1.907              2.721
 Vibration     2          0.629              1.867              2.327
 Vibration     3          0.646              1.815              1.984
 Vibration     4          0.650              1.802              1.914
 Vibration     5          0.680              1.710              1.531
 Vibration     6          0.755              1.498              1.012
 Vibration     7          0.768              1.465              0.955
 Vibration     8          0.812              1.353              0.785
 Vibration     9          0.846              1.273              0.684
 Vibration    10          0.910              1.129              0.534

 Optimization completed.
    -- Stationary point found.
 Normal termination of Gaussian 09 at Mon Jan 27 23:04:53 2020.
