 Gaussian 09, Revision D.01,
 Gaussian 09:  ES64L-G09RevD.01 24-Apr-2013

 -----------------------------
 # b3lyp 6-31G(2df,p) opt Freq
 -----------------------------

 -----
 titel
 -----
 Symbolic Z-matrix:
 Charge =  0 Multiplicity = 1

 SCF Done:  E(RB3LYP) =  -423.107489662     A.U. after   12 cycles
 Optimization completed.
    -- Stationary point found.
 Normal termination of Gaussian 09 at Mon Jan 27 22:12:18 2020.

 ----------------------------------------------------------------------
 #N Geom=AllCheck Guess=TCheck SCRF=Check GenChk RB3LYP/6-31G(2df,p) Fr
 eq
 ----------------------------------------------------------------------

 Structure from the checkpoint file:  "/scratch/puck/g09_c9a5a83b-85fc-4e26-a935-a4d2c3dc72e5/Gau-28528.chk"
 -----
 titel
 -----
 Charge =  0 Multiplicity = 1

                         Standard orientation:
 ---------------------------------------------------------------------
 Center     Atomic      Atomic             Coordinates (Angstroms)
 Number     Number       Type             X           Y           Z
 ---------------------------------------------------------------------
      1          8           0        2.069954   -1.259812   -0.093030
      2          6           0        0.663748   -1.074609   -0.010587
      3          6           0        0.066531   -0.000161    0.961143
      4          6           0        0.662981    1.103929    0.007545
      5          8           0        2.014469    1.426142    0.009915
      6          6           0        0.069032    0.005036   -0.954002
      7          6           0       -1.135313   -0.006591    0.003850
      8          6           0       -2.408451   -0.779784   -0.001857
      9          6           0       -2.416969    0.748432    0.001867
     10          1           0        2.345419   -1.804444    0.651657
     11          1           0        0.149913   -2.042691   -0.015538
     12          1           0        0.047593   -0.018339    2.052327
     13          1           0        0.106196    2.043789    0.010600
     14          1           0        2.499407    0.589579   -0.033395
     15          1           0        0.054412   -0.007671   -2.044438
     16          1           0       -2.712677   -1.282314   -0.914794
     17          1           0       -2.718598   -1.286439    0.906893
     18          1           0       -2.725526    1.251961   -0.908942
     19          1           0       -2.730869    1.248414    0.912801
 ---------------------------------------------------------------------

 SCF Done:  E(RB3LYP) =  -423.107489662     A.U. after    1 cycles

 The electronic state is 1-A.
 Alpha  occ. eigenvalues --  -19.15901 -19.11743 -10.24434 -10.23146 -10.20452
 Alpha  occ. eigenvalues --  -10.19555 -10.19443 -10.18603 -10.18529  -1.04352
 Alpha  occ. eigenvalues --   -1.00503  -0.91002  -0.82644  -0.66015  -0.63602
 Alpha  occ. eigenvalues --   -0.60244  -0.59766  -0.54497  -0.52046  -0.50099
 Alpha  occ. eigenvalues --   -0.47420  -0.46666  -0.43847  -0.39936  -0.37794
 Alpha  occ. eigenvalues --   -0.37410  -0.36530  -0.36153  -0.31290  -0.30859
 Alpha  occ. eigenvalues --   -0.29348  -0.28347  -0.26013  -0.24163
 Alpha virt. eigenvalues --    0.06562   0.09901   0.10296   0.11716   0.13590
 Alpha virt. eigenvalues --    0.13717   0.14261   0.15040   0.15693   0.18140
 Alpha virt. eigenvalues --    0.19009   0.19375   0.20245   0.20875   0.22397

 Mulliken charges:
               1
     1  O   -0.456654
     2  C    0.144463
     3  C   -0.265651
     4  C    0.199013
     5  O   -0.459171
     6  C   -0.237724
     7  C    0.474909
     8  C   -0.375425
     9  C   -0.370239
    10  H    0.290971
    11  H    0.078762
    12  H    0.069035
    13  H    0.085511
    14  H    0.286159
    15  H    0.076462
    16  H    0.114817
    17  H    0.112721
    18  H    0.116516
    19  H    0.115525
 Sum of Mulliken charges =   0.00000

 Dipole moment (field-independent basis, Debye):
    X=             -1.1105    Y=             -2.2600    Z=              1.0249  Tot=              2.7187
 Quadrupole moment (field-independent basis, Debye-Ang):
   XX=            -54.8155   YY=            -53.6419   ZZ=            -50.8118
   XY=             -5.8911   XZ=              2.9164   YZ=             -2.4626

  Exact polarizability:  88.931  -1.141  74.089   0.956  -1.039  65.855
 Approx polarizability: 119.046  -0.578 111.170   0.490  -1.366 103.240

                      1                      2                      3
                      A                      A                      A
 Frequencies --    167.1829               214.6693               228.0159
 Red. masses --      3.8630                 2.2989                 3.0950
 Frc consts  --      0.0636                 0.0624                 0.0948
 IR Inten    --      1.0032                 4.6230                 0.7037

                      4                      5                      6
                      A                      A                      A
 Frequencies --    283.0815               303.9737               338.2459
 Red. masses --      2.5870                 1.8492                 2.0456
 Frc consts  --      0.1221                 0.1007                 0.1379
 IR Inten    --      5.6751                39.1127                35.4823

                      7                      8                      9
                      A                      A                      A
 Frequencies --    434.4139               455.3196               476.9539
 Red. masses --      5.6236                 2.7113                 5.1876
 Frc consts  --      0.6253                 0.3312                 0.6953
 IR Inten    --     11.1789                 1.5866                 3.5598

                     10                     11                     12
                      A                      A                      A
 Frequencies --    562.0989               630.0493               721.5967
 Red. masses --      4.4680                 1.1281                 2.9989
 Frc consts  --      0.8317                 0.2638                 0.9200
 IR Inten    --      0.2939                87.5566                 3.0737

                     13                     14                     15
                      A                      A                      A
 Frequencies --    725.5493               780.3618               827.3652
 Red. masses --      2.9154                 1.0462                 2.6253
 Frc consts  --      0.9042                 0.3754                 1.0588
 IR Inten    --      4.8898                 0.6651                 0.8742

                     16                     17                     18
                      A                      A                      A
 Frequencies --    859.0606               909.0696               928.4169
 Red. masses --      2.1141                 1.8617                 2.2452
 Frc consts  --      0.9192                 0.9064                 1.1402
 IR Inten    --      2.8799                 3.1063                 6.8425

                     19                     20                     21
                      A                      A                      A
 Frequencies --    934.9754               949.3649               987.9547
 Red. masses --      1.5790                 2.7762                 4.5083
 Frc consts  --      0.8133                 1.4742                 2.5926
 IR Inten    --      4.0128                 2.6414                33.6175

                     22                     23                     24
                      A                      A                      A
 Frequencies --   1036.0233              1049.7760              1082.2137
 Red. masses --      1.2796                 1.3798                 1.4699
 Frc consts  --      0.8092                 0.8959                 1.0143
 IR Inten    --      1.3468                 2.4504                 1.3291

                     25                     26                     27
                      A                      A                      A
 Frequencies --   1087.8234              1101.7762              1111.2292
 Red. masses --      4.8878                 1.5390                 3.2685
 Frc consts  --      3.4078                 1.1007                 2.3780
 IR Inten    --     76.8904                 7.8300                37.9085

                     28                     29                     30
                      A                      A                      A
 Frequencies --   1124.0710              1167.3327              1177.8744
 Red. masses --      2.7033                 1.3577                 1.3075
 Frc consts  --      2.0125                 1.0900                 1.0688
 IR Inten    --     49.5068                 7.8691                 3.6256

                     31                     32                     33
                      A                      A                      A
 Frequencies --   1186.5838              1204.4718              1222.6342
 Red. masses --      1.4014                 1.8882                 1.5983
 Frc consts  --      1.1626                 1.6139                 1.4076
 IR Inten    --     16.0025               158.4421                 6.3762

                     34                     35                     36
                      A                      A                      A
 Frequencies --   1264.6806              1305.8542              1338.4231
 Red. masses --      2.0394                 1.3493                 1.4063
 Frc consts  --      1.9218                 1.3557                 1.4843
 IR Inten    --     35.1351                37.4883                 8.9425

                     37                     38                     39
                      A                      A                      A
 Frequencies --   1409.9807              1439.6526              1463.9366
 Red. masses --      1.8090                 1.3554                 1.0888
 Frc consts  --      2.1190                 1.6551                 1.3749
 IR Inten    --      2.8762                10.7835                 1.1535

                     40                     41                     42
                      A                      A                      A
 Frequencies --   1489.1997              1521.7115              3039.1645
 Red. masses --      1.1971                 2.0090                 1.0850
 Frc consts  --      1.5641                 2.7409                 5.9048
 IR Inten    --    107.7317                 1.9800                52.3623

                     43                     44                     45
                      A                      A                      A
 Frequencies --   3088.2915              3100.1704              3113.1459
 Red. masses --      1.0857                 1.0915                 1.0936
 Frc consts  --      6.1009                 6.1806                 6.2446
 IR Inten    --     39.3480                63.5255                20.5177

                     46                     47                     48
                      A                      A                      A
 Frequencies --   3119.9351              3124.1097              3196.6800
 Red. masses --      1.0509                 1.0574                 1.1175
 Frc consts  --      6.0271                 6.0804                 6.7283
 IR Inten    --     18.5007                15.3174                 0.2099

                     49                     50                     51
                      A                      A                      A
 Frequencies --   3210.8682              3722.7061              3815.3893
 Red. masses --      1.1152                 1.0643                 1.0661
 Frc consts  --      6.7741                 8.6906                 9.1438
 IR Inten    --     16.3360               120.2497                34.0373

 - Thermochemistry -
 -------------------
 Temperature   298.150 Kelvin.  Pressure   1.00000 Atm.
 Atom     1 has atomic number  8 and mass  15.99491

 Molecular mass:   126.06808 amu.
 Principal axes and moments of inertia in atomic units:
                           1         2         3
     Eigenvalues --   547.332191339.786021641.74663
           X            0.99992  -0.01170   0.00466
           Y            0.01176   0.99984  -0.01377
           Z           -0.00450   0.01383   0.99989
 This molecule is an asymmetric top.
 Rotational symmetry number  1.
 Warning -- assumption of classical behavior for rotation
           may cause significant error
 Rotational temperatures (Kelvin)      0.15825     0.06465     0.05276
 Rotational constants (GHZ):           3.29734     1.34704     1.09928
 Zero-point vibrational energy     418892.9 (Joules/Mol)
                                  100.11781 (Kcal/Mol)
 Warning -- explicit consideration of  10 degrees of freedom as
           vibrations may cause significant error
 Vibrational temperatures:    240.54   308.86   328.06   407.29   437.35
          (Kelvin)            486.66   625.02   655.10   686.23   808.73
                              906.50  1038.22  1043.90  1122.77  1190.39
                             1236.00  1307.95  1335.78  1345.22  1365.92
                             1421.44  1490.60  1510.39  1557.06  1565.13
                             1585.21  1598.81  1617.29  1679.53  1694.70
                             1707.23  1732.96  1759.10  1819.59  1878.83
                             1925.69  2028.65  2071.34  2106.28  2142.62
                             2189.40  4372.67  4443.36  4460.45  4479.12
                             4488.89  4494.89  4599.30  4619.72  5356.14
                             5489.49

 Zero-point correction=                           0.159548 (Hartree/Particle)
 Thermal correction to Energy=                    0.167379
 Thermal correction to Enthalpy=                  0.168323
 Thermal correction to Gibbs Free Energy=         0.127792
 Sum of electronic and zero-point Energies=           -422.947942
 Sum of electronic and thermal Energies=              -422.940111
 Sum of electronic and thermal Enthalpies=            -422.939167
 Sum of electronic and thermal Free Energies=         -422.979698

                     E (Thermal)             CV                S
                      KCal/Mol        Cal/Mol-Kelvin    Cal/Mol-Kelvin
 Total                  105.032             32.191             85.305
 Electronic               0.000              0.000              0.000
 Translational            0.889              2.981             40.409
 Rotational               0.889              2.981             28.578
 Vibrational            103.254             26.230             16.318
 Vibration     1          0.624              1.883              2.467
 Vibration     2          0.645              1.819              2.004
 Vibration     3          0.651              1.798              1.895
 Vibration     4          0.682              1.705              1.515
 Vibration     5          0.695              1.666              1.395
 Vibration     6          0.719              1.599              1.220
 Vibration     7          0.795              1.395              0.844
 Vibration     8          0.814              1.349              0.780
 Vibration     9          0.834              1.301              0.718
 Vibration    10          0.918              1.113              0.520

 Optimization completed.
    -- Stationary point found.
 Normal termination of Gaussian 09 at Tue Jan 28 00:27:17 2020.
