 Gaussian 09, Revision D.01,
 Gaussian 09:  ES64L-G09RevD.01 24-Apr-2013

 -----------------------------
 # b3lyp 6-31G(2df,p) opt Freq
 -----------------------------

 -----
 titel
 -----
 Symbolic Z-matrix:
 Charge =  0 Multiplicity = 1

 SCF Done:  E(RB3LYP) =  -423.110868517     A.U. after   14 cycles
 Optimization completed.
    -- Stationary point found.
 Normal termination of Gaussian 09 at Mon Jan 27 16:57:50 2020.

 ----------------------------------------------------------------------
 #N Geom=AllCheck Guess=TCheck SCRF=Check GenChk RB3LYP/6-31G(2df,p) Fr
 eq
 ----------------------------------------------------------------------

 Structure from the checkpoint file:  "/scratch/puck/g09_0e9c6b77-13b3-4688-af03-a4dd2b47fdec/Gau-13743.chk"
 -----
 titel
 -----
 Charge =  0 Multiplicity = 1

                         Standard orientation:
 ---------------------------------------------------------------------
 Center     Atomic      Atomic             Coordinates (Angstroms)
 Number     Number       Type             X           Y           Z
 ---------------------------------------------------------------------
      1          6           0        1.674104    1.614095   -0.365610
      2          6           0        1.615138    0.143432   -0.030734
      3          6           0        0.414916   -0.610046   -0.565179
      4          8           0       -0.752631   -0.044904   -0.000802
      5          6           0       -1.936348   -0.632054   -0.506495
      6          6           0       -3.102487   -0.007449    0.103124
      7          6           0       -4.080637    0.490270    0.590008
      8          6           0        2.314947   -0.393305    1.143905
      9          8           0        2.839388   -0.588002   -0.174450
     10          1           0        2.562582    2.076495    0.070487
     11          1           0        1.710784    1.756874   -1.451387
     12          1           0        0.781892    2.120271    0.012531
     13          1           0        0.387812   -0.531516   -1.665979
     14          1           0        0.505651   -1.677694   -0.312241
     15          1           0       -1.983812   -0.518757   -1.603291
     16          1           0       -1.946204   -1.716386   -0.301987
     17          1           0       -4.942107    0.934238    1.024295
     18          1           0        2.889583    0.279847    1.778210
     19          1           0        1.941964   -1.289787    1.637260
 ---------------------------------------------------------------------

 SCF Done:  E(RB3LYP) =  -423.110868517     A.U. after    1 cycles

 The electronic state is 1-A.
 Alpha  occ. eigenvalues --  -19.15421 -19.14960 -10.26104 -10.24413 -10.23703
 Alpha  occ. eigenvalues --  -10.23139 -10.18799 -10.18166 -10.17924  -1.07130
 Alpha  occ. eigenvalues --   -1.04715  -0.79104  -0.75281  -0.70992  -0.66977
 Alpha  occ. eigenvalues --   -0.66019  -0.56777  -0.53787  -0.50770  -0.49932
 Alpha  occ. eigenvalues --   -0.49820  -0.47222  -0.45681  -0.42031  -0.41646
 Alpha  occ. eigenvalues --   -0.39201  -0.37459  -0.36488  -0.33767  -0.29741
 Alpha  occ. eigenvalues --   -0.28217  -0.28086  -0.26713  -0.26222
 Alpha virt. eigenvalues --    0.02601   0.05114   0.08595   0.10308   0.11328
 Alpha virt. eigenvalues --    0.12068   0.12444   0.13741   0.14610   0.15434
 Alpha virt. eigenvalues --    0.16366   0.17173   0.18023   0.20438   0.20806

 Mulliken charges:
               1
     1  C   -0.464343
     2  C    0.405087
     3  C   -0.111566
     4  O   -0.250523
     5  C   -0.201490
     6  C    0.279215
     7  C   -0.410597
     8  C   -0.216457
     9  O   -0.281993
    10  H    0.124020
    11  H    0.122394
    12  H    0.143912
    13  H    0.093093
    14  H    0.098024
    15  H    0.121039
    16  H    0.120920
    17  H    0.202044
    18  H    0.114648
    19  H    0.112571
 Sum of Mulliken charges =   0.00000

 Dipole moment (field-independent basis, Debye):
    X=             -1.1439    Y=             -0.0311    Z=              0.1223  Tot=              1.1508
 Quadrupole moment (field-independent basis, Debye-Ang):
   XX=            -54.8658   YY=            -51.6970   ZZ=            -50.9577
   XY=              1.9757   XZ=              2.3818   YZ=              0.3304

  Exact polarizability:  99.042  -7.211  68.560  -2.988   0.845  68.232
 Approx polarizability: 129.630 -17.714  99.586 -11.781   5.873 104.757

                      1                      2                      3
                      A                      A                      A
 Frequencies --     38.9145                80.4862                86.7508
 Red. masses --      3.7042                 2.7627                 3.7813
 Frc consts  --      0.0033                 0.0105                 0.0168
 IR Inten    --      0.8328                 1.2982                 0.7850

                      4                      5                      6
                      A                      A                      A
 Frequencies --    118.9405               192.2394               213.9678
 Red. masses --      3.5232                 1.1433                 3.6618
 Frc consts  --      0.0294                 0.0249                 0.0988
 IR Inten    --      4.8018                 1.6566                 6.2698

                      7                      8                      9
                      A                      A                      A
 Frequencies --    294.0690               334.0696               361.7732
 Red. masses --      4.3703                 3.5117                 2.9529
 Frc consts  --      0.2227                 0.2309                 0.2277
 IR Inten    --      0.6474                 2.1087                 2.7886

                     10                     11                     12
                      A                      A                      A
 Frequencies --    367.8815               414.8423               456.8460
 Red. masses --      2.2363                 3.3514                 3.0891
 Frc consts  --      0.1783                 0.3398                 0.3799
 IR Inten    --      0.4363                 2.9149                 3.3038

                     13                     14                     15
                      A                      A                      A
 Frequencies --    579.9910               609.6752               678.4914
 Red. masses --      6.6379                 1.1931                 1.2428
 Frc consts  --      1.3156                 0.2613                 0.3371
 IR Inten    --      2.4343                43.9273                34.7103

                     16                     17                     18
                      A                      A                      A
 Frequencies --    743.3427               843.3515               927.4928
 Red. masses --      3.6642                 3.5852                 1.5973
 Frc consts  --      1.1929                 1.5024                 0.8096
 IR Inten    --      4.2221                21.9766                 2.7546

                     19                     20                     21
                      A                      A                      A
 Frequencies --    932.5378               966.8965               998.8403
 Red. masses --      2.2736                 2.1646                 2.0698
 Frc consts  --      1.1649                 1.1923                 1.2167
 IR Inten    --     15.4525                 3.1815                 1.1244

                     22                     23                     24
                      A                      A                      A
 Frequencies --   1026.3895              1035.8588              1065.2976
 Red. masses --      2.1475                 2.1605                 1.9408
 Frc consts  --      1.3329                 1.3659                 1.2977
 IR Inten    --     12.0359                19.5526                17.9720

                     25                     26                     27
                      A                      A                      A
 Frequencies --   1123.8509              1133.6627              1145.5565
 Red. masses --      1.9101                 1.7192                 4.5275
 Frc consts  --      1.4214                 1.3018                 3.5006
 IR Inten    --      3.7341                29.6571               243.4715

                     28                     29                     30
                      A                      A                      A
 Frequencies --   1167.7054              1228.9362              1256.1256
 Red. masses --      1.3569                 1.1794                 1.0939
 Frc consts  --      1.0901                 1.0495                 1.0169
 IR Inten    --      0.8340                 6.2099                 5.4262

                     31                     32                     33
                      A                      A                      A
 Frequencies --   1295.1401              1373.0604              1402.2027
 Red. masses --      2.2405                 1.3148                 1.4640
 Frc consts  --      2.2143                 1.4605                 1.6960
 IR Inten    --     12.2063                81.9306                 4.8196

                     34                     35                     36
                      A                      A                      A
 Frequencies --   1420.0600              1446.7356              1481.4383
 Red. masses --      1.8183                 1.5608                 1.0489
 Frc consts  --      2.1603                 1.9247                 1.3563
 IR Inten    --      8.6225                17.6597                 4.3362

                     37                     38                     39
                      A                      A                      A
 Frequencies --   1495.6306              1500.9325              1519.9113
 Red. masses --      1.0689                 1.0973                 1.1197
 Frc consts  --      1.4088                 1.4565                 1.5241
 IR Inten    --      6.4595                 2.1822                 2.9644

                     40                     41                     42
                      A                      A                      A
 Frequencies --   1536.8619              2248.9384              2950.5392
 Red. masses --      1.3760                 5.8921                 1.0559
 Frc consts  --      1.9149                17.5581                 5.4160
 IR Inten    --      4.5457                 2.5840                11.6801

                     43                     44                     45
                      A                      A                      A
 Frequencies --   2959.3389              2972.3777              3002.9212
 Red. masses --      1.0593                 1.1025                 1.0999
 Frc consts  --      5.4659                 5.7388                 5.8437
 IR Inten    --     71.8354                35.3675                40.1445

                     46                     47                     48
                      A                      A                      A
 Frequencies --   3040.7812              3084.5181              3109.2596
 Red. masses --      1.0376                 1.0508                 1.0974
 Frc consts  --      5.6527                 5.8901                 6.2507
 IR Inten    --     17.2682                22.7829                15.7856

                     49                     50                     51
                      A                      A                      A
 Frequencies --   3134.3283              3171.1389              3506.0136
 Red. masses --      1.1026                 1.1195                 1.1640
 Frc consts  --      6.3823                 6.6330                 8.4304
 IR Inten    --     14.0848                24.8115                61.5491

 - Thermochemistry -
 -------------------
 Temperature   298.150 Kelvin.  Pressure   1.00000 Atm.
 Atom     1 has atomic number  6 and mass  12.00000

 Molecular mass:   126.06808 amu.
 Principal axes and moments of inertia in atomic units:
                           1         2         3
     Eigenvalues --   412.841342601.749582702.89282
           X            0.99992   0.01138   0.00596
           Y           -0.01133   0.99990  -0.00844
           Z           -0.00606   0.00837   0.99995
 This molecule is an asymmetric top.
 Rotational symmetry number  1.
 Rotational temperatures (Kelvin)      0.20980     0.03329     0.03204
 Rotational constants (GHZ):           4.37151     0.69366     0.66771
 Zero-point vibrational energy     407190.4 (Joules/Mol)
                                   97.32083 (Kcal/Mol)
 Warning -- explicit consideration of  14 degrees of freedom as
           vibrations may cause significant error
 Vibrational temperatures:     55.99   115.80   124.81   171.13   276.59
          (Kelvin)            307.85   423.10   480.65   520.51   529.30
                              596.86   657.30   834.48   877.19   976.20
                             1069.50  1213.39  1334.45  1341.71  1391.15
                             1437.11  1476.74  1490.37  1532.72  1616.97
                             1631.09  1648.20  1680.07  1768.16  1807.28
                             1863.42  1975.53  2017.45  2043.15  2081.53
                             2131.46  2151.88  2159.50  2186.81  2211.20
                             3235.72  4245.16  4257.82  4276.58  4320.53
                             4375.00  4437.93  4473.53  4509.59  4562.56
                             5044.37

 Zero-point correction=                           0.155091 (Hartree/Particle)
 Thermal correction to Energy=                    0.165233
 Thermal correction to Enthalpy=                  0.166177
 Thermal correction to Gibbs Free Energy=         0.118900
 Sum of electronic and zero-point Energies=           -422.955778
 Sum of electronic and thermal Energies=              -422.945635
 Sum of electronic and thermal Enthalpies=            -422.944691
 Sum of electronic and thermal Free Energies=         -422.991968

                     E (Thermal)             CV                S
                      KCal/Mol        Cal/Mol-Kelvin    Cal/Mol-Kelvin
 Total                  103.685             35.908             99.502
 Electronic               0.000              0.000              0.000
 Translational            0.889              2.981             40.409
 Rotational               0.889              2.981             29.453
 Vibrational            101.908             29.946             29.641
 Vibration     1          0.594              1.981              5.314
 Vibration     2          0.600              1.962              3.879
 Vibration     3          0.601              1.958              3.732
 Vibration     4          0.609              1.934              3.118
 Vibration     5          0.634              1.851              2.206
 Vibration     6          0.644              1.820              2.010
 Vibration     7          0.689              1.685              1.450
 Vibration     8          0.716              1.607              1.240
 Vibration     9          0.736              1.551              1.114
 Vibration    10          0.740              1.538              1.089
 Vibration    11          0.778              1.438              0.910
 Vibration    12          0.815              1.346              0.775
 Vibration    13          0.937              1.075              0.485
 Vibration    14          0.969              1.011              0.433

 Optimization completed.
    -- Stationary point found.
 Normal termination of Gaussian 09 at Mon Jan 27 18:27:09 2020.
