 Gaussian 09, Revision D.01,
 Gaussian 09:  ES64L-G09RevD.01 24-Apr-2013

 -----------------------------
 # b3lyp 6-31G(2df,p) opt Freq
 -----------------------------

 -----
 titel
 -----
 Symbolic Z-matrix:
 Charge =  0 Multiplicity = 1

 SCF Done:  E(RB3LYP) =  -423.176799356     A.U. after   14 cycles
 Optimization completed.
    -- Stationary point found.
 Normal termination of Gaussian 09 at Mon Jan 27 15:27:08 2020.

 ----------------------------------------------------------------------
 #N Geom=AllCheck Guess=TCheck SCRF=Check GenChk RB3LYP/6-31G(2df,p) Fr
 eq
 ----------------------------------------------------------------------

 Structure from the checkpoint file:  "/scratch/puck/g09_bf0fe33f-2bda-4db6-a461-7d26b1f71e9e/Gau-173895.chk"
 -----
 titel
 -----
 Charge =  0 Multiplicity = 1

                         Standard orientation:
 ---------------------------------------------------------------------
 Center     Atomic      Atomic             Coordinates (Angstroms)
 Number     Number       Type             X           Y           Z
 ---------------------------------------------------------------------
      1          6           0        2.591253    0.275475    0.710948
      2          6           0        1.560428   -0.005431   -0.386597
      3          8           0        1.524592   -1.389079   -0.725266
      4          6           0        0.170413    0.371612    0.038243
      5          6           0       -0.419463    1.722030   -0.145096
      6          6           0       -1.076486    0.550911   -0.872531
      7          6           0       -1.867989   -0.258721    0.108376
      8          8           0       -2.958498   -0.754433    0.084464
      9          6           0       -0.662358   -0.407879    1.074799
     10          1           0        3.597087   -0.005221    0.377439
     11          1           0        2.610009    1.339109    0.967267
     12          1           0        2.356200   -0.297896    1.612878
     13          1           0        1.818693    0.594728   -1.276043
     14          1           0        2.430028   -1.688694   -0.853880
     15          1           0       -0.933306    2.219090    0.673343
     16          1           0        0.109101    2.397699   -0.811565
     17          1           0       -1.165470    0.542125   -1.951879
     18          1           0       -0.749704    0.019680    2.078017
     19          1           0       -0.376179   -1.460509    1.141991
 ---------------------------------------------------------------------

 SCF Done:  E(RB3LYP) =  -423.176799356     A.U. after    1 cycles

 The electronic state is 1-A.
 Alpha  occ. eigenvalues --  -19.14336 -19.12256 -10.26347 -10.24808 -10.21397
 Alpha  occ. eigenvalues --  -10.20840 -10.20102 -10.18893 -10.18871  -1.03375
 Alpha  occ. eigenvalues --   -1.02667  -0.90852  -0.76472  -0.72705  -0.66410
 Alpha  occ. eigenvalues --   -0.63353  -0.55399  -0.53064  -0.51625  -0.48279
 Alpha  occ. eigenvalues --   -0.47145  -0.44430  -0.44258  -0.41229  -0.39794
 Alpha  occ. eigenvalues --   -0.39622  -0.38943  -0.37435  -0.35828  -0.33309
 Alpha  occ. eigenvalues --   -0.30982  -0.28262  -0.27182  -0.23567
 Alpha virt. eigenvalues --   -0.00346   0.06421   0.08701   0.10757   0.11249
 Alpha virt. eigenvalues --    0.12787   0.13325   0.15186   0.15290   0.15671
 Alpha virt. eigenvalues --    0.17225   0.17675   0.19732   0.20997   0.21582

 Mulliken charges:
               1
     1  C   -0.413618
     2  C    0.010325
     3  O   -0.437765
     4  C    0.406279
     5  C   -0.349127
     6  C   -0.232826
     7  C    0.434818
     8  O   -0.320647
     9  C   -0.426684
    10  H    0.108771
    11  H    0.124671
    12  H    0.131940
    13  H    0.065778
    14  H    0.284406
    15  H    0.121141
    16  H    0.123253
    17  H    0.110964
    18  H    0.111565
    19  H    0.146756
 Sum of Mulliken charges =   0.00000

 Dipole moment (field-independent basis, Debye):
    X=              4.4379    Y=              1.8602    Z=              0.0151  Tot=              4.8120
 Quadrupole moment (field-independent basis, Debye-Ang):
   XX=            -58.8485   YY=            -52.7032   ZZ=            -51.2884
   XY=             -5.0948   XZ=             -1.2342   YZ=             -0.5903

  Exact polarizability:  89.623   3.273  72.706   1.202  -2.645  68.337
 Approx polarizability: 126.948   9.323 110.835   2.440  -3.348 103.278

                      1                      2                      3
                      A                      A                      A
 Frequencies --     71.2474                88.4821               183.8894
 Red. masses --      3.5886                 5.9298                 2.8206
 Frc consts  --      0.0107                 0.0274                 0.0562
 IR Inten    --      0.5376                 1.2806                 0.5086

                      4                      5                      6
                      A                      A                      A
 Frequencies --    219.1442               256.3312               273.6330
 Red. masses --      2.4347                 1.2028                 1.1555
 Frc consts  --      0.0689                 0.0466                 0.0510
 IR Inten    --      4.6502                 4.9898                91.2911

                      7                      8                      9
                      A                      A                      A
 Frequencies --    324.3214               371.4604               445.4191
 Red. masses --      3.2801                 2.0946                 3.7826
 Frc consts  --      0.2033                 0.1703                 0.4422
 IR Inten    --      9.5419                 0.9218                 1.6987

                     10                     11                     12
                      A                      A                      A
 Frequencies --    484.2841               519.5866               565.0474
 Red. masses --      3.0058                 3.0926                 3.2562
 Frc consts  --      0.4153                 0.4919                 0.6125
 IR Inten    --      5.3883                 4.1095                 0.4731

                     13                     14                     15
                      A                      A                      A
 Frequencies --    615.8528               687.1702               788.1026
 Red. masses --      3.1337                 2.4907                 2.7431
 Frc consts  --      0.7003                 0.6930                 1.0038
 IR Inten    --      1.6218                 2.1720                30.7145

                     16                     17                     18
                      A                      A                      A
 Frequencies --    820.4106               887.0703               920.3613
 Red. masses --      2.8393                 2.3090                 1.5052
 Frc consts  --      1.1260                 1.0705                 0.7512
 IR Inten    --      2.9086                 8.8835                25.1388

                     19                     20                     21
                      A                      A                      A
 Frequencies --    960.9477               974.9221               985.8714
 Red. masses --      2.2962                 1.6410                 1.7012
 Frc consts  --      1.2493                 0.9190                 0.9742
 IR Inten    --      3.8470                 2.2244                19.9796

                     22                     23                     24
                      A                      A                      A
 Frequencies --   1021.1924              1048.4921              1080.0177
 Red. masses --      1.5459                 2.3419                 1.4886
 Frc consts  --      0.9498                 1.5169                 1.0230
 IR Inten    --      8.6091                27.2540                 7.7430

                     25                     26                     27
                      A                      A                      A
 Frequencies --   1093.4283              1105.0416              1122.1875
 Red. masses --      2.0825                 1.3764                 1.9664
 Frc consts  --      1.4670                 0.9903                 1.4590
 IR Inten    --      0.9970                 0.5343                32.7073

                     28                     29                     30
                      A                      A                      A
 Frequencies --   1134.8627              1206.6249              1211.2647
 Red. masses --      2.6542                 1.5326                 1.6171
 Frc consts  --      2.0140                 1.3147                 1.3978
 IR Inten    --     56.4561                27.0631                14.2126

                     31                     32                     33
                      A                      A                      A
 Frequencies --   1238.1418              1315.2402              1359.0057
 Red. masses --      1.9257                 1.8770                 1.2423
 Frc consts  --      1.7393                 1.9130                 1.3518
 IR Inten    --      4.4180                18.3056                12.3372

                     34                     35                     36
                      A                      A                      A
 Frequencies --   1361.9605              1403.7143              1445.0467
 Red. masses --      1.7790                 1.2627                 1.5874
 Frc consts  --      1.9442                 1.4659                 1.9530
 IR Inten    --     19.0938                 9.4623                 9.9108

                     37                     38                     39
                      A                      A                      A
 Frequencies --   1452.5077              1492.3396              1495.4434
 Red. masses --      1.1281                 1.0441                 1.1307
 Frc consts  --      1.4023                 1.3701                 1.4899
 IR Inten    --      3.6709                 3.5644                 1.2443

                     40                     41                     42
                      A                      A                      A
 Frequencies --   1508.8915              1883.9180              2951.2695
 Red. masses --      1.4443                12.3717                 1.0825
 Frc consts  --      1.9375                25.8704                 5.5551
 IR Inten    --      3.1423               390.2115                49.0242

                     43                     44                     45
                      A                      A                      A
 Frequencies --   3029.6851              3056.8698              3097.9568
 Red. masses --      1.0362                 1.0598                 1.0995
 Frc consts  --      5.6041                 5.8350                 6.2173
 IR Inten    --     20.0411                17.3981                27.4882

                     46                     47                     48
                      A                      A                      A
 Frequencies --   3111.5261              3117.4025              3122.4351
 Red. masses --      1.0551                 1.1022                 1.1037
 Frc consts  --      6.0187                 6.3110                 6.3399
 IR Inten    --     14.2623                19.7831                 7.4269

                     49                     50                     51
                      A                      A                      A
 Frequencies --   3192.8862              3200.2565              3821.7225
 Red. masses --      1.1078                 1.1015                 1.0661
 Frc consts  --      6.6539                 6.6467                 9.1745
 IR Inten    --      3.0664                 9.0054                17.1778

 - Thermochemistry -
 -------------------
 Temperature   298.150 Kelvin.  Pressure   1.00000 Atm.
 Atom     1 has atomic number  6 and mass  12.00000

 Molecular mass:   126.06808 amu.
 Principal axes and moments of inertia in atomic units:
                           1         2         3
     Eigenvalues --   568.604101585.300571751.11922
           X            0.99994  -0.00617   0.00917
           Y            0.00648   0.99940  -0.03414
           Z           -0.00896   0.03420   0.99938
 This molecule is an asymmetric top.
 Rotational symmetry number  1.
 Warning -- assumption of classical behavior for rotation
           may cause significant error
 Rotational temperatures (Kelvin)      0.15233     0.05464     0.04946
 Rotational constants (GHZ):           3.17399     1.13842     1.03062
 Zero-point vibrational energy     413458.6 (Joules/Mol)
                                   98.81899 (Kcal/Mol)
 Warning -- explicit consideration of  13 degrees of freedom as
           vibrations may cause significant error
 Vibrational temperatures:    102.51   127.31   264.58   315.30   368.80
          (Kelvin)            393.70   466.63   534.45   640.86   696.78
                              747.57   812.98   886.07   988.68  1133.90
                             1180.39  1276.29  1324.19  1382.59  1402.69
                             1418.45  1469.27  1508.54  1553.90  1573.20
                             1589.91  1614.58  1632.81  1736.06  1742.74
                             1781.41  1892.33  1955.30  1959.55  2019.63
                             2079.10  2089.83  2147.14  2151.61  2170.96
                             2710.53  4246.21  4359.04  4398.15  4457.26
                             4476.79  4485.24  4492.48  4593.85  4604.45
                             5498.60

 Zero-point correction=                           0.157478 (Hartree/Particle)
 Thermal correction to Energy=                    0.166480
 Thermal correction to Enthalpy=                  0.167424
 Thermal correction to Gibbs Free Energy=         0.123687
 Sum of electronic and zero-point Energies=           -423.019321
 Sum of electronic and thermal Energies=              -423.010319
 Sum of electronic and thermal Enthalpies=            -423.009375
 Sum of electronic and thermal Free Energies=         -423.053112

                     E (Thermal)             CV                S
                      KCal/Mol        Cal/Mol-Kelvin    Cal/Mol-Kelvin
 Total                  104.468             34.058             92.053
 Electronic               0.000              0.000              0.000
 Translational            0.889              2.981             40.409
 Rotational               0.889              2.981             28.847
 Vibrational            102.690             28.096             22.797
 Vibration     1          0.598              1.968              4.119
 Vibration     2          0.601              1.957              3.693
 Vibration     3          0.631              1.862              2.289
 Vibration     4          0.647              1.812              1.966
 Vibration     5          0.666              1.752              1.687
 Vibration     6          0.676              1.722              1.573
 Vibration     7          0.709              1.627              1.288
 Vibration     8          0.743              1.531              1.074
 Vibration     9          0.805              1.371              0.810
 Vibration    10          0.840              1.285              0.699
 Vibration    11          0.875              1.207              0.611
 Vibration    12          0.921              1.107              0.514
 Vibration    13          0.975              0.998              0.423

 Normal termination of Gaussian 09 at Mon Jan 27 16:06:42 2020.
