 Gaussian 09, Revision D.01,
 Gaussian 09:  ES64L-G09RevD.01 24-Apr-2013

 -----------------------------
 # b3lyp 6-31G(2df,p) opt Freq
 -----------------------------

 -----
 titel
 -----
 Symbolic Z-matrix:
 Charge =  0 Multiplicity = 1

 SCF Done:  E(RB3LYP) =  -423.103410661     A.U. after   14 cycles
 Optimization completed.
    -- Stationary point found.
 Normal termination of Gaussian 09 at Tue Jan 28 08:11:24 2020.

 ----------------------------------------------------------------------
 #N Geom=AllCheck Guess=TCheck SCRF=Check GenChk RB3LYP/6-31G(2df,p) Fr
 eq
 ----------------------------------------------------------------------

 Structure from the checkpoint file:  "/scratch/puck/g09_b25b3522-99c1-4970-bcba-b0928ea7bf32/Gau-74212.chk"
 -----
 titel
 -----
 Charge =  0 Multiplicity = 1

                         Standard orientation:
 ---------------------------------------------------------------------
 Center     Atomic      Atomic             Coordinates (Angstroms)
 Number     Number       Type             X           Y           Z
 ---------------------------------------------------------------------
      1          6           0       -2.149301   -1.231167   -0.247464
      2          6           0       -1.190275   -0.325898    0.514018
      3          8           0       -1.442699    1.053099    0.160270
      4          6           0       -0.241164    1.741974   -0.268836
      5          6           0        0.643346    0.634131   -0.823005
      6          6           0        1.926825    0.073704   -0.138000
      7          6           0        1.408141   -1.381502   -0.387143
      8          6           0        0.262864   -0.492917    0.152502
      9          8           0        1.226186    0.067159    1.152150
     10          1           0       -3.178299   -0.906697   -0.073769
     11          1           0       -1.956464   -1.186188   -1.323794
     12          1           0       -2.049898   -2.269161    0.085847
     13          1           0       -1.322938   -0.443604    1.597464
     14          1           0       -0.551013    2.473848   -1.018550
     15          1           0        0.223115    2.256210    0.577899
     16          1           0        0.519982    0.430296   -1.889118
     17          1           0        2.953424    0.441131   -0.156354
     18          1           0        1.333388   -1.740331   -1.416672
     19          1           0        1.798192   -2.127516    0.305254
 ---------------------------------------------------------------------

 SCF Done:  E(RB3LYP) =  -423.103410661     A.U. after    1 cycles

 The electronic state is 1-A.
 Alpha  occ. eigenvalues --  -19.13405 -19.12998 -10.25853 -10.25044 -10.23734
 Alpha  occ. eigenvalues --  -10.22414 -10.20525 -10.19393 -10.17966  -1.06734
 Alpha  occ. eigenvalues --   -1.01334  -0.80131  -0.77238  -0.71743  -0.67109
 Alpha  occ. eigenvalues --   -0.63875  -0.58122  -0.53811  -0.50806  -0.48690
 Alpha  occ. eigenvalues --   -0.46807  -0.44732  -0.42649  -0.40631  -0.39497
 Alpha  occ. eigenvalues --   -0.38405  -0.37800  -0.36996  -0.34662  -0.32774
 Alpha  occ. eigenvalues --   -0.30423  -0.29111  -0.24958  -0.24087
 Alpha virt. eigenvalues --    0.07733   0.09373   0.10231   0.11191   0.12001
 Alpha virt. eigenvalues --    0.13596   0.13883   0.14621   0.15063   0.15727
 Alpha virt. eigenvalues --    0.16889   0.17182   0.17724   0.19722   0.20056

 Mulliken charges:
               1
     1  C   -0.397031
     2  C    0.007290
     3  O   -0.300129
     4  C   -0.103471
     5  C   -0.050360
     6  C    0.015200
     7  C   -0.308400
     8  C    0.402030
     9  O   -0.342682
    10  H    0.132386
    11  H    0.115900
    12  H    0.117463
    13  H    0.094631
    14  H    0.103516
    15  H    0.113475
    16  H    0.081199
    17  H    0.099964
    18  H    0.104111
    19  H    0.114907
 Sum of Mulliken charges =   0.00000

 Dipole moment (field-independent basis, Debye):
    X=              0.8615    Y=             -1.1551    Z=             -1.8423  Tot=              2.3389
 Quadrupole moment (field-independent basis, Debye-Ang):
   XX=            -53.1804   YY=            -51.6977   ZZ=            -54.3228
   XY=              2.4159   XZ=             -2.4384   YZ=             -1.1193

  Exact polarizability:  82.061   0.190  77.705  -0.796  -1.080  65.725
 Approx polarizability: 113.938  -0.366 110.515  -0.708  -1.621 108.234

                      1                      2                      3
                      A                      A                      A
 Frequencies --     99.2513               184.1240               221.0355
 Red. masses --      3.6814                 2.6569                 1.0810
 Frc consts  --      0.0214                 0.0531                 0.0311
 IR Inten    --      3.0742                 0.9674                 0.2117

                      4                      5                      6
                      A                      A                      A
 Frequencies --    299.9641               333.0391               427.7023
 Red. masses --      2.7852                 3.2383                 3.2409
 Frc consts  --      0.1477                 0.2116                 0.3493
 IR Inten    --      2.6619                 3.2101                 2.1550

                      7                      8                      9
                      A                      A                      A
 Frequencies --    474.0800               507.8994               614.8083
 Red. masses --      3.4329                 2.7770                 3.8836
 Frc consts  --      0.4546                 0.4221                 0.8649
 IR Inten    --      7.0260                 1.3778                 7.0080

                     10                     11                     12
                      A                      A                      A
 Frequencies --    685.4755               715.0904               760.8282
 Red. masses --      3.0934                 2.8448                 4.7146
 Frc consts  --      0.8564                 0.8571                 1.6079
 IR Inten    --      2.7015                 4.6725                16.2576

                     13                     14                     15
                      A                      A                      A
 Frequencies --    795.5466               835.3974               860.4511
 Red. masses --      3.0150                 3.1539                 2.7639
 Frc consts  --      1.1243                 1.2968                 1.2057
 IR Inten    --      4.6975                11.8874                 9.9423

                     16                     17                     18
                      A                      A                      A
 Frequencies --    888.9198               944.7558               971.8904
 Red. masses --      2.7134                 2.5658                 3.6888
 Frc consts  --      1.2632                 1.3493                 2.0529
 IR Inten    --     17.7846                16.1926                40.4537

                     19                     20                     21
                      A                      A                      A
 Frequencies --   1002.7702              1019.4050              1035.5807
 Red. masses --      2.5883                 1.5066                 1.5147
 Frc consts  --      1.5335                 0.9225                 0.9571
 IR Inten    --     20.4324                 2.5772                 5.8395

                     22                     23                     24
                      A                      A                      A
 Frequencies --   1066.6217              1090.4743              1100.2941
 Red. masses --      2.3166                 1.9671                 2.0745
 Frc consts  --      1.5528                 1.3782                 1.4797
 IR Inten    --     25.7710                27.6886                18.6100

                     25                     26                     27
                      A                      A                      A
 Frequencies --   1118.8151              1122.1432              1144.3152
 Red. masses --      2.2356                 1.8028                 1.7219
 Frc consts  --      1.6488                 1.3375                 1.3284
 IR Inten    --     17.1311                 1.5199                 4.8937

                     28                     29                     30
                      A                      A                      A
 Frequencies --   1184.4137              1199.3398              1228.8296
 Red. masses --      1.6717                 1.4927                 1.5120
 Frc consts  --      1.3817                 1.2651                 1.3452
 IR Inten    --     19.2106                 3.0212                11.8484

                     31                     32                     33
                      A                      A                      A
 Frequencies --   1236.9652              1284.1970              1333.0677
 Red. masses --      1.1822                 1.5961                 1.6365
 Frc consts  --      1.0658                 1.5509                 1.7134
 IR Inten    --      5.2987                 1.4686                 4.0684

                     34                     35                     36
                      A                      A                      A
 Frequencies --   1354.6581              1370.2738              1390.4561
 Red. masses --      1.4699                 1.5262                 1.6267
 Frc consts  --      1.5893                 1.6885                 1.8529
 IR Inten    --      4.7121                 2.6624                 4.2099

                     37                     38                     39
                      A                      A                      A
 Frequencies --   1405.2341              1484.0149              1490.6142
 Red. masses --      1.2779                 1.0774                 1.1982
 Frc consts  --      1.4868                 1.3980                 1.5686
 IR Inten    --      7.3277                 1.3381                 1.4732

                     40                     41                     42
                      A                      A                      A
 Frequencies --   1495.4095              1503.9669              3022.5290
 Red. masses --      1.0487                 1.0956                 1.0842
 Frc consts  --      1.3817                 1.4600                 5.8357
 IR Inten    --      3.2878                 1.8100                28.9089

                     43                     44                     45
                      A                      A                      A
 Frequencies --   3040.0661              3054.4182              3066.0991
 Red. masses --      1.0351                 1.0584                 1.0580
 Frc consts  --      5.6364                 5.8179                 5.8602
 IR Inten    --     16.8653                47.0273                25.9399

                     46                     47                     48
                      A                      A                      A
 Frequencies --   3084.4451              3108.7515              3112.4091
 Red. masses --      1.0856                 1.1039                 1.1009
 Frc consts  --      6.0854                 6.2854                 6.2832
 IR Inten    --     19.4678                43.0063                17.7660

                     49                     50                     51
                      A                      A                      A
 Frequencies --   3113.2825              3124.5212              3154.8549
 Red. masses --      1.0967                 1.1014                 1.1105
 Frc consts  --      6.2629                 6.3353                 6.5119
 IR Inten    --     60.7212                16.4907                22.3148

 - Thermochemistry -
 -------------------
 Temperature   298.150 Kelvin.  Pressure   1.00000 Atm.
 Atom     1 has atomic number  6 and mass  12.00000

 Molecular mass:   126.06808 amu.
 Principal axes and moments of inertia in atomic units:
                           1         2         3
     Eigenvalues --   640.108071026.844521322.54874
           X            0.99891   0.04601  -0.00762
           Y           -0.04597   0.99893   0.00591
           Z            0.00788  -0.00556   0.99995
 This molecule is an asymmetric top.
 Rotational symmetry number  1.
 Warning -- assumption of classical behavior for rotation
           may cause significant error
 Rotational temperatures (Kelvin)      0.13531     0.08435     0.06549
 Rotational constants (GHZ):           2.81943     1.75756     1.36459
 Zero-point vibrational energy     419670.9 (Joules/Mol)
                                  100.30375 (Kcal/Mol)
 Warning -- explicit consideration of   9 degrees of freedom as
           vibrations may cause significant error
 Vibrational temperatures:    142.80   264.91   318.02   431.58   479.17
          (Kelvin)            615.37   682.09   730.75   884.57   986.25
                             1028.85  1094.66  1144.61  1201.95  1238.00
                             1278.96  1359.29  1398.33  1442.76  1466.69
                             1489.97  1534.63  1568.95  1583.08  1609.72
                             1614.51  1646.41  1704.10  1725.58  1768.01
                             1779.71  1847.67  1917.98  1949.05  1971.52
                             2000.55  2021.82  2135.16  2144.66  2151.56
                             2163.87  4348.74  4373.97  4394.62  4411.43
                             4437.82  4472.79  4478.06  4479.31  4495.48
                             4539.13

 Zero-point correction=                           0.159844 (Hartree/Particle)
 Thermal correction to Energy=                    0.167283
 Thermal correction to Enthalpy=                  0.168227
 Thermal correction to Gibbs Free Energy=         0.128113
 Sum of electronic and zero-point Energies=           -422.943566
 Sum of electronic and thermal Energies=              -422.936128
 Sum of electronic and thermal Enthalpies=            -422.935184
 Sum of electronic and thermal Free Energies=         -422.975297

                     E (Thermal)             CV                S
                      KCal/Mol        Cal/Mol-Kelvin    Cal/Mol-Kelvin
 Total                  104.972             29.924             84.426
 Electronic               0.000              0.000              0.000
 Translational            0.889              2.981             40.409
 Rotational               0.889              2.981             28.254
 Vibrational            103.194             23.962             15.763
 Vibration     1          0.604              1.950              3.469
 Vibration     2          0.631              1.861              2.286
 Vibration     3          0.648              1.809              1.951
 Vibration     4          0.692              1.674              1.417
 Vibration     5          0.715              1.610              1.245
 Vibration     6          0.789              1.410              0.866
 Vibration     7          0.831              1.308              0.726
 Vibration     8          0.863              1.232              0.639
 Vibration     9          0.974              1.001              0.425

 Optimization completed.
    -- Stationary point found.
 Normal termination of Gaussian 09 at Tue Jan 28 09:02:09 2020.
