 Gaussian 09, Revision D.01,
 Gaussian 09:  ES64L-G09RevD.01 24-Apr-2013

 -----------------------------
 # b3lyp 6-31G(2df,p) opt Freq
 -----------------------------

 -----
 titel
 -----
 Symbolic Z-matrix:
 Charge =  0 Multiplicity = 1

 SCF Done:  E(RB3LYP) =  -423.190244628     A.U. after   14 cycles
 Optimization completed.
    -- Stationary point found.
 Normal termination of Gaussian 09 at Tue Jan 28 02:25:29 2020.

 ----------------------------------------------------------------------
 #N Geom=AllCheck Guess=TCheck SCRF=Check GenChk RB3LYP/6-31G(2df,p) Fr
 eq
 ----------------------------------------------------------------------

 Structure from the checkpoint file:  "/scratch/puck/g09_b3b8e3c3-cb20-41e4-b44a-a0f1c616f5c8/Gau-76364.chk"
 -----
 titel
 -----
 Charge =  0 Multiplicity = 1

                         Standard orientation:
 ---------------------------------------------------------------------
 Center     Atomic      Atomic             Coordinates (Angstroms)
 Number     Number       Type             X           Y           Z
 ---------------------------------------------------------------------
      1          6           0       -2.722733   -0.194137    0.086774
      2          6           0       -1.396166    0.289328   -0.494844
      3          6           0       -0.432097   -0.870064   -0.935911
      4          6           0        0.764052   -0.574699   -0.006906
      5          6           0        1.915572   -1.526589    0.109587
      6          8           0        0.080134   -0.234156    1.260392
      7          6           0       -0.468507    0.930971    0.561478
      8          6           0        0.901512    0.963520   -0.142306
      9          8           0        1.747093    1.752096   -0.428987
     10          1           0       -2.545803   -0.830311    0.959054
     11          1           0       -3.352198    0.646705    0.396765
     12          1           0       -3.282032   -0.777861   -0.651895
     13          1           0       -1.579150    0.989064   -1.317428
     14          1           0       -0.854070   -1.856838   -0.722970
     15          1           0       -0.159570   -0.829761   -1.994317
     16          1           0        2.652077   -1.159693    0.828708
     17          1           0        1.572190   -2.515400    0.429834
     18          1           0        2.406212   -1.634117   -0.862595
     19          1           0       -0.845269    1.714712    1.216382
 ---------------------------------------------------------------------

 SCF Done:  E(RB3LYP) =  -423.190244628     A.U. after    1 cycles

 The electronic state is 1-A.
 Alpha  occ. eigenvalues --  -19.15676 -19.14634 -10.27410 -10.25008 -10.24311
 Alpha  occ. eigenvalues --  -10.20411 -10.19547 -10.18978 -10.18171  -1.07444
 Alpha  occ. eigenvalues --   -1.04413  -0.81387  -0.77517  -0.71611  -0.68831
 Alpha  occ. eigenvalues --   -0.63724  -0.57265  -0.51954  -0.50193  -0.47614
 Alpha  occ. eigenvalues --   -0.46343  -0.45665  -0.42525  -0.41144  -0.40129
 Alpha  occ. eigenvalues --   -0.39440  -0.38177  -0.37798  -0.35849  -0.35118
 Alpha  occ. eigenvalues --   -0.33787  -0.33360  -0.27081  -0.24341
 Alpha virt. eigenvalues --   -0.00994   0.07616   0.09507   0.10684   0.12020
 Alpha virt. eigenvalues --    0.13648   0.13820   0.14686   0.15594   0.16505
 Alpha virt. eigenvalues --    0.17265   0.17742   0.18218   0.19374   0.21748

 Mulliken charges:
               1
     1  C   -0.413579
     2  C    0.021435
     3  C   -0.285871
     4  C    0.287968
     5  C   -0.499743
     6  O   -0.328164
     7  C   -0.059223
     8  C    0.415681
     9  O   -0.321332
    10  H    0.133426
    11  H    0.115454
    12  H    0.117733
    13  H    0.085078
    14  H    0.110725
    15  H    0.111442
    16  H    0.141622
    17  H    0.132489
    18  H    0.136362
    19  H    0.098497
 Sum of Mulliken charges =   0.00000

 Dipole moment (field-independent basis, Debye):
    X=             -1.7433    Y=             -1.5552    Z=             -0.8615  Tot=              2.4900
 Quadrupole moment (field-independent basis, Debye-Ang):
   XX=            -54.4059   YY=            -54.5134   ZZ=            -54.3192
   XY=             -6.0132   XZ=              0.9883   YZ=              2.5310

  Exact polarizability:  86.288  -1.292  76.031  -2.014   1.463  64.156
 Approx polarizability: 114.659   4.388 115.039  -6.190  -3.448 105.788

                      1                      2                      3
                      A                      A                      A
 Frequencies --    127.6509               145.6282               164.6313
 Red. masses --      3.6588                 2.3486                 1.2284
 Frc consts  --      0.0351                 0.0293                 0.0196
 IR Inten    --      1.4247                 3.0282                 0.4195

                      4                      5                      6
                      A                      A                      A
 Frequencies --    225.1319               240.2448               250.9524
 Red. masses --      2.4987                 1.2054                 2.8154
 Frc consts  --      0.0746                 0.0410                 0.1045
 IR Inten    --      2.3520                 0.7939                 1.0428

                      7                      8                      9
                      A                      A                      A
 Frequencies --    322.8813               406.0432               471.4598
 Red. masses --      2.7501                 2.1385                 3.9899
 Frc consts  --      0.1689                 0.2077                 0.5225
 IR Inten    --      2.6416                 1.4103                 3.7979

                     10                     11                     12
                      A                      A                      A
 Frequencies --    521.7526               623.9158               671.2226
 Red. masses --      4.1215                 3.6408                 3.1021
 Frc consts  --      0.6610                 0.8350                 0.8235
 IR Inten    --      8.2622                 0.8232                 0.9655

                     13                     14                     15
                      A                      A                      A
 Frequencies --    722.5866               749.2392               827.4256
 Red. masses --      4.3817                 5.1422                 3.1167
 Frc consts  --      1.3479                 1.7007                 1.2572
 IR Inten    --      2.2987                 6.7789                 3.9916

                     16                     17                     18
                      A                      A                      A
 Frequencies --    845.1278               887.1192               903.1978
 Red. masses --      4.9994                 2.1979                 2.5415
 Frc consts  --      2.1039                 1.0191                 1.2215
 IR Inten    --     46.3147                 8.5750                14.4033

                     19                     20                     21
                      A                      A                      A
 Frequencies --    920.3410               936.2521              1030.2115
 Red. masses --      2.3534                 1.6550                 1.3484
 Frc consts  --      1.1745                 0.8547                 0.8432
 IR Inten    --     17.9626                14.9600                 3.7828

                     22                     23                     24
                      A                      A                      A
 Frequencies --   1036.0276              1049.6908              1088.6281
 Red. masses --      4.2572                 1.7780                 1.5739
 Frc consts  --      2.6922                 1.1542                 1.0990
 IR Inten    --      2.2114                 1.5774                 4.6504

                     25                     26                     27
                      A                      A                      A
 Frequencies --   1130.0351              1186.4077              1190.1854
 Red. masses --      2.1639                 1.4815                 2.0316
 Frc consts  --      1.6280                 1.2287                 1.6956
 IR Inten    --     15.7031                 1.4498                 2.3782

                     28                     29                     30
                      A                      A                      A
 Frequencies --   1198.4131              1241.2403              1265.2421
 Red. masses --      1.7440                 1.6405                 1.5621
 Frc consts  --      1.4758                 1.4892                 1.4734
 IR Inten    --      2.3983                 8.3434                 2.6860

                     31                     32                     33
                      A                      A                      A
 Frequencies --   1298.5053              1355.2457              1367.4384
 Red. masses --      1.4994                 2.2635                 1.5123
 Frc consts  --      1.4896                 2.4494                 1.6661
 IR Inten    --      1.0604                 6.1043                 5.4092

                     34                     35                     36
                      A                      A                      A
 Frequencies --   1405.7468              1416.1957              1476.9429
 Red. masses --      1.2443                 1.5486                 1.0595
 Frc consts  --      1.4488                 1.8299                 1.3616
 IR Inten    --      4.4488                10.0708                 1.7630

                     37                     38                     39
                      A                      A                      A
 Frequencies --   1485.1539              1490.3944              1493.3667
 Red. masses --      1.0978                 1.0486                 1.0438
 Frc consts  --      1.4267                 1.3723                 1.3715
 IR Inten    --      3.6287                 3.8713                 5.9294

                     40                     41                     42
                      A                      A                      A
 Frequencies --   1505.4961              1916.6624              3032.8615
 Red. masses --      1.0510                12.5879                 1.0355
 Frc consts  --      1.4035                27.2455                 5.6120
 IR Inten    --      2.1051               319.8522                25.5813

                     43                     44                     45
                      A                      A                      A
 Frequencies --   3043.2972              3048.0496              3055.1928
 Red. masses --      1.0364                 1.0779                 1.0645
 Frc consts  --      5.6554                 5.9004                 5.8544
 IR Inten    --      9.4085                22.5733                18.8402

                     46                     47                     48
                      A                      A                      A
 Frequencies --   3098.3487              3103.5672              3113.1637
 Red. masses --      1.1018                 1.1060                 1.1006
 Frc consts  --      6.2318                 6.2765                 6.2847
 IR Inten    --     22.5609                 9.3837                11.0119

                     49                     50                     51
                      A                      A                      A
 Frequencies --   3115.7490              3126.7572              3146.5973
 Red. masses --      1.1013                 1.1017                 1.0915
 Frc consts  --      6.2989                 6.3462                 6.3676
 IR Inten    --     26.6970                10.2790                21.0141

 - Thermochemistry -
 -------------------
 Temperature   298.150 Kelvin.  Pressure   1.00000 Atm.
 Atom     1 has atomic number  6 and mass  12.00000

 Molecular mass:   126.06808 amu.
 Principal axes and moments of inertia in atomic units:
                           1         2         3
     Eigenvalues --   679.503791186.446711460.09909
           X            0.99778  -0.06647   0.00385
           Y            0.06626   0.99698   0.04058
           Z           -0.00654  -0.04023   0.99917
 This molecule is an asymmetric top.
 Rotational symmetry number  1.
 Warning -- assumption of classical behavior for rotation
           may cause significant error
 Rotational temperatures (Kelvin)      0.12747     0.07300     0.05932
 Rotational constants (GHZ):           2.65597     1.52113     1.23604
 Zero-point vibrational energy     415544.5 (Joules/Mol)
                                   99.31752 (Kcal/Mol)
 Warning -- explicit consideration of  10 degrees of freedom as
           vibrations may cause significant error
 Vibrational temperatures:    183.66   209.53   236.87   323.91   345.66
          (Kelvin)            361.06   464.55   584.20   678.32   750.68
                              897.67   965.74  1039.64  1077.99  1190.48
                             1215.95  1276.37  1299.50  1324.16  1347.06
                             1482.24  1490.61  1510.27  1566.29  1625.87
                             1706.97  1712.41  1724.25  1785.87  1820.40
                             1868.26  1949.89  1967.44  2022.55  2037.59
                             2124.99  2136.80  2144.34  2148.62  2166.07
                             2757.65  4363.61  4378.62  4385.46  4395.74
                             4457.83  4465.34  4479.14  4482.86  4498.70
                             4527.25

 Zero-point correction=                           0.158273 (Hartree/Particle)
 Thermal correction to Energy=                    0.166822
 Thermal correction to Enthalpy=                  0.167766
 Thermal correction to Gibbs Free Energy=         0.125437
 Sum of electronic and zero-point Energies=           -423.031972
 Sum of electronic and thermal Energies=              -423.023422
 Sum of electronic and thermal Enthalpies=            -423.022478
 Sum of electronic and thermal Free Energies=         -423.064808

                     E (Thermal)             CV                S
                      KCal/Mol        Cal/Mol-Kelvin    Cal/Mol-Kelvin
 Total                  104.682             32.673             89.090
 Electronic               0.000              0.000              0.000
 Translational            0.889              2.981             40.409
 Rotational               0.889              2.981             28.556
 Vibrational            102.905             26.711             20.126
 Vibration     1          0.611              1.926              2.981
 Vibration     2          0.617              1.907              2.729
 Vibration     3          0.623              1.886              2.496
 Vibration     4          0.650              1.803              1.917
 Vibration     5          0.657              1.779              1.801
 Vibration     6          0.663              1.761              1.724
 Vibration     7          0.708              1.630              1.295
 Vibration     8          0.771              1.457              0.941
 Vibration     9          0.828              1.313              0.733
 Vibration    10          0.877              1.202              0.606

 Optimization completed.
    -- Stationary point found.
 Normal termination of Gaussian 09 at Tue Jan 28 03:08:51 2020.
