 Gaussian 09, Revision D.01,
 Gaussian 09:  ES64L-G09RevD.01 24-Apr-2013

 -----------------------------
 # b3lyp 6-31G(2df,p) opt Freq
 -----------------------------

 -----
 titel
 -----
 Symbolic Z-matrix:
 Charge =  0 Multiplicity = 1

 SCF Done:  E(RB3LYP) =  -423.127956525     A.U. after   13 cycles
 Optimization completed.
    -- Stationary point found.
 Normal termination of Gaussian 09 at Tue Jan 28 02:54:05 2020.

 ----------------------------------------------------------------------
 #N Geom=AllCheck Guess=TCheck SCRF=Check GenChk RB3LYP/6-31G(2df,p) Fr
 eq
 ----------------------------------------------------------------------

 Structure from the checkpoint file:  "/scratch/puck/g09_8c758aa3-4855-4a9e-afc4-aa348ec07697/Gau-90254.chk"
 -----
 titel
 -----
 Charge =  0 Multiplicity = 1

                         Standard orientation:
 ---------------------------------------------------------------------
 Center     Atomic      Atomic             Coordinates (Angstroms)
 Number     Number       Type             X           Y           Z
 ---------------------------------------------------------------------
      1          8           0        2.813770    0.026990   -0.437209
      2          6           0        1.620048    0.145148    0.302370
      3          6           0        0.848806   -1.187475    0.607102
      4          6           0       -0.388585   -0.527478    0.027454
      5          8           0       -1.469843   -1.183273   -0.613392
      6          6           0       -2.392863   -0.163744   -0.140235
      7          6           0       -1.300790    0.520520    0.717402
      8          6           0       -0.513224    1.684360    0.049869
      9          6           0        0.445829    0.646559   -0.590356
     10          1           0        3.462795   -0.426264    0.111278
     11          1           0        1.766122    0.765022    1.198917
     12          1           0        1.217422   -1.970858   -0.063610
     13          1           0        0.813958   -1.564639    1.633429
     14          1           0       -2.795165    0.440036   -0.963509
     15          1           0       -3.221528   -0.613978    0.416690
     16          1           0       -1.483326    0.551570    1.792318
     17          1           0       -1.099311    2.267850   -0.666243
     18          1           0       -0.038838    2.379937    0.749056
     19          1           0        0.711135    0.714244   -1.645153
 ---------------------------------------------------------------------

 SCF Done:  E(RB3LYP) =  -423.127956525     A.U. after    1 cycles

 The electronic state is 1-A.
 Alpha  occ. eigenvalues --  -19.13877 -19.13259 -10.23661 -10.23167 -10.23150
 Alpha  occ. eigenvalues --  -10.18931 -10.18571 -10.17960 -10.17798  -1.04064
 Alpha  occ. eigenvalues --   -1.02143  -0.85566  -0.76616  -0.68609  -0.65788
 Alpha  occ. eigenvalues --   -0.61510  -0.58485  -0.52449  -0.50204  -0.48522
 Alpha  occ. eigenvalues --   -0.47194  -0.45775  -0.43851  -0.41449  -0.40611
 Alpha  occ. eigenvalues --   -0.37707  -0.36700  -0.33803  -0.32940  -0.31601
 Alpha  occ. eigenvalues --   -0.29683  -0.27559  -0.26119  -0.22901
 Alpha virt. eigenvalues --    0.06605   0.08464   0.09518   0.09901   0.11903
 Alpha virt. eigenvalues --    0.12580   0.13916   0.14909   0.15948   0.17305
 Alpha virt. eigenvalues --    0.18048   0.19068   0.19451   0.21399   0.22830

 Mulliken charges:
               1
     1  O   -0.432288
     2  C    0.129954
     3  C   -0.375393
     4  C    0.493185
     5  O   -0.328372
     6  C   -0.100404
     7  C   -0.145712
     8  C   -0.261677
     9  C   -0.108293
    10  H    0.282939
    11  H    0.064113
    12  H    0.118119
    13  H    0.093542
    14  H    0.101935
    15  H    0.107707
    16  H    0.073612
    17  H    0.102655
    18  H    0.100262
    19  H    0.084116
 Sum of Mulliken charges =   0.00000

 Dipole moment (field-independent basis, Debye):
    X=              0.2006    Y=              0.7231    Z=              2.0771  Tot=              2.2085
 Quadrupole moment (field-independent basis, Debye-Ang):
   XX=            -49.1790   YY=            -54.9487   ZZ=            -53.2282
   XY=             -5.0675   XZ=              2.7457   YZ=             -1.6539

  Exact polarizability:  88.734  -2.971  71.545   0.585  -2.219  65.053
 Approx polarizability: 115.500  -2.356 105.711  -0.251  -1.042 101.608

                      1                      2                      3
                      A                      A                      A
 Frequencies --     87.6377               174.9583               263.8397
 Red. masses --      3.2684                 2.6913                 1.2810
 Frc consts  --      0.0148                 0.0485                 0.0525
 IR Inten    --      0.2091                 3.4664                80.2287

                      4                      5                      6
                      A                      A                      A
 Frequencies --    294.6590               317.7095               360.5797
 Red. masses --      2.5301                 3.0190                 3.1945
 Frc consts  --      0.1294                 0.1795                 0.2447
 IR Inten    --      6.8195                14.9467                15.6077

                      7                      8                      9
                      A                      A                      A
 Frequencies --    391.4971               444.6486               517.9978
 Red. masses --      2.2717                 3.3144                 2.5118
 Frc consts  --      0.2051                 0.3861                 0.3971
 IR Inten    --      2.6900                 0.1688                 6.5165

                     10                     11                     12
                      A                      A                      A
 Frequencies --    660.9574               745.9144               769.5792
 Red. masses --      2.8471                 4.2813                 2.0567
 Frc consts  --      0.7328                 1.4035                 0.7177
 IR Inten    --      2.7730                 4.0139                 3.9422

                     13                     14                     15
                      A                      A                      A
 Frequencies --    819.6997               852.5750               868.8378
 Red. masses --      2.1518                 2.1935                 2.5152
 Frc consts  --      0.8518                 0.9394                 1.1187
 IR Inten    --      4.5084                 0.1677                 2.6190

                     16                     17                     18
                      A                      A                      A
 Frequencies --    912.0717               934.9599               984.2538
 Red. masses --      1.8906                 2.0633                 6.1819
 Frc consts  --      0.9267                 1.0627                 3.5285
 IR Inten    --      4.2382                 5.2808                62.5684

                     19                     20                     21
                      A                      A                      A
 Frequencies --    993.7713              1008.8701              1016.1879
 Red. masses --      2.5824                 1.9798                 2.1694
 Frc consts  --      1.5026                 1.1872                 1.3199
 IR Inten    --     33.3595                 3.8851                57.6173

                     22                     23                     24
                      A                      A                      A
 Frequencies --   1033.7847              1088.8305              1114.1798
 Red. masses --      1.9596                 1.9121                 2.2741
 Frc consts  --      1.2339                 1.3356                 1.6633
 IR Inten    --     36.1814                 7.9089                 8.3980

                     25                     26                     27
                      A                      A                      A
 Frequencies --   1138.9031              1148.1330              1165.4831
 Red. masses --      2.2684                 1.5039                 1.4104
 Frc consts  --      1.7335                 1.1680                 1.1288
 IR Inten    --     32.8012                 3.5424                 4.6340

                     28                     29                     30
                      A                      A                      A
 Frequencies --   1187.4960              1205.3904              1221.8649
 Red. masses --      1.4519                 1.4800                 1.2720
 Frc consts  --      1.2063                 1.2669                 1.1189
 IR Inten    --      1.7727                 9.6796                12.9304

                     31                     32                     33
                      A                      A                      A
 Frequencies --   1248.8545              1254.2322              1272.2937
 Red. masses --      1.7086                 1.6507                 1.6061
 Frc consts  --      1.5701                 1.5300                 1.5318
 IR Inten    --     23.3269                 3.7326                32.6024

                     34                     35                     36
                      A                      A                      A
 Frequencies --   1292.0250              1316.9079              1334.4766
 Red. masses --      1.8498                 1.5429                 2.0144
 Frc consts  --      1.8193                 1.5765                 2.1135
 IR Inten    --     44.6257                47.4743                13.8584

                     37                     38                     39
                      A                      A                      A
 Frequencies --   1354.5435              1420.0565              1470.3510
 Red. masses --      1.5401                 1.4136                 1.1454
 Frc consts  --      1.6649                 1.6796                 1.4590
 IR Inten    --     10.8286                 4.8259                 2.0811

                     40                     41                     42
                      A                      A                      A
 Frequencies --   1479.4863              1519.7791              2987.0529
 Red. masses --      1.1122                 1.1140                 1.0851
 Frc consts  --      1.4343                 1.5159                 5.7043
 IR Inten    --      2.4517                 0.8369                48.3802

                     43                     44                     45
                      A                      A                      A
 Frequencies --   3018.0820              3043.7259              3045.4413
 Red. masses --      1.0570                 1.0576                 1.0584
 Frc consts  --      5.6728                 5.7728                 5.7834
 IR Inten    --     74.1078                54.9597                15.6978

                     46                     47                     48
                      A                      A                      A
 Frequencies --   3068.6316              3090.9779              3103.0948
 Red. masses --      1.1089                 1.1026                 1.1008
 Frc consts  --      6.1524                 6.2069                 6.2451
 IR Inten    --     28.9201                18.3825                 3.8409

                     49                     50                     51
                      A                      A                      A
 Frequencies --   3104.3033              3122.4884              3807.5463
 Red. masses --      1.1010                 1.0891                 1.0660
 Frc consts  --      6.2514                 6.2563                 9.1054
 IR Inten    --     64.9459                17.1047                20.3488

 - Thermochemistry -
 -------------------
 Temperature   298.150 Kelvin.  Pressure   1.00000 Atm.
 Atom     1 has atomic number  8 and mass  15.99491

 Molecular mass:   126.06808 amu.
 Principal axes and moments of inertia in atomic units:
                           1         2         3
     Eigenvalues --   507.822101338.700391579.82831
           X            0.99966  -0.02510   0.00711
           Y            0.02531   0.99919  -0.03143
           Z           -0.00632   0.03160   0.99948
 This molecule is an asymmetric top.
 Rotational symmetry number  1.
 Warning -- assumption of classical behavior for rotation
           may cause significant error
 Rotational temperatures (Kelvin)      0.17056     0.06470     0.05482
 Rotational constants (GHZ):           3.55388     1.34813     1.14237
 Zero-point vibrational energy     419169.2 (Joules/Mol)
                                  100.18385 (Kcal/Mol)
 Warning -- explicit consideration of   9 degrees of freedom as
           vibrations may cause significant error
 Vibrational temperatures:    126.09   251.73   379.61   423.95   457.11
          (Kelvin)            518.79   563.28   639.75   745.28   950.97
                             1073.20  1107.25  1179.36  1226.66  1250.06
                             1312.27  1345.20  1416.12  1429.81  1451.54
                             1462.07  1487.38  1566.58  1603.05  1638.63
                             1651.91  1676.87  1708.54  1734.29  1757.99
                             1796.82  1804.56  1830.54  1858.93  1894.73
                             1920.01  1948.88  2043.14  2115.50  2128.65
                             2186.62  4297.70  4342.34  4379.24  4381.71
                             4415.07  4447.22  4464.66  4466.39  4492.56
                             5478.20

 Zero-point correction=                           0.159653 (Hartree/Particle)
 Thermal correction to Energy=                    0.167337
 Thermal correction to Enthalpy=                  0.168281
 Thermal correction to Gibbs Free Energy=         0.127593
 Sum of electronic and zero-point Energies=           -422.968303
 Sum of electronic and thermal Energies=              -422.960620
 Sum of electronic and thermal Enthalpies=            -422.959675
 Sum of electronic and thermal Free Energies=         -423.000363

                     E (Thermal)             CV                S
                      KCal/Mol        Cal/Mol-Kelvin    Cal/Mol-Kelvin
 Total                  105.006             30.620             85.634
 Electronic               0.000              0.000              0.000
 Translational            0.889              2.981             40.409
 Rotational               0.889              2.981             28.465
 Vibrational            103.228             24.659             16.761
 Vibration     1          0.601              1.958              3.712
 Vibration     2          0.627              1.873              2.382
 Vibration     3          0.670              1.739              1.636
 Vibration     4          0.689              1.684              1.447
 Vibration     5          0.704              1.640              1.322
 Vibration     6          0.735              1.553              1.120
 Vibration     7          0.759              1.488              0.994
 Vibration     8          0.804              1.373              0.812
 Vibration     9          0.873              1.210              0.615

 Normal termination of Gaussian 09 at Tue Jan 28 03:36:38 2020.
