 Gaussian 09, Revision D.01,
 Gaussian 09:  ES64L-G09RevD.01 24-Apr-2013

 -----------------------------
 # b3lyp 6-31G(2df,p) opt Freq
 -----------------------------

 -----
 titel
 -----
 Symbolic Z-matrix:
 Charge =  0 Multiplicity = 1

 SCF Done:  E(RB3LYP) =  -423.154438697     A.U. after   14 cycles
 Optimization completed.
    -- Stationary point found.
 Normal termination of Gaussian 09 at Mon Jan 27 14:06:50 2020.

 ----------------------------------------------------------------------
 #N Geom=AllCheck Guess=TCheck SCRF=Check GenChk RB3LYP/6-31G(2df,p) Fr
 eq
 ----------------------------------------------------------------------

 Structure from the checkpoint file:  "/scratch/puck/g09_a3f06b15-0c83-46c2-af37-87a5bffc6d7f/Gau-41059.chk"
 -----
 titel
 -----
 Charge =  0 Multiplicity = 1

                         Standard orientation:
 ---------------------------------------------------------------------
 Center     Atomic      Atomic             Coordinates (Angstroms)
 Number     Number       Type             X           Y           Z
 ---------------------------------------------------------------------
      1          6           0       -2.362454    1.004158    0.290810
      2          6           0       -1.529695   -0.253402    0.111417
      3          8           0       -1.949569   -1.228042   -0.474279
      4          6           0       -0.138253   -0.180294    0.692664
      5          6           0        0.924663   -1.269085    0.388533
      6          6           0        2.020436   -0.230184    0.774985
      7          6           0        1.014845    0.516020   -0.150879
      8          8           0        1.049827    1.816988   -0.609955
      9          6           0        1.025552   -0.723446   -1.071546
     10          1           0       -2.511275    1.220058    1.355111
     11          1           0       -1.823932    1.858073   -0.137438
     12          1           0       -3.330419    0.886850   -0.197696
     13          1           0       -0.177806    0.168583    1.732273
     14          1           0        0.878382   -2.310525    0.692003
     15          1           0        2.059050    0.081950    1.823204
     16          1           0        3.017584   -0.401982    0.362011
     17          1           0        1.224167    2.402737    0.135075
     18          1           0        0.163663   -0.884994   -1.716107
     19          1           0        1.967961   -0.914917   -1.590467
 ---------------------------------------------------------------------

 SCF Done:  E(RB3LYP) =  -423.154438697     A.U. after    1 cycles

 The electronic state is 1-A.
 Alpha  occ. eigenvalues --  -19.16032 -19.12325 -10.26414 -10.26205 -10.20776
 Alpha  occ. eigenvalues --  -10.19661 -10.19394 -10.18594 -10.18402  -1.04666
 Alpha  occ. eigenvalues --   -1.03276  -0.91386  -0.75301  -0.68518  -0.67609
 Alpha  occ. eigenvalues --   -0.62707  -0.57197  -0.54429  -0.50755  -0.47455
 Alpha  occ. eigenvalues --   -0.46292  -0.43857  -0.43256  -0.41817  -0.40333
 Alpha  occ. eigenvalues --   -0.38754  -0.36518  -0.35366  -0.33928  -0.32940
 Alpha  occ. eigenvalues --   -0.32606  -0.31044  -0.27388  -0.23548
 Alpha virt. eigenvalues --   -0.01140   0.06502   0.09970   0.11813   0.12958
 Alpha virt. eigenvalues --    0.14159   0.14839   0.15082   0.15567   0.16504
 Alpha virt. eigenvalues --    0.16995   0.18095   0.18852   0.20736   0.22330

 Mulliken charges:
               1
     1  C   -0.484716
     2  C    0.351836
     3  O   -0.307435
     4  C   -0.132614
     5  C   -0.062737
     6  C   -0.294886
     7  C    0.379765
     8  O   -0.463560
     9  C   -0.259953
    10  H    0.132469
    11  H    0.146765
    12  H    0.139374
    13  H    0.070516
    14  H    0.093716
    15  H    0.086499
    16  H    0.098994
    17  H    0.286335
    18  H    0.125931
    19  H    0.093703
 Sum of Mulliken charges =   0.00000

 Dipole moment (field-independent basis, Debye):
    X=              1.4889    Y=              2.0253    Z=              2.3596  Tot=              3.4477
 Quadrupole moment (field-independent basis, Debye-Ang):
   XX=            -54.3196   YY=            -53.2872   ZZ=            -53.0848
   XY=             -4.1472   XZ=             -0.8204   YZ=              2.2597

  Exact polarizability:  86.439  -1.846  74.619   1.365   4.817  68.159
 Approx polarizability: 114.845   5.610 118.418   2.932   8.937 107.814

                      1                      2                      3
                      A                      A                      A
 Frequencies --     54.1385               122.8147               154.0809
 Red. masses --      3.9606                 4.5296                 1.0425
 Frc consts  --      0.0068                 0.0403                 0.0146
 IR Inten    --      2.3314                 2.3281                 0.3857

                      4                      5                      6
                      A                      A                      A
 Frequencies --    200.4260               278.7379               337.8768
 Red. masses --      4.4691                 1.1896                 3.6474
 Frc consts  --      0.1058                 0.0545                 0.2453
 IR Inten    --      0.6841                86.2119                12.6836

                      7                      8                      9
                      A                      A                      A
 Frequencies --    356.1868               377.9869               466.4910
 Red. masses --      2.9831                 3.1355                 3.3005
 Frc consts  --      0.2230                 0.2639                 0.4232
 IR Inten    --     15.4759                 4.0304                 4.7109

                     10                     11                     12
                      A                      A                      A
 Frequencies --    545.4908               576.4179               633.8494
 Red. masses --      2.2042                 3.0048                 2.6263
 Frc consts  --      0.3864                 0.5882                 0.6217
 IR Inten    --      0.5238                18.5014                 2.2439

                     13                     14                     15
                      A                      A                      A
 Frequencies --    662.9564               765.5217               802.9728
 Red. masses --      3.9794                 3.3132                 3.0463
 Frc consts  --      1.0305                 1.1440                 1.1572
 IR Inten    --      8.3188                 8.4260                 4.6647

                     16                     17                     18
                      A                      A                      A
 Frequencies --    846.4318               922.5850               939.7445
 Red. masses --      2.4983                 2.7277                 2.0618
 Frc consts  --      1.0546                 1.3679                 1.0728
 IR Inten    --      0.2186                 3.5918                 3.9843

                     19                     20                     21
                      A                      A                      A
 Frequencies --    947.8371               950.8679               994.1534
 Red. masses --      1.6649                 2.0540                 1.4045
 Frc consts  --      0.8813                 1.0942                 0.8179
 IR Inten    --      5.1050                19.2224                 2.4394

                     22                     23                     24
                      A                      A                      A
 Frequencies --   1012.8279              1050.6425              1073.5212
 Red. masses --      1.5649                 1.5388                 1.8806
 Frc consts  --      0.9458                 1.0008                 1.2769
 IR Inten    --      1.2156                 4.6787                 4.8453

                     25                     26                     27
                      A                      A                      A
 Frequencies --   1099.3739              1110.9808              1122.3918
 Red. masses --      1.5166                 1.4744                 1.3506
 Frc consts  --      1.0800                 1.0722                 1.0025
 IR Inten    --      0.5811                41.0928                 5.2494

                     28                     29                     30
                      A                      A                      A
 Frequencies --   1153.7627              1193.9154              1207.5001
 Red. masses --      1.5348                 1.6868                 1.6951
 Frc consts  --      1.2038                 1.4167                 1.4562
 IR Inten    --      7.0541                39.0781                13.4689

                     31                     32                     33
                      A                      A                      A
 Frequencies --   1213.7497              1231.8728              1284.7640
 Red. masses --      2.0370                 1.6601                 3.2734
 Frc consts  --      1.7680                 1.4843                 3.1834
 IR Inten    --     39.0451                 6.1645               252.5812

                     34                     35                     36
                      A                      A                      A
 Frequencies --   1363.7106              1375.1656              1398.7811
 Red. masses --      1.9751                 1.3198                 1.7528
 Frc consts  --      2.1642                 1.4705                 2.0206
 IR Inten    --     12.4782                24.4531                38.3505

                     37                     38                     39
                      A                      A                      A
 Frequencies --   1467.3771              1476.0691              1499.0860
 Red. masses --      1.0559                 1.0530                 1.1013
 Frc consts  --      1.3396                 1.3517                 1.4582
 IR Inten    --      9.2630                 6.7042                 1.5821

                     40                     41                     42
                      A                      A                      A
 Frequencies --   1544.2275              1796.9904              3026.3206
 Red. masses --      1.1979                10.5982                 1.0658
 Frc consts  --      1.6831                20.1638                 5.7514
 IR Inten    --     10.1494               139.2076                10.7538

                     43                     44                     45
                      A                      A                      A
 Frequencies --   3033.1546              3046.0364              3074.4386
 Red. masses --      1.0522                 1.0554                 1.0609
 Frc consts  --      5.7037                 5.7695                 5.9081
 IR Inten    --     17.0905                52.0920                31.2817

                     46                     47                     48
                      A                      A                      A
 Frequencies --   3092.4006              3116.5969              3151.1823
 Red. masses --      1.0983                 1.1101                 1.1018
 Frc consts  --      6.1880                 6.3527                 6.4461
 IR Inten    --      7.2069                39.0350                10.0489

                     49                     50                     51
                      A                      A                      A
 Frequencies --   3162.6673              3167.1276              3806.1904
 Red. masses --      1.1041                 1.0948                 1.0658
 Frc consts  --      6.5070                 6.4699                 9.0968
 IR Inten    --     17.9994                18.1534                32.0197

 - Thermochemistry -
 -------------------
 Temperature   298.150 Kelvin.  Pressure   1.00000 Atm.
 Atom     1 has atomic number  6 and mass  12.00000

 Molecular mass:   126.06808 amu.
 Principal axes and moments of inertia in atomic units:
                           1         2         3
     Eigenvalues --   683.919771260.967241560.64073
           X            0.99751  -0.07040  -0.00408
           Y            0.07051   0.99676   0.03871
           Z            0.00134  -0.03890   0.99924
 This molecule is an asymmetric top.
 Rotational symmetry number  1.
 Warning -- assumption of classical behavior for rotation
           may cause significant error
 Rotational temperatures (Kelvin)      0.12664     0.06869     0.05550
 Rotational constants (GHZ):           2.63882     1.43124     1.15641
 Zero-point vibrational energy     414448.6 (Joules/Mol)
                                   99.05559 (Kcal/Mol)
 Warning -- explicit consideration of  11 degrees of freedom as
           vibrations may cause significant error
 Vibrational temperatures:     77.89   176.70   221.69   288.37   401.04
          (Kelvin)            486.13   512.47   543.84   671.18   784.84
                              829.34   911.97   953.85  1101.41  1155.30
                             1217.83  1327.39  1352.08  1363.72  1368.09
                             1430.36  1457.23  1511.64  1544.56  1581.75
                             1598.45  1614.87  1660.01  1717.78  1737.32
                             1746.31  1772.39  1848.49  1962.07  1978.55
                             2012.53  2111.23  2123.73  2156.85  2221.80
                             2585.47  4354.19  4364.03  4382.56  4423.43
                             4449.27  4484.08  4533.84  4550.37  4556.78
                             5476.25

 Zero-point correction=                           0.157855 (Hartree/Particle)
 Thermal correction to Energy=                    0.166559
 Thermal correction to Enthalpy=                  0.167504
 Thermal correction to Gibbs Free Energy=         0.124266
 Sum of electronic and zero-point Energies=           -422.996584
 Sum of electronic and thermal Energies=              -422.987879
 Sum of electronic and thermal Enthalpies=            -422.986935
 Sum of electronic and thermal Free Energies=         -423.030173

                     E (Thermal)             CV                S
                      KCal/Mol        Cal/Mol-Kelvin    Cal/Mol-Kelvin
 Total                  104.518             33.182             91.002
 Electronic               0.000              0.000              0.000
 Translational            0.889              2.981             40.409
 Rotational               0.889              2.981             28.689
 Vibrational            102.740             27.220             21.904
 Vibration     1          0.596              1.976              4.660
 Vibration     2          0.610              1.930              3.056
 Vibration     3          0.620              1.898              2.621
 Vibration     4          0.638              1.839              2.129
 Vibration     5          0.679              1.713              1.541
 Vibration     6          0.718              1.600              1.222
 Vibration     7          0.732              1.563              1.139
 Vibration     8          0.748              1.517              1.047
 Vibration     9          0.824              1.324              0.747
 Vibration    10          0.901              1.150              0.554
 Vibration    11          0.933              1.082              0.492

 Normal termination of Gaussian 09 at Mon Jan 27 14:50:02 2020.
