 Gaussian 09, Revision D.01,
 Gaussian 09:  ES64L-G09RevD.01 24-Apr-2013

 -----------------------------
 # b3lyp 6-31G(2df,p) opt Freq
 -----------------------------

 -----
 titel
 -----
 Symbolic Z-matrix:
 Charge =  0 Multiplicity = 1

 SCF Done:  E(RB3LYP) =  -423.234480072     A.U. after   14 cycles
 Optimization completed.
    -- Stationary point found.
 Normal termination of Gaussian 09 at Mon Jan 27 16:14:51 2020.

 ----------------------------------------------------------------------
 #N Geom=AllCheck Guess=TCheck SCRF=Check GenChk RB3LYP/6-31G(2df,p) Fr
 eq
 ----------------------------------------------------------------------

 Structure from the checkpoint file:  "/scratch/puck/g09_946777fe-858e-482e-9d29-5b614cdac4da/Gau-56972.chk"
 -----
 titel
 -----
 Charge =  0 Multiplicity = 1

                         Standard orientation:
 ---------------------------------------------------------------------
 Center     Atomic      Atomic             Coordinates (Angstroms)
 Number     Number       Type             X           Y           Z
 ---------------------------------------------------------------------
      1          6           0        1.613350   -1.021170    1.094500
      2          6           0        0.973390   -0.146759    0.013840
      3          6           0        1.971281    0.206585   -1.084983
      4          8           0       -0.101427   -0.917844   -0.596470
      5          6           0       -1.331639   -0.557414   -0.118159
      6          8           0       -2.310287   -1.221648   -0.303227
      7          6           0       -1.205988    0.742477    0.610768
      8          6           0       -0.632165    1.864163   -0.239187
      9          6           0        0.268345    1.058062    0.641402
     10          1           0        1.978711   -1.954506    0.658448
     11          1           0        2.456874   -0.501031    1.559825
     12          1           0        0.886142   -1.266149    1.874109
     13          1           0        1.499974    0.801446   -1.870561
     14          1           0        2.802126    0.783257   -0.667072
     15          1           0        2.376179   -0.702295   -1.538496
     16          1           0       -1.910667    0.957504    1.401830
     17          1           0       -0.598239    1.729029   -1.314864
     18          1           0       -0.869334    2.872108    0.081303
     19          1           0        0.732489    1.520905    1.503972
 ---------------------------------------------------------------------

 SCF Done:  E(RB3LYP) =  -423.234480072     A.U. after    1 cycles

 The electronic state is 1-A.
 Alpha  occ. eigenvalues --  -19.17111 -19.11565 -10.29868 -10.26160 -10.21336
 Alpha  occ. eigenvalues --  -10.21146 -10.21011 -10.18739 -10.18688  -1.09137
 Alpha  occ. eigenvalues --   -1.01421  -0.88454  -0.79921  -0.70575  -0.65899
 Alpha  occ. eigenvalues --   -0.64186  -0.60014  -0.56268  -0.51416  -0.47323
 Alpha  occ. eigenvalues --   -0.46549  -0.45183  -0.42858  -0.41526  -0.41101
 Alpha  occ. eigenvalues --   -0.40679  -0.39676  -0.37018  -0.36807  -0.33929
 Alpha  occ. eigenvalues --   -0.32021  -0.30661  -0.28840  -0.25864
 Alpha virt. eigenvalues --    0.01367   0.07623   0.09013   0.10967   0.12067
 Alpha virt. eigenvalues --    0.12485   0.13495   0.14803   0.15980   0.17281
 Alpha virt. eigenvalues --    0.17701   0.18966   0.19825   0.20145   0.21787

 Mulliken charges:
               1
     1  C   -0.415318
     2  C    0.337468
     3  C   -0.416621
     4  O   -0.261751
     5  C    0.427816
     6  O   -0.349194
     7  C   -0.181895
     8  C   -0.310885
     9  C   -0.062132
    10  H    0.132990
    11  H    0.117659
    12  H    0.126119
    13  H    0.124761
    14  H    0.120031
    15  H    0.131635
    16  H    0.117887
    17  H    0.134674
    18  H    0.126984
    19  H    0.099773
 Sum of Mulliken charges =   0.00000

 Dipole moment (field-independent basis, Debye):
    X=              3.0929    Y=              2.9866    Z=              1.4909  Tot=              4.5506
 Quadrupole moment (field-independent basis, Debye-Ang):
   XX=            -57.9492   YY=            -54.1326   ZZ=            -51.4757
   XY=             -5.7663   XZ=             -1.7367   YZ=             -0.9446

  Exact polarizability:  85.577   0.768  74.507  -0.470  -0.181  64.982
 Approx polarizability: 124.979   8.613 109.276   0.774   1.975  96.979

                      1                      2                      3
                      A                      A                      A
 Frequencies --    109.9135               190.9780               209.0905
 Red. masses --      4.8783                 3.0952                 1.0357
 Frc consts  --      0.0347                 0.0665                 0.0267
 IR Inten    --      0.5895                 1.6760                 0.0178

                      4                      5                      6
                      A                      A                      A
 Frequencies --    245.4257               250.9819               334.1360
 Red. masses --      1.3291                 1.8095                 2.4978
 Frc consts  --      0.0472                 0.0672                 0.1643
 IR Inten    --      0.3608                 0.1899                 0.3079

                      7                      8                      9
                      A                      A                      A
 Frequencies --    343.6496               381.8278               487.3741
 Red. masses --      2.6687                 3.4481                 4.8656
 Frc consts  --      0.1857                 0.2962                 0.6809
 IR Inten    --      1.0004                 1.7314                 4.6285

                     10                     11                     12
                      A                      A                      A
 Frequencies --    506.0098               593.6861               634.1332
 Red. masses --      2.8646                 3.9480                 5.6006
 Frc consts  --      0.4321                 0.8199                 1.3269
 IR Inten    --      3.0708                 0.3820                 5.6446

                     13                     14                     15
                      A                      A                      A
 Frequencies --    755.4294               774.2442               799.2459
 Red. masses --      3.0449                 2.7219                 2.8049
 Frc consts  --      1.0238                 0.9613                 1.0557
 IR Inten    --      3.7484                 0.8627                 3.4636

                     16                     17                     18
                      A                      A                      A
 Frequencies --    846.0096               918.5352               937.6344
 Red. masses --      1.6438                 3.0480                 1.7654
 Frc consts  --      0.6932                 1.5151                 0.9144
 IR Inten    --      9.2250                12.7929                 8.1429

                     19                     20                     21
                      A                      A                      A
 Frequencies --    939.5828               968.4367               988.5215
 Red. masses --      2.2445                 2.2670                 2.0450
 Frc consts  --      1.1675                 1.2527                 1.1774
 IR Inten    --      8.2427                 4.9566                98.3218

                     22                     23                     24
                      A                      A                      A
 Frequencies --    996.0054              1028.0631              1059.9912
 Red. masses --      2.0245                 1.6090                 1.4365
 Frc consts  --      1.1833                 1.0019                 0.9509
 IR Inten    --     22.9061                 6.5098                27.7378

                     25                     26                     27
                      A                      A                      A
 Frequencies --   1078.6292              1101.9443              1158.1971
 Red. masses --      1.1898                 1.2412                 2.2299
 Frc consts  --      0.8156                 0.8880                 1.7624
 IR Inten    --      4.5136                 0.1946                86.5873

                     28                     29                     30
                      A                      A                      A
 Frequencies --   1197.4669              1208.0622              1233.0373
 Red. masses --      1.6288                 2.3480                 3.4080
 Frc consts  --      1.3761                 2.0190                 3.0529
 IR Inten    --      1.2080                15.6201                23.0845

                     31                     32                     33
                      A                      A                      A
 Frequencies --   1285.6082              1331.1750              1375.0958
 Red. masses --      3.1912                 2.0194                 2.4718
 Frc consts  --      3.1075                 2.1083                 2.7538
 IR Inten    --     92.2008                 9.0194                14.3979

                     34                     35                     36
                      A                      A                      A
 Frequencies --   1401.7085              1420.8393              1474.3905
 Red. masses --      1.2853                 1.2433                 1.0582
 Frc consts  --      1.4879                 1.4789                 1.3553
 IR Inten    --     11.2759                 5.8528                 0.4890

                     37                     38                     39
                      A                      A                      A
 Frequencies --   1481.4217              1488.0339              1497.5359
 Red. masses --      1.0763                 1.1489                 1.0939
 Frc consts  --      1.3917                 1.4988                 1.4454
 IR Inten    --      0.2543                 3.2736                 1.1065

                     40                     41                     42
                      A                      A                      A
 Frequencies --   1505.1850              1877.6390              3039.3426
 Red. masses --      1.0572                12.6566                 1.0350
 Frc consts  --      1.4112                26.2901                 5.6331
 IR Inten    --      5.2526               427.3897                12.5457

                     43                     44                     45
                      A                      A                      A
 Frequencies --   3047.8774              3111.8973              3118.8151
 Red. masses --      1.0356                 1.1014                 1.1019
 Frc consts  --      5.6679                 6.2844                 6.3150
 IR Inten    --     12.5876                11.3709                15.1456

                     46                     47                     48
                      A                      A                      A
 Frequencies --   3125.4157              3129.0098              3137.5914
 Red. masses --      1.1018                 1.1009                 1.0551
 Frc consts  --      6.3412                 6.3506                 6.1198
 IR Inten    --     18.6118                19.1474                12.4445

                     49                     50                     51
                      A                      A                      A
 Frequencies --   3184.7111              3216.2334              3226.9820
 Red. masses --      1.0913                 1.0980                 1.1118
 Frc consts  --      6.5211                 6.6918                 6.8213
 IR Inten    --      7.0312                 1.2270                 5.6121

 - Thermochemistry -
 -------------------
 Temperature   298.150 Kelvin.  Pressure   1.00000 Atm.
 Atom     1 has atomic number  6 and mass  12.00000

 Molecular mass:   126.06808 amu.
 Principal axes and moments of inertia in atomic units:
                           1         2         3
     Eigenvalues --   721.679361127.280961388.26491
           X            0.99717  -0.07458  -0.00988
           Y            0.07401   0.99604  -0.04917
           Z            0.01350   0.04830   0.99874
 This molecule is an asymmetric top.
 Rotational symmetry number  1.
 Warning -- assumption of classical behavior for rotation
           may cause significant error
 Rotational temperatures (Kelvin)      0.12002     0.07683     0.06239
 Rotational constants (GHZ):           2.50075     1.60097     1.30000
 Zero-point vibrational energy     417214.1 (Joules/Mol)
                                   99.71656 (Kcal/Mol)
 Warning -- explicit consideration of  11 degrees of freedom as
           vibrations may cause significant error
 Vibrational temperatures:    158.14   274.77   300.83   353.11   361.11
          (Kelvin)            480.75   494.43   549.36   701.22   728.03
                              854.18   912.38  1086.89  1113.96  1149.94
                             1217.22  1321.57  1349.05  1351.85  1393.36
                             1422.26  1433.03  1479.15  1525.09  1551.90
                             1585.45  1666.39  1722.89  1738.13  1774.06
                             1849.70  1915.26  1978.45  2016.74  2044.27
                             2121.32  2131.43  2140.95  2154.62  2165.62
                             2701.50  4372.93  4385.21  4477.32  4487.27
                             4496.77  4501.94  4514.29  4582.08  4627.44
                             4642.90

 Zero-point correction=                           0.158908 (Hartree/Particle)
 Thermal correction to Energy=                    0.167227
 Thermal correction to Enthalpy=                  0.168172
 Thermal correction to Gibbs Free Energy=         0.126476
 Sum of electronic and zero-point Energies=           -423.075572
 Sum of electronic and thermal Energies=              -423.067253
 Sum of electronic and thermal Enthalpies=            -423.066309
 Sum of electronic and thermal Free Energies=         -423.108005

                     E (Thermal)             CV                S
                      KCal/Mol        Cal/Mol-Kelvin    Cal/Mol-Kelvin
 Total                  104.937             32.630             87.757
 Electronic               0.000              0.000              0.000
 Translational            0.889              2.981             40.409
 Rotational               0.889              2.981             28.515
 Vibrational            103.159             26.668             18.834
 Vibration     1          0.606              1.941              3.270
 Vibration     2          0.634              1.852              2.218
 Vibration     3          0.642              1.827              2.052
 Vibration     4          0.660              1.770              1.763
 Vibration     5          0.663              1.761              1.724
 Vibration     6          0.716              1.607              1.240
 Vibration     7          0.722              1.588              1.195
 Vibration     8          0.751              1.509              1.032
 Vibration     9          0.843              1.278              0.690
 Vibration    10          0.861              1.237              0.643
 Vibration    11          0.951              1.045              0.461

 Optimization completed.
    -- Stationary point found.
 Normal termination of Gaussian 09 at Mon Jan 27 16:59:13 2020.
