 Gaussian 09, Revision D.01,
 Gaussian 09:  ES64L-G09RevD.01 24-Apr-2013

 -----------------------------
 # b3lyp 6-31G(2df,p) opt Freq
 -----------------------------

 -----
 titel
 -----
 Symbolic Z-matrix:
 Charge =  0 Multiplicity = 1

 SCF Done:  E(RB3LYP) =  -423.161760352     A.U. after   14 cycles
 Optimization completed.
    -- Stationary point found.
 Normal termination of Gaussian 09 at Tue Jan 28 09:25:11 2020.

 ----------------------------------------------------------------------
 #N Geom=AllCheck Guess=TCheck SCRF=Check GenChk RB3LYP/6-31G(2df,p) Fr
 eq
 ----------------------------------------------------------------------

 Structure from the checkpoint file:  "/scratch/puck/g09_bdae446b-bdce-485e-a728-607775cf006b/Gau-82622.chk"
 -----
 titel
 -----
 Charge =  0 Multiplicity = 1

                         Standard orientation:
 ---------------------------------------------------------------------
 Center     Atomic      Atomic             Coordinates (Angstroms)
 Number     Number       Type             X           Y           Z
 ---------------------------------------------------------------------
      1          6           0       -2.958804    0.224271   -0.305160
      2          8           0       -1.697652   -0.111798   -0.854595
      3          6           0       -0.646969   -0.029346    0.050683
      4          6           0       -0.480800   -1.085921    1.128614
      5          6           0        0.511210   -0.994920   -0.011432
      6          6           0        1.799464   -0.194962    0.200523
      7          8           0        2.676181   -0.237365   -0.919261
      8          6           0        1.295231    1.205227    0.497815
      9          6           0       -0.030766    1.298160    0.366491
     10          1           0       -2.996147    1.269754    0.032882
     11          1           0       -3.697543    0.086275   -1.097896
     12          1           0       -3.215008   -0.423697    0.544513
     13          1           0       -0.182873   -0.774494    2.124972
     14          1           0       -1.162352   -1.930393    1.092242
     15          1           0        0.525499   -1.794914   -0.741587
     16          1           0        2.389342   -0.601527    1.030388
     17          1           0        2.231590    0.222582   -1.640645
     18          1           0        1.968726    2.007430    0.776391
     19          1           0       -0.620871    2.197240    0.504384
 ---------------------------------------------------------------------

 SCF Done:  E(RB3LYP) =  -423.161760352     A.U. after    1 cycles

 The electronic state is 1-A.
 Alpha  occ. eigenvalues --  -19.14839 -19.13258 -10.24080 -10.23422 -10.22736
 Alpha  occ. eigenvalues --  -10.18996 -10.18955 -10.18638 -10.18170  -1.04332
 Alpha  occ. eigenvalues --   -1.01481  -0.87916  -0.76741  -0.70502  -0.67954
 Alpha  occ. eigenvalues --   -0.60738  -0.57341  -0.54474  -0.52862  -0.48960
 Alpha  occ. eigenvalues --   -0.45987  -0.45222  -0.44085  -0.42567  -0.41557
 Alpha  occ. eigenvalues --   -0.40161  -0.37134  -0.35337  -0.32698  -0.32401
 Alpha  occ. eigenvalues --   -0.29130  -0.26580  -0.25674  -0.24071
 Alpha virt. eigenvalues --    0.00377   0.09483   0.10325   0.10857   0.12428
 Alpha virt. eigenvalues --    0.12931   0.13642   0.14630   0.15675   0.16342
 Alpha virt. eigenvalues --    0.17571   0.19310   0.20133   0.21929   0.22445

 Mulliken charges:
               1
     1  C   -0.254405
     2  O   -0.287994
     3  C    0.420739
     4  C   -0.344802
     5  C   -0.167384
     6  C    0.093036
     7  O   -0.430509
     8  C   -0.138882
     9  C   -0.151178
    10  H    0.108648
    11  H    0.128043
    12  H    0.111286
    13  H    0.112898
    14  H    0.116382
    15  H    0.104329
    16  H    0.096568
    17  H    0.278531
    18  H    0.102370
    19  H    0.102326
 Sum of Mulliken charges =   0.00000

 Dipole moment (field-independent basis, Debye):
    X=             -1.7883    Y=              0.8426    Z=              0.9591  Tot=              2.1972
 Quadrupole moment (field-independent basis, Debye-Ang):
   XX=            -55.0023   YY=            -51.3383   ZZ=            -52.6129
   XY=              1.3941   XZ=              0.1772   YZ=             -0.7642

  Exact polarizability:  95.963   0.449  72.137   0.233  -0.185  63.043
 Approx polarizability: 136.960  -2.477 105.383  -0.384  -0.369  98.780

                      1                      2                      3
                      A                      A                      A
 Frequencies --     91.1896               116.3249               172.0314
 Red. masses --      2.6578                 3.7135                 1.1790
 Frc consts  --      0.0130                 0.0296                 0.0206
 IR Inten    --      1.1277                 1.6168                 0.2788

                      4                      5                      6
                      A                      A                      A
 Frequencies --    213.3763               275.0239               350.8225
 Red. masses --      3.2956                 2.4205                 1.6475
 Frc consts  --      0.0884                 0.1079                 0.1195
 IR Inten    --      2.3832                 4.1130                20.2855

                      7                      8                      9
                      A                      A                      A
 Frequencies --    368.7176               379.3306               423.5197
 Red. masses --      2.3828                 2.3649                 3.9455
 Frc consts  --      0.1909                 0.2005                 0.4170
 IR Inten    --     57.3920                 5.8671                 0.9302

                     10                     11                     12
                      A                      A                      A
 Frequencies --    437.8734               600.1458               639.4692
 Red. masses --      3.0640                 3.3834                 3.1366
 Frc consts  --      0.3461                 0.7180                 0.7557
 IR Inten    --      9.4386                 1.9217                 4.0001

                     13                     14                     15
                      A                      A                      A
 Frequencies --    742.0130               768.9905               800.9362
 Red. masses --      2.6223                 3.2058                 2.6912
 Frc consts  --      0.8507                 1.1169                 1.0172
 IR Inten    --      6.8701                14.2829                 4.5551

                     16                     17                     18
                      A                      A                      A
 Frequencies --    820.1542               927.9307               935.9622
 Red. masses --      1.4949                 2.3779                 1.6283
 Frc consts  --      0.5925                 1.2063                 0.8404
 IR Inten    --     28.3314                 1.8297                 4.0773

                     19                     20                     21
                      A                      A                      A
 Frequencies --    960.8324               975.3604              1008.9515
 Red. masses --      1.4622                 2.8333                 2.3498
 Frc consts  --      0.7953                 1.5881                 1.4093
 IR Inten    --      6.4074                20.6492                15.0192

                     22                     23                     24
                      A                      A                      A
 Frequencies --   1013.8400              1057.4588              1062.1762
 Red. masses --      2.4732                 1.3264                 2.9915
 Frc consts  --      1.4978                 0.8739                 1.9885
 IR Inten    --      1.4558                 0.6383               121.4296

                     25                     26                     27
                      A                      A                      A
 Frequencies --   1096.7202              1102.1272              1133.6103
 Red. masses --      1.4407                 2.6013                 1.3438
 Frc consts  --      1.0209                 1.8617                 1.0175
 IR Inten    --     21.7801                66.6212                10.8849

                     28                     29                     30
                      A                      A                      A
 Frequencies --   1181.1934              1212.1209              1248.9941
 Red. masses --      1.2820                 1.5386                 1.6207
 Frc consts  --      1.0538                 1.3318                 1.4896
 IR Inten    --      2.5429                 4.1566                 1.1739

                     31                     32                     33
                      A                      A                      A
 Frequencies --   1252.9770              1266.3162              1289.8193
 Red. masses --      1.7051                 1.7787                 1.8634
 Frc consts  --      1.5772                 1.6805                 1.8265
 IR Inten    --     29.3181                71.1747                11.8719

                     34                     35                     36
                      A                      A                      A
 Frequencies --   1338.5172              1388.7413              1423.9368
 Red. masses --      2.7095                 1.8098                 1.2509
 Frc consts  --      2.8602                 2.0564                 1.4944
 IR Inten    --      5.5649                62.3948                90.7341

                     37                     38                     39
                      A                      A                      A
 Frequencies --   1465.6662              1482.7473              1489.8104
 Red. masses --      1.2067                 1.2096                 1.1013
 Frc consts  --      1.5272                 1.5669                 1.4401
 IR Inten    --      9.3419                 8.3282                 3.4625

                     40                     41                     42
                      A                      A                      A
 Frequencies --   1506.4628              1657.1447              2991.6344
 Red. masses --      1.0547                 6.5851                 1.0352
 Frc consts  --      1.4103                10.6545                 5.4589
 IR Inten    --      7.1221                 3.1505                52.8107

                     43                     44                     45
                      A                      A                      A
 Frequencies --   3043.6549              3046.6256              3118.3899
 Red. masses --      1.1034                 1.0839                 1.0537
 Frc consts  --      6.0223                 5.9278                 6.0368
 IR Inten    --     44.3688                28.2960                13.0142

                     46                     47                     48
                      A                      A                      A
 Frequencies --   3120.3023              3187.3985              3193.9766
 Red. masses --      1.0976                 1.0851                 1.0938
 Frc consts  --      6.2962                 6.4953                 6.5741
 IR Inten    --     30.6790                 6.5802                 2.0989

                     49                     50                     51
                      A                      A                      A
 Frequencies --   3210.9988              3212.7491              3794.9807
 Red. masses --      1.1132                 1.1054                 1.0660
 Frc consts  --      6.7626                 6.7223                 9.0454
 IR Inten    --     15.0255                 7.5186                16.5958

 - Thermochemistry -
 -------------------
 Temperature   298.150 Kelvin.  Pressure   1.00000 Atm.
 Atom     1 has atomic number  6 and mass  12.00000

 Molecular mass:   126.06808 amu.
 Principal axes and moments of inertia in atomic units:
                           1         2         3
     Eigenvalues --   513.273981587.423061678.76420
           X            1.00000   0.00105   0.00019
           Y           -0.00104   0.99922  -0.03952
           Z           -0.00023   0.03952   0.99922
 This molecule is an asymmetric top.
 Rotational symmetry number  1.
 Warning -- assumption of classical behavior for rotation
           may cause significant error
 Rotational temperatures (Kelvin)      0.16875     0.05456     0.05159
 Rotational constants (GHZ):           3.51614     1.13690     1.07504
 Zero-point vibrational energy     416300.7 (Joules/Mol)
                                   99.49826 (Kcal/Mol)
 Warning -- explicit consideration of  11 degrees of freedom as
           vibrations may cause significant error
 Vibrational temperatures:    131.20   167.37   247.51   307.00   395.70
          (Kelvin)            504.75   530.50   545.77   609.35   630.00
                              863.47   920.05  1067.59  1106.40  1152.37
                             1180.02  1335.08  1346.64  1382.42  1403.32
                             1451.65  1458.69  1521.45  1528.23  1577.93
                             1585.71  1631.01  1699.47  1743.97  1797.02
                             1802.75  1821.94  1855.76  1925.83  1998.09
                             2048.72  2108.76  2133.34  2143.50  2167.46
                             2384.26  4304.29  4379.14  4383.41  4486.66
                             4489.41  4585.95  4595.41  4619.91  4622.42
                             5460.12

 Zero-point correction=                           0.158561 (Hartree/Particle)
 Thermal correction to Energy=                    0.167188
 Thermal correction to Enthalpy=                  0.168132
 Thermal correction to Gibbs Free Energy=         0.125408
 Sum of electronic and zero-point Energies=           -423.003200
 Sum of electronic and thermal Energies=              -422.994572
 Sum of electronic and thermal Enthalpies=            -422.993628
 Sum of electronic and thermal Free Energies=         -423.036352

                     E (Thermal)             CV                S
                      KCal/Mol        Cal/Mol-Kelvin    Cal/Mol-Kelvin
 Total                  104.912             33.099             89.920
 Electronic               0.000              0.000              0.000
 Translational            0.889              2.981             40.409
 Rotational               0.889              2.981             28.705
 Vibrational            103.135             27.137             20.807
 Vibration     1          0.602              1.955              3.634
 Vibration     2          0.608              1.936              3.161
 Vibration     3          0.626              1.877              2.413
 Vibration     4          0.644              1.821              2.015
 Vibration     5          0.677              1.720              1.564
 Vibration     6          0.728              1.574              1.162
 Vibration     7          0.741              1.537              1.085
 Vibration     8          0.749              1.514              1.042
 Vibration     9          0.786              1.419              0.880
 Vibration    10          0.798              1.388              0.833
 Vibration    11          0.958              1.031              0.449

 Optimization completed.
    -- Stationary point found.
 Normal termination of Gaussian 09 at Tue Jan 28 10:19:55 2020.
