 Gaussian 09, Revision D.01,
 Gaussian 09:  ES64L-G09RevD.01 24-Apr-2013

 -----------------------------
 # b3lyp 6-31G(2df,p) opt Freq
 -----------------------------

 -----
 titel
 -----
 Symbolic Z-matrix:
 Charge =  0 Multiplicity = 1

 SCF Done:  E(RB3LYP) =  -423.145453237     A.U. after   14 cycles
 Optimization completed.
    -- Stationary point found.
 Normal termination of Gaussian 09 at Mon Jan 27 17:02:47 2020.

 ----------------------------------------------------------------------
 #N Geom=AllCheck Guess=TCheck SCRF=Check GenChk RB3LYP/6-31G(2df,p) Fr
 eq
 ----------------------------------------------------------------------

 Structure from the checkpoint file:  "/scratch/puck/g09_e14afb73-8865-4955-9740-09795e005468/Gau-167329.chk"
 -----
 titel
 -----
 Charge =  0 Multiplicity = 1

                         Standard orientation:
 ---------------------------------------------------------------------
 Center     Atomic      Atomic             Coordinates (Angstroms)
 Number     Number       Type             X           Y           Z
 ---------------------------------------------------------------------
      1          6           0        2.315591    0.174523   -0.970495
      2          6           0        1.049046    0.060710   -0.177459
      3          6           0        0.199405    1.195394    0.349558
      4          6           0       -1.238699    1.353188   -0.111667
      5          8           0       -1.953434    0.138978   -0.265853
      6          6           0       -1.236348   -0.927163   -0.851817
      7          6           0        0.097468   -1.152844   -0.150784
      8          8           0       -0.057643   -1.054828    1.294681
      9          6           0        0.727312    0.136129    1.294120
     10          1           0        2.905840    1.036336   -0.642133
     11          1           0        2.938805   -0.720348   -0.859797
     12          1           0        2.111300    0.307622   -2.040049
     13          1           0        0.735482    2.139733    0.431157
     14          1           0       -1.819958    1.942132    0.605934
     15          1           0       -1.227818    1.910698   -1.065715
     16          1           0       -1.885137   -1.802795   -0.752578
     17          1           0       -1.048075   -0.759864   -1.927989
     18          1           0        0.558818   -2.104360   -0.436490
     19          1           0        1.336708    0.338024    2.168296
 ---------------------------------------------------------------------

 SCF Done:  E(RB3LYP) =  -423.145453237     A.U. after    1 cycles

 The electronic state is 1-A.
 Alpha  occ. eigenvalues --  -19.13542 -19.13374 -10.23689 -10.23554 -10.22917
 Alpha  occ. eigenvalues --  -10.22686 -10.19887 -10.19416 -10.18900  -1.05694
 Alpha  occ. eigenvalues --   -1.02109  -0.84531  -0.76205  -0.71710  -0.68954
 Alpha  occ. eigenvalues --   -0.63060  -0.56896  -0.53125  -0.50374  -0.48234
 Alpha  occ. eigenvalues --   -0.47448  -0.45271  -0.44310  -0.41647  -0.40536
 Alpha  occ. eigenvalues --   -0.40447  -0.38807  -0.38023  -0.33938  -0.33399
 Alpha  occ. eigenvalues --   -0.29474  -0.26506  -0.24924  -0.22450
 Alpha virt. eigenvalues --    0.08146   0.08481   0.11414   0.11935   0.12666
 Alpha virt. eigenvalues --    0.13225   0.13944   0.14126   0.14549   0.16834
 Alpha virt. eigenvalues --    0.18027   0.18562   0.18822   0.20075   0.22267

 Mulliken charges:
               1
     1  C   -0.511832
     2  C    0.239364
     3  C   -0.137263
     4  C   -0.094241
     5  O   -0.241279
     6  C   -0.094735
     7  C    0.043991
     8  O   -0.294169
     9  C    0.052083
    10  H    0.122896
    11  H    0.123313
    12  H    0.122183
    13  H    0.088184
    14  H    0.113750
    15  H    0.085006
    16  H    0.115556
    17  H    0.084521
    18  H    0.079806
    19  H    0.102866
 Sum of Mulliken charges =   0.00000

 Dipole moment (field-independent basis, Debye):
    X=              2.1113    Y=              0.9516    Z=             -1.4475  Tot=              2.7310
 Quadrupole moment (field-independent basis, Debye-Ang):
   XX=            -55.4572   YY=            -50.3048   ZZ=            -53.6524
   XY=              0.4096   XZ=              1.2943   YZ=              3.6364

  Exact polarizability:  75.807  -0.231  76.856   0.322   3.762  70.707
 Approx polarizability: 102.546   0.197 113.591  -1.619   3.222 109.632

                      1                      2                      3
                      A                      A                      A
 Frequencies --    165.4226               180.5505               203.2292
 Red. masses --      2.9689                 1.2275                 1.8264
 Frc consts  --      0.0479                 0.0236                 0.0444
 IR Inten    --      1.3093                 0.0977                 0.5668

                      4                      5                      6
                      A                      A                      A
 Frequencies --    255.4422               289.8611               359.5668
 Red. masses --      2.5396                 2.8262                 3.2273
 Frc consts  --      0.0976                 0.1399                 0.2458
 IR Inten    --      3.6906                 1.2614                 2.7139

                      7                      8                      9
                      A                      A                      A
 Frequencies --    427.8510               464.0932               621.9011
 Red. masses --      3.6702                 3.7393                 3.5402
 Frc consts  --      0.3958                 0.4745                 0.8067
 IR Inten    --      1.3893                 1.2770                 1.3456

                     10                     11                     12
                      A                      A                      A
 Frequencies --    682.0036               738.2070               745.9926
 Red. masses --      4.1793                 4.3536                 3.5133
 Frc consts  --      1.1453                 1.3978                 1.1520
 IR Inten    --     11.3353                 5.3836                10.6459

                     13                     14                     15
                      A                      A                      A
 Frequencies --    822.7299               875.4500               883.4462
 Red. masses --      3.9635                 3.1508                 2.0498
 Frc consts  --      1.5807                 1.4228                 0.9426
 IR Inten    --     15.4968                20.7846                 9.7107

                     16                     17                     18
                      A                      A                      A
 Frequencies --    904.7509               914.3331              1003.3930
 Red. masses --      2.0433                 2.0384                 1.8029
 Frc consts  --      0.9855                 1.0041                 1.0694
 IR Inten    --      0.7529                14.6943                 2.7079

                     19                     20                     21
                      A                      A                      A
 Frequencies --   1007.2816              1024.5721              1042.3774
 Red. masses --      1.7832                 2.4670                 1.8125
 Frc consts  --      1.0660                 1.5258                 1.1603
 IR Inten    --      4.7236                12.0349                 6.4609

                     22                     23                     24
                      A                      A                      A
 Frequencies --   1070.3443              1088.2526              1106.2128
 Red. masses --      1.9668                 1.8315                 2.0513
 Frc consts  --      1.3276                 1.2780                 1.4789
 IR Inten    --     28.7655                18.5982                11.1473

                     25                     26                     27
                      A                      A                      A
 Frequencies --   1135.4836              1174.8543              1222.5846
 Red. masses --      2.3046                 4.4473                 1.5247
 Frc consts  --      1.7507                 3.6167                 1.3427
 IR Inten    --      2.1199                68.0339                 2.2650

                     28                     29                     30
                      A                      A                      A
 Frequencies --   1234.8892              1261.8561              1279.9758
 Red. masses --      1.5067                 1.9472                 1.3873
 Frc consts  --      1.3537                 1.8268                 1.3391
 IR Inten    --      0.4259                22.5992                14.6976

                     31                     32                     33
                      A                      A                      A
 Frequencies --   1302.1190              1330.0712              1345.5275
 Red. masses --      1.2386                 1.9967                 1.4868
 Frc consts  --      1.2373                 2.0812                 1.5859
 IR Inten    --      1.4025                 5.9468                 6.0481

                     34                     35                     36
                      A                      A                      A
 Frequencies --   1386.1407              1412.0354              1426.7361
 Red. masses --      1.2967                 1.2636                 1.3994
 Frc consts  --      1.4680                 1.4844                 1.6783
 IR Inten    --      1.5835                 4.8019                12.8277

                     37                     38                     39
                      A                      A                      A
 Frequencies --   1481.9465              1486.6335              1488.4538
 Red. masses --      1.2636                 1.1260                 1.6047
 Frc consts  --      1.6350                 1.4662                 2.0947
 IR Inten    --      0.4594                 6.5152                 5.3979

                     40                     41                     42
                      A                      A                      A
 Frequencies --   1499.0303              1502.8254              2938.2020
 Red. masses --      1.1949                 1.1423                 1.0721
 Frc consts  --      1.5820                 1.5201                 5.4529
 IR Inten    --      1.0586                 2.5831                62.3166

                     43                     44                     45
                      A                      A                      A
 Frequencies --   2947.9669              3018.9317              3051.0167
 Red. masses --      1.0712                 1.0363                 1.0875
 Frc consts  --      5.4850                 5.5647                 5.9646
 IR Inten    --     75.0583                35.8960                41.7420

                     46                     47                     48
                      A                      A                      A
 Frequencies --   3062.3512              3076.7250              3080.5431
 Red. masses --      1.0890                 1.1001                 1.0908
 Frc consts  --      6.0173                 6.1357                 6.0987
 IR Inten    --     37.1959                23.0394                34.7204

                     49                     50                     51
                      A                      A                      A
 Frequencies --   3095.7980              3129.0848              3174.3004
 Red. masses --      1.1000                 1.0862                 1.0935
 Frc consts  --      6.2116                 6.2659                 6.4917
 IR Inten    --     19.2799                12.7493                25.7735

 - Thermochemistry -
 -------------------
 Temperature   298.150 Kelvin.  Pressure   1.00000 Atm.
 Atom     1 has atomic number  6 and mass  12.00000

 Molecular mass:   126.06808 amu.
 Principal axes and moments of inertia in atomic units:
                           1         2         3
     Eigenvalues --   688.245281077.995141153.84380
           X            0.99982   0.01070  -0.01573
           Y           -0.00772   0.98391   0.17851
           Z            0.01739  -0.17836   0.98381
 This molecule is an asymmetric top.
 Rotational symmetry number  1.
 Warning -- assumption of classical behavior for rotation
           may cause significant error
 Rotational temperatures (Kelvin)      0.12585     0.08035     0.07507
 Rotational constants (GHZ):           2.62224     1.67416     1.56411
 Zero-point vibrational energy     421225.2 (Joules/Mol)
                                  100.67523 (Kcal/Mol)
 Warning -- explicit consideration of   8 degrees of freedom as
           vibrations may cause significant error
 Vibrational temperatures:    238.01   259.77   292.40   367.52   417.04
          (Kelvin)            517.34   615.58   667.73   894.78   981.25
                             1062.11  1073.32  1183.72  1259.58  1271.08
                             1301.73  1315.52  1443.66  1449.25  1474.13
                             1499.75  1539.98  1565.75  1591.59  1633.71
                             1690.35  1759.02  1776.73  1815.53  1841.60
                             1873.46  1913.67  1935.91  1994.34  2031.60
                             2052.75  2132.19  2138.93  2141.55  2156.77
                             2162.23  4227.41  4241.46  4343.56  4389.73
                             4406.03  4426.72  4432.21  4454.16  4502.05
                             4567.10

 Zero-point correction=                           0.160436 (Hartree/Particle)
 Thermal correction to Energy=                    0.167974
 Thermal correction to Enthalpy=                  0.168919
 Thermal correction to Gibbs Free Energy=         0.128789
 Sum of electronic and zero-point Energies=           -422.985017
 Sum of electronic and thermal Energies=              -422.977479
 Sum of electronic and thermal Enthalpies=            -422.976535
 Sum of electronic and thermal Free Energies=         -423.016665

                     E (Thermal)             CV                S
                      KCal/Mol        Cal/Mol-Kelvin    Cal/Mol-Kelvin
 Total                  105.405             29.862             84.461
 Electronic               0.000              0.000              0.000
 Translational            0.889              2.981             40.409
 Rotational               0.889              2.981             28.239
 Vibrational            103.628             23.900             15.813
 Vibration     1          0.624              1.885              2.487
 Vibration     2          0.630              1.866              2.323
 Vibration     3          0.639              1.835              2.104
 Vibration     4          0.666              1.754              1.693
 Vibration     5          0.686              1.693              1.475
 Vibration     6          0.734              1.556              1.124
 Vibration     7          0.789              1.410              0.866
 Vibration     8          0.822              1.330              0.754

 Optimization completed.
    -- Stationary point found.
 Normal termination of Gaussian 09 at Mon Jan 27 17:48:56 2020.
