 Gaussian 09, Revision D.01,
 Gaussian 09:  ES64L-G09RevD.01 24-Apr-2013

 -----------------------------
 # b3lyp 6-31G(2df,p) opt Freq
 -----------------------------

 -----
 titel
 -----
 Symbolic Z-matrix:
 Charge =  0 Multiplicity = 1

 SCF Done:  E(RB3LYP) =  -423.148785930     A.U. after   14 cycles
 Optimization completed.
    -- Stationary point found.
 Normal termination of Gaussian 09 at Mon Jan 27 17:14:44 2020.

 ----------------------------------------------------------------------
 #N Geom=AllCheck Guess=TCheck SCRF=Check GenChk RB3LYP/6-31G(2df,p) Fr
 eq
 ----------------------------------------------------------------------

 Structure from the checkpoint file:  "/scratch/puck/g09_cb218508-e5b4-47ce-ba0d-b9e6b990dbf8/Gau-39486.chk"
 -----
 titel
 -----
 Charge =  0 Multiplicity = 1

                         Standard orientation:
 ---------------------------------------------------------------------
 Center     Atomic      Atomic             Coordinates (Angstroms)
 Number     Number       Type             X           Y           Z
 ---------------------------------------------------------------------
      1          6           0        0.407946    2.211560   -0.113994
      2          6           0        0.458882    0.715119   -0.021124
      3          6           0        1.377407   -0.096621   -0.967792
      4          6           0        1.209521   -1.500666   -0.300417
      5          6           0        0.243890   -1.075049    0.824056
      6          8           0        0.838875    0.174164    1.295500
      7          6           0       -0.767326   -0.205910    0.079589
      8          6           0       -2.180770    0.058415    0.272787
      9          8           0       -1.672545   -0.572525   -0.930324
     10          1           0       -0.239570    2.629607    0.661529
     11          1           0        1.408460    2.639911    0.003443
     12          1           0        0.022716    2.513422   -1.093332
     13          1           0        1.027655   -0.068597   -2.003071
     14          1           0        2.404576    0.273069   -0.929078
     15          1           0        0.768007   -2.245574   -0.967242
     16          1           0        2.144335   -1.893012    0.104428
     17          1           0       -0.014413   -1.778236    1.614549
     18          1           0       -2.774713   -0.588217    0.916420
     19          1           0       -2.574985    1.063428    0.132317
 ---------------------------------------------------------------------

 SCF Done:  E(RB3LYP) =  -423.148785930     A.U. after    1 cycles

 The electronic state is 1-A.
 Alpha  occ. eigenvalues --  -19.15602 -19.13595 -10.24212 -10.24109 -10.23848
 Alpha  occ. eigenvalues --  -10.23575 -10.18388 -10.18349 -10.18275  -1.08055
 Alpha  occ. eigenvalues --   -1.04435  -0.79159  -0.75871  -0.69587  -0.66446
 Alpha  occ. eigenvalues --   -0.65729  -0.57296  -0.53513  -0.49835  -0.49487
 Alpha  occ. eigenvalues --   -0.47869  -0.44790  -0.43423  -0.41544  -0.40892
 Alpha  occ. eigenvalues --   -0.38506  -0.35786  -0.35049  -0.34138  -0.32694
 Alpha  occ. eigenvalues --   -0.32340  -0.30895  -0.26309  -0.25338
 Alpha virt. eigenvalues --    0.08398   0.09230   0.09673   0.10674   0.12552
 Alpha virt. eigenvalues --    0.14190   0.14579   0.14869   0.15210   0.16178
 Alpha virt. eigenvalues --    0.17001   0.18497   0.19323   0.21742   0.21987

 Mulliken charges:
               1
     1  C   -0.504989
     2  C    0.313389
     3  C   -0.253841
     4  C   -0.225749
     5  C   -0.026669
     6  O   -0.338355
     7  C    0.463641
     8  C   -0.296962
     9  O   -0.287650
    10  H    0.128517
    11  H    0.131718
    12  H    0.130904
    13  H    0.111662
    14  H    0.104239
    15  H    0.113142
    16  H    0.107357
    17  H    0.084585
    18  H    0.123100
    19  H    0.121962
 Sum of Mulliken charges =   0.00000

 Dipole moment (field-independent basis, Debye):
    X=             -0.2360    Y=              0.3853    Z=              0.0526  Tot=              0.4549
 Quadrupole moment (field-independent basis, Debye-Ang):
   XX=            -52.1047   YY=            -49.9880   ZZ=            -56.4166
   XY=             -1.6939   XZ=             -4.9693   YZ=             -2.8674

  Exact polarizability:  81.004  -2.243  77.698  -4.344  -2.484  65.075
 Approx polarizability: 111.809  -0.619 107.047  -0.207   0.369 106.839

                      1                      2                      3
                      A                      A                      A
 Frequencies --    154.7899               176.7520               219.5956
 Red. masses --      3.6684                 1.3261                 1.8684
 Frc consts  --      0.0518                 0.0244                 0.0531
 IR Inten    --      5.1252                 0.4610                 0.4084

                      4                      5                      6
                      A                      A                      A
 Frequencies --    233.5427               254.7121               326.6033
 Red. masses --      1.8264                 2.8898                 2.6207
 Frc consts  --      0.0587                 0.1105                 0.1647
 IR Inten    --      0.8982                 2.6938                 2.6412

                      7                      8                      9
                      A                      A                      A
 Frequencies --    429.0894               454.0785               580.7574
 Red. masses --      3.1068                 3.3717                 3.5603
 Frc consts  --      0.3370                 0.4096                 0.7075
 IR Inten    --      2.7580                 6.0659                 5.4238

                     10                     11                     12
                      A                      A                      A
 Frequencies --    613.5467               629.7527               760.3380
 Red. masses --      4.6535                 4.3102                 4.7734
 Frc consts  --      1.0321                 1.0071                 1.6259
 IR Inten    --      6.7819                 2.9110                 5.1702

                     13                     14                     15
                      A                      A                      A
 Frequencies --    808.6824               830.5574               859.3742
 Red. masses --      2.6522                 1.6102                 2.1226
 Frc consts  --      1.0219                 0.6544                 0.9236
 IR Inten    --     25.5734                 8.3967                12.3167

                     16                     17                     18
                      A                      A                      A
 Frequencies --    880.6993               913.1506               918.1259
 Red. masses --      2.8231                 2.8251                 3.0024
 Frc consts  --      1.2901                 1.3879                 1.4912
 IR Inten    --      9.2705                 9.7295                11.8383

                     19                     20                     21
                      A                      A                      A
 Frequencies --    944.5238               965.7780               999.4253
 Red. masses --      2.4279                 2.0991                 1.7928
 Frc consts  --      1.2762                 1.1536                 1.0551
 IR Inten    --     12.5073                19.3963                10.0955

                     22                     23                     24
                      A                      A                      A
 Frequencies --   1006.2525              1091.8199              1111.4127
 Red. masses --      2.7888                 1.6998                 1.2517
 Frc consts  --      1.6637                 1.1938                 0.9110
 IR Inten    --     35.1852                20.7060                 2.9668

                     25                     26                     27
                      A                      A                      A
 Frequencies --   1133.2882              1142.8613              1169.9416
 Red. masses --      2.1554                 1.4966                 1.4799
 Frc consts  --      1.6310                 1.1517                 1.1935
 IR Inten    --      9.1590                 0.7061                 4.2669

                     28                     29                     30
                      A                      A                      A
 Frequencies --   1195.1154              1200.3473              1246.8219
 Red. masses --      1.8781                 1.6921                 1.3887
 Frc consts  --      1.5805                 1.4365                 1.2719
 IR Inten    --      1.5613                 6.4214                 5.7830

                     31                     32                     33
                      A                      A                      A
 Frequencies --   1265.6165              1280.4035              1305.2955
 Red. masses --      1.6578                 1.5686                 1.5056
 Frc consts  --      1.5646                 1.5152                 1.5114
 IR Inten    --      4.4135                 5.5402                 1.4337

                     34                     35                     36
                      A                      A                      A
 Frequencies --   1350.7905              1415.4701              1463.4592
 Red. masses --      2.2657                 1.5967                 1.4250
 Frc consts  --      2.4358                 1.8849                 1.7982
 IR Inten    --     10.8881                15.1944                 6.1988

                     37                     38                     39
                      A                      A                      A
 Frequencies --   1471.8062              1484.7484              1492.8020
 Red. masses --      1.0913                 1.1012                 1.0812
 Frc consts  --      1.3928                 1.4302                 1.4195
 IR Inten    --      0.3956                 2.2015                 6.4670

                     40                     41                     42
                      A                      A                      A
 Frequencies --   1496.4197              1561.7656              3039.5950
 Red. masses --      1.0998                 2.5216                 1.0352
 Frc consts  --      1.4510                 3.6237                 5.6352
 IR Inten    --      5.6239                19.3679                13.0181

                     43                     44                     45
                      A                      A                      A
 Frequencies --   3064.0623              3073.4401              3088.7600
 Red. masses --      1.0576                 1.0595                 1.0511
 Frc consts  --      5.8502                 5.8967                 5.9085
 IR Inten    --     27.1249                25.9850                23.4621

                     46                     47                     48
                      A                      A                      A
 Frequencies --   3108.2762              3112.0031              3118.6295
 Red. masses --      1.1019                 1.1066                 1.1017
 Frc consts  --      6.2722                 6.3144                 6.3131
 IR Inten    --      7.3733                 4.5289                15.2729

                     49                     50                     51
                      A                      A                      A
 Frequencies --   3128.7778              3135.9974              3175.5425
 Red. masses --      1.1069                 1.0919                 1.1193
 Frc consts  --      6.3842                 6.3267                 6.6501
 IR Inten    --     31.1298                35.4790                18.4474

 - Thermochemistry -
 -------------------
 Temperature   298.150 Kelvin.  Pressure   1.00000 Atm.
 Atom     1 has atomic number  6 and mass  12.00000

 Molecular mass:   126.06808 amu.
 Principal axes and moments of inertia in atomic units:
                           1         2         3
     Eigenvalues --   780.01883 955.958391216.73573
           X            0.99572  -0.06707  -0.06363
           Y            0.06524   0.99741  -0.03032
           Z            0.06550   0.02604   0.99751
 This molecule is an asymmetric top.
 Rotational symmetry number  1.
 Warning -- assumption of classical behavior for rotation
           may cause significant error
 Rotational temperatures (Kelvin)      0.11104     0.09060     0.07119
 Rotational constants (GHZ):           2.31371     1.88789     1.48326
 Zero-point vibrational energy     418007.5 (Joules/Mol)
                                   99.90619 (Kcal/Mol)
 Warning -- explicit consideration of  10 degrees of freedom as
           vibrations may cause significant error
 Vibrational temperatures:    222.71   254.31   315.95   336.02   366.47
          (Kelvin)            469.91   617.36   653.32   835.58   882.76
                              906.07  1093.96  1163.51  1194.99  1236.45
                             1267.13  1313.82  1320.98  1358.96  1389.54
                             1437.95  1447.77  1570.88  1599.07  1630.55
                             1644.32  1683.28  1719.50  1727.03  1793.90
                             1820.94  1842.21  1878.03  1943.48  2036.54
                             2105.59  2117.60  2136.22  2147.81  2153.01
                             2247.03  4373.29  4408.50  4421.99  4444.03
                             4472.11  4477.47  4487.01  4501.61  4512.00
                             4568.89

 Zero-point correction=                           0.159211 (Hartree/Particle)
 Thermal correction to Energy=                    0.167057
 Thermal correction to Enthalpy=                  0.168001
 Thermal correction to Gibbs Free Energy=         0.127313
 Sum of electronic and zero-point Energies=           -422.989575
 Sum of electronic and thermal Energies=              -422.981729
 Sum of electronic and thermal Enthalpies=            -422.980785
 Sum of electronic and thermal Free Energies=         -423.021473

                     E (Thermal)             CV                S
                      KCal/Mol        Cal/Mol-Kelvin    Cal/Mol-Kelvin
 Total                  104.830             31.143             85.634
 Electronic               0.000              0.000              0.000
 Translational            0.889              2.981             40.409
 Rotational               0.889              2.981             28.297
 Vibrational            103.052             25.182             16.928
 Vibration     1          0.620              1.897              2.613
 Vibration     2          0.628              1.871              2.362
 Vibration     3          0.647              1.811              1.962
 Vibration     4          0.654              1.790              1.852
 Vibration     5          0.665              1.755              1.698
 Vibration     6          0.710              1.622              1.277
 Vibration     7          0.790              1.407              0.862
 Vibration     8          0.813              1.352              0.784
 Vibration     9          0.937              1.073              0.484
 Vibration    10          0.973              1.003              0.427

 Normal termination of Gaussian 09 at Mon Jan 27 18:03:53 2020.
