 Gaussian 09, Revision D.01,
 Gaussian 09:  ES64L-G09RevD.01 24-Apr-2013

 -----------------------------
 # b3lyp 6-31G(2df,p) opt Freq
 -----------------------------

 -----
 titel
 -----
 Symbolic Z-matrix:
 Charge =  0 Multiplicity = 1

 SCF Done:  E(RB3LYP) =  -423.134762749     A.U. after   14 cycles
 Optimization completed.
    -- Stationary point found.
 Normal termination of Gaussian 09 at Tue Jan 28 01:55:51 2020.

 ----------------------------------------------------------------------
 #N Geom=AllCheck Guess=TCheck SCRF=Check GenChk RB3LYP/6-31G(2df,p) Fr
 eq
 ----------------------------------------------------------------------

 Structure from the checkpoint file:  "/scratch/puck/g09_71a841c7-7dea-47b4-ae29-66dab80f3a7c/Gau-193597.chk"
 -----
 titel
 -----
 Charge =  0 Multiplicity = 1

                         Standard orientation:
 ---------------------------------------------------------------------
 Center     Atomic      Atomic             Coordinates (Angstroms)
 Number     Number       Type             X           Y           Z
 ---------------------------------------------------------------------
      1          6           0       -2.527489    0.674305   -0.264910
      2          6           0       -1.666775   -0.559664   -0.187099
      3          8           0       -1.094252   -0.881334    1.097030
      4          6           0       -0.218225   -0.550323    0.027709
      5          6           0        0.837672   -1.495334   -0.591518
      6          6           0        1.804310   -0.303729   -0.640096
      7          6           0        2.023044    0.212277    0.761044
      8          6           0        0.764007    0.601303    0.030991
      9          8           0        0.451664    1.918867   -0.255884
     10          1           0       -3.495037    0.489929    0.214116
     11          1           0       -2.043537    1.521703    0.221079
     12          1           0       -2.713834    0.941045   -1.310636
     13          1           0       -2.071923   -1.433016   -0.704794
     14          1           0        1.147495   -2.331887    0.042142
     15          1           0        0.543122   -1.874503   -1.573296
     16          1           0        2.474112   -0.062828   -1.454444
     17          1           0        1.998550   -0.462627    1.613351
     18          1           0        2.743616    1.021041    0.838774
     19          1           0        0.458878    2.417867    0.567811
 ---------------------------------------------------------------------

 SCF Done:  E(RB3LYP) =  -423.134762749     A.U. after    1 cycles

 The electronic state is 1-A.
 Alpha  occ. eigenvalues --  -19.15488 -19.13897 -10.24268 -10.23480 -10.23157
 Alpha  occ. eigenvalues --  -10.19632 -10.19115 -10.18717 -10.17510  -1.06204
 Alpha  occ. eigenvalues --   -1.03843  -0.88922  -0.73877  -0.72268  -0.64225
 Alpha  occ. eigenvalues --   -0.60595  -0.58908  -0.54942  -0.51832  -0.47758
 Alpha  occ. eigenvalues --   -0.46537  -0.44576  -0.43472  -0.41322  -0.40210
 Alpha  occ. eigenvalues --   -0.38725  -0.37277  -0.36187  -0.33890  -0.32798
 Alpha  occ. eigenvalues --   -0.30191  -0.26876  -0.25781  -0.24574
 Alpha virt. eigenvalues --    0.06743   0.09108   0.11360   0.12141   0.12258
 Alpha virt. eigenvalues --    0.13554   0.13828   0.14467   0.16003   0.16649
 Alpha virt. eigenvalues --    0.18037   0.18358   0.18940   0.21223   0.22306

 Mulliken charges:
               1
     1  C   -0.406454
     2  C   -0.029918
     3  O   -0.308568
     4  C    0.380183
     5  C   -0.335010
     6  C   -0.103901
     7  C   -0.346844
     8  C    0.312903
     9  O   -0.458397
    10  H    0.121748
    11  H    0.122251
    12  H    0.122196
    13  H    0.085970
    14  H    0.109706
    15  H    0.110577
    16  H    0.099564
    17  H    0.118671
    18  H    0.113287
    19  H    0.292035
 Sum of Mulliken charges =   0.00000

 Dipole moment (field-independent basis, Debye):
    X=              0.6629    Y=              0.6361    Z=             -0.4732  Tot=              1.0334
 Quadrupole moment (field-independent basis, Debye-Ang):
   XX=            -50.5035   YY=            -51.6788   ZZ=            -54.0479
   XY=              0.0807   XZ=              2.8592   YZ=              5.4672

  Exact polarizability:  89.381  -1.534  73.925   2.619   3.714  64.897
 Approx polarizability: 116.506  -1.740 106.498   1.237   3.006 105.558

                      1                      2                      3
                      A                      A                      A
 Frequencies --    105.5966               141.8469               190.5967
 Red. masses --      3.3830                 1.8663                 1.4837
 Frc consts  --      0.0222                 0.0221                 0.0318
 IR Inten    --      3.6921                 1.6978                 7.3156

                      4                      5                      6
                      A                      A                      A
 Frequencies --    213.7778               254.9881               298.3797
 Red. masses --      3.2292                 1.3792                 2.3167
 Frc consts  --      0.0869                 0.0528                 0.1215
 IR Inten    --      0.6533                69.7755                19.9895

                      7                      8                      9
                      A                      A                      A
 Frequencies --    329.2533               424.4366               425.5094
 Red. masses --      2.8796                 2.1416                 3.0394
 Frc consts  --      0.1839                 0.2273                 0.3242
 IR Inten    --     11.5897                 6.6982                 0.8906

                     10                     11                     12
                      A                      A                      A
 Frequencies --    462.3192               553.5043               578.0379
 Red. masses --      2.9651                 3.5184                 4.3549
 Frc consts  --      0.3734                 0.6351                 0.8573
 IR Inten    --      5.6204                 4.0135                10.1794

                     13                     14                     15
                      A                      A                      A
 Frequencies --    672.2868               760.6894               798.7122
 Red. masses --      3.7568                 3.1599                 2.8598
 Frc consts  --      1.0004                 1.0773                 1.0749
 IR Inten    --      5.5895                15.6372                 4.4308

                     16                     17                     18
                      A                      A                      A
 Frequencies --    856.5221               882.4993               897.9847
 Red. masses --      2.1264                 2.3631                 2.3555
 Frc consts  --      0.9191                 1.0843                 1.1191
 IR Inten    --     14.7635                17.9549                 6.6140

                     19                     20                     21
                      A                      A                      A
 Frequencies --    948.1377               971.2652              1010.0608
 Red. masses --      1.5390                 1.4892                 1.3163
 Frc consts  --      0.8152                 0.8277                 0.7912
 IR Inten    --     11.9269                 5.9575                 3.3305

                     22                     23                     24
                      A                      A                      A
 Frequencies --   1018.0804              1030.2172              1074.8129
 Red. masses --      2.2040                 1.6541                 2.2087
 Frc consts  --      1.3459                 1.0344                 1.5033
 IR Inten    --     24.6309                 3.2092                15.5266

                     25                     26                     27
                      A                      A                      A
 Frequencies --   1084.2618              1113.3349              1134.3156
 Red. masses --      1.6883                 2.2117                 2.2442
 Frc consts  --      1.1694                 1.6152                 1.7013
 IR Inten    --      1.6774                17.0428                 0.9723

                     28                     29                     30
                      A                      A                      A
 Frequencies --   1152.1747              1188.6108              1218.5221
 Red. masses --      1.3727                 1.6603                 1.9309
 Frc consts  --      1.0736                 1.3820                 1.6892
 IR Inten    --      3.7526                24.1164                 9.6931

                     31                     32                     33
                      A                      A                      A
 Frequencies --   1242.1884              1268.9871              1311.1181
 Red. masses --      1.8557                 1.8293                 1.5903
 Frc consts  --      1.6871                 1.7356                 1.6107
 IR Inten    --     60.3569                14.9965                42.6993

                     34                     35                     36
                      A                      A                      A
 Frequencies --   1357.5481              1403.0820              1410.2394
 Red. masses --      1.5524                 2.0426                 1.2688
 Frc consts  --      1.6857                 2.3692                 1.4867
 IR Inten    --      5.9452                36.7045                 2.3762

                     37                     38                     39
                      A                      A                      A
 Frequencies --   1471.1488              1475.3378              1483.0632
 Red. masses --      1.1816                 1.1981                 1.0905
 Frc consts  --      1.5067                 1.5365                 1.4132
 IR Inten    --      1.5958                 5.1471                 7.2769

                     40                     41                     42
                      A                      A                      A
 Frequencies --   1497.2760              1528.8481              3039.9872
 Red. masses --      1.3163                 2.8572                 1.0390
 Frc consts  --      1.7386                 3.9348                 5.6573
 IR Inten    --     16.7546                 9.7607                24.1340

                     43                     44                     45
                      A                      A                      A
 Frequencies --   3052.3280              3073.1250              3099.9550
 Red. masses --      1.0585                 1.0857                 1.1006
 Frc consts  --      5.8102                 6.0412                 6.2315
 IR Inten    --     30.8129                33.8633                18.0354

                     46                     47                     48
                      A                      A                      A
 Frequencies --   3106.7886              3107.3720              3152.1737
 Red. masses --      1.1059                 1.0563                 1.0981
 Frc consts  --      6.2890                 6.0092                 6.4288
 IR Inten    --     12.1469                21.3975                15.9673

                     49                     50                     51
                      A                      A                      A
 Frequencies --   3198.1540              3210.2793              3803.9369
 Red. masses --      1.1131                 1.0956                 1.0664
 Frc consts  --      6.7079                 6.6526                 9.0919
 IR Inten    --      4.3247                12.5231                30.2660

 - Thermochemistry -
 -------------------
 Temperature   298.150 Kelvin.  Pressure   1.00000 Atm.
 Atom     1 has atomic number  6 and mass  12.00000

 Molecular mass:   126.06808 amu.
 Principal axes and moments of inertia in atomic units:
                           1         2         3
     Eigenvalues --   666.504201188.012191512.36944
           X            0.99908  -0.03748   0.02070
           Y            0.03642   0.99812   0.04936
           Z           -0.02251  -0.04856   0.99857
 This molecule is an asymmetric top.
 Rotational symmetry number  1.
 Warning -- assumption of classical behavior for rotation
           may cause significant error
 Rotational temperatures (Kelvin)      0.12995     0.07291     0.05727
 Rotational constants (GHZ):           2.70777     1.51913     1.19332
 Zero-point vibrational energy     413212.1 (Joules/Mol)
                                   98.76007 (Kcal/Mol)
 Warning -- explicit consideration of  12 degrees of freedom as
           vibrations may cause significant error
 Vibrational temperatures:    151.93   204.09   274.23   307.58   366.87
          (Kelvin)            429.30   473.72   610.67   612.21   665.17
                              796.37   831.67   967.27  1094.46  1149.17
                             1232.34  1269.72  1292.00  1364.16  1397.43
                             1453.25  1464.79  1482.25  1546.41  1560.01
                             1601.84  1632.03  1657.72  1710.14  1753.18
                             1787.23  1825.79  1886.40  1953.21  2018.72
                             2029.02  2116.65  2122.68  2133.79  2154.24
                             2199.67  4373.86  4391.61  4421.54  4460.14
                             4469.97  4470.81  4535.27  4601.42  4618.87
                             5473.01

 Zero-point correction=                           0.157384 (Hartree/Particle)
 Thermal correction to Energy=                    0.166082
 Thermal correction to Enthalpy=                  0.167027
 Thermal correction to Gibbs Free Energy=         0.124464
 Sum of electronic and zero-point Energies=           -422.977379
 Sum of electronic and thermal Energies=              -422.968680
 Sum of electronic and thermal Enthalpies=            -422.967736
 Sum of electronic and thermal Free Energies=         -423.010299

                     E (Thermal)             CV                S
                      KCal/Mol        Cal/Mol-Kelvin    Cal/Mol-Kelvin
 Total                  104.218             33.638             89.580
 Electronic               0.000              0.000              0.000
 Translational            0.889              2.981             40.409
 Rotational               0.889              2.981             28.573
 Vibrational            102.441             27.677             20.599
 Vibration     1          0.605              1.945              3.348
 Vibration     2          0.615              1.911              2.779
 Vibration     3          0.634              1.853              2.222
 Vibration     4          0.644              1.820              2.011
 Vibration     5          0.665              1.754              1.696
 Vibration     6          0.691              1.677              1.426
 Vibration     7          0.712              1.617              1.264
 Vibration     8          0.786              1.417              0.877
 Vibration     9          0.787              1.415              0.873
 Vibration    10          0.820              1.334              0.759
 Vibration    11          0.909              1.132              0.537
 Vibration    12          0.935              1.079              0.489

 Optimization completed.
    -- Stationary point found.
 Normal termination of Gaussian 09 at Tue Jan 28 02:41:48 2020.
