 Gaussian 09, Revision D.01,
 Gaussian 09:  ES64L-G09RevD.01 24-Apr-2013

 -----------------------------
 # b3lyp 6-31G(2df,p) opt Freq
 -----------------------------

 -----
 titel
 -----
 Symbolic Z-matrix:
 Charge =  0 Multiplicity = 1

 SCF Done:  E(RB3LYP) =  -423.165420553     A.U. after   14 cycles
 Optimization completed.
    -- Stationary point found.
 Normal termination of Gaussian 09 at Mon Jan 27 17:59:17 2020.

 ----------------------------------------------------------------------
 #N Geom=AllCheck Guess=TCheck SCRF=Check GenChk RB3LYP/6-31G(2df,p) Fr
 eq
 ----------------------------------------------------------------------

 Structure from the checkpoint file:  "/scratch/puck/g09_3455a831-f151-403a-8b82-5cebd8204031/Gau-61679.chk"
 -----
 titel
 -----
 Charge =  0 Multiplicity = 1

                         Standard orientation:
 ---------------------------------------------------------------------
 Center     Atomic      Atomic             Coordinates (Angstroms)
 Number     Number       Type             X           Y           Z
 ---------------------------------------------------------------------
      1          6           0       -2.345659    0.541624    0.826517
      2          6           0       -1.124237    0.183650    0.006524
      3          8           0       -1.384400   -0.786756   -1.041387
      4          6           0       -0.577687   -1.178080    0.074418
      5          6           0        0.897436   -1.442830   -0.168330
      6          8           0        1.700886   -0.667278    0.708563
      7          6           0        2.101219    0.572399    0.173577
      8          6           0        1.032593    1.508751   -0.316785
      9          6           0       -0.288027    1.350892   -0.399291
     10          1           0       -2.950378   -0.346949    1.022897
     11          1           0       -2.052881    0.990276    1.781471
     12          1           0       -2.967483    1.267268    0.290708
     13          1           0       -1.071685   -1.875895    0.752371
     14          1           0        1.135209   -2.491053    0.039176
     15          1           0        1.134553   -1.238196   -1.220609
     16          1           0        2.675633    1.066958    0.967564
     17          1           0        2.809435    0.414841   -0.662770
     18          1           0        1.449554    2.447073   -0.683389
     19          1           0       -0.867674    2.179521   -0.804602
 ---------------------------------------------------------------------

 SCF Done:  E(RB3LYP) =  -423.165420553     A.U. after    1 cycles

 The electronic state is 1-A.
 Alpha  occ. eigenvalues --  -19.14413 -19.14398 -10.24291 -10.23924 -10.23099
 Alpha  occ. eigenvalues --  -10.23058 -10.19432 -10.18884 -10.18105  -1.06414
 Alpha  occ. eigenvalues --   -1.03604  -0.79999  -0.75537  -0.73289  -0.67746
 Alpha  occ. eigenvalues --   -0.62551  -0.58521  -0.54133  -0.51215  -0.48522
 Alpha  occ. eigenvalues --   -0.46272  -0.45766  -0.43865  -0.42683  -0.40553
 Alpha  occ. eigenvalues --   -0.39957  -0.38145  -0.37003  -0.35907  -0.32127
 Alpha  occ. eigenvalues --   -0.29154  -0.27475  -0.26258  -0.24463
 Alpha virt. eigenvalues --    0.00591   0.07583   0.08996   0.10828   0.12499
 Alpha virt. eigenvalues --    0.13604   0.14402   0.15393   0.16252   0.17004
 Alpha virt. eigenvalues --    0.17363   0.18597   0.19717   0.19988   0.21387

 Mulliken charges:
               1
     1  C   -0.464761
     2  C    0.371510
     3  O   -0.295175
     4  C   -0.016744
     5  C   -0.131856
     6  O   -0.239180
     7  C   -0.139507
     8  C   -0.055709
     9  C   -0.128163
    10  H    0.127904
    11  H    0.128076
    12  H    0.124828
    13  H    0.086698
    14  H    0.108036
    15  H    0.111057
    16  H    0.123375
    17  H    0.102354
    18  H    0.096275
    19  H    0.090982
 Sum of Mulliken charges =   0.00000

 Dipole moment (field-independent basis, Debye):
    X=              0.6145    Y=              0.9670    Z=              0.5250  Tot=              1.2603
 Quadrupole moment (field-independent basis, Debye-Ang):
   XX=            -52.3415   YY=            -49.4823   ZZ=            -56.2770
   XY=              0.5604   XZ=             -4.5730   YZ=             -1.1345

  Exact polarizability:  93.322   1.844  80.391  -1.743  -2.588  58.506
 Approx polarizability: 132.733   4.267 114.239   5.038  -2.450  94.992

                      1                      2                      3
                      A                      A                      A
 Frequencies --     98.6258               161.7034               207.3357
 Red. masses --      2.5522                 2.0922                 1.3334
 Frc consts  --      0.0146                 0.0322                 0.0338
 IR Inten    --      1.8343                 2.0023                 1.1636

                      4                      5                      6
                      A                      A                      A
 Frequencies --    264.7652               292.9915               342.8035
 Red. masses --      2.7678                 3.3590                 2.4879
 Frc consts  --      0.1143                 0.1699                 0.1723
 IR Inten    --      1.1434                 3.6934                 3.9544

                      7                      8                      9
                      A                      A                      A
 Frequencies --    389.2041               415.4563               462.3144
 Red. masses --      3.2974                 4.6850                 3.2397
 Frc consts  --      0.2943                 0.4764                 0.4080
 IR Inten    --      1.0232                 1.2945                12.1496

                     10                     11                     12
                      A                      A                      A
 Frequencies --    490.1334               600.2672               681.3357
 Red. masses --      2.3826                 3.9470                 4.5969
 Frc consts  --      0.3372                 0.8379                 1.2573
 IR Inten    --     10.4660                 0.6012                 5.8524

                     13                     14                     15
                      A                      A                      A
 Frequencies --    734.1636               782.6283               836.5441
 Red. masses --      1.8812                 2.6623                 4.0417
 Frc consts  --      0.5974                 0.9608                 1.6665
 IR Inten    --      4.9248                34.0433                 2.9168

                     16                     17                     18
                      A                      A                      A
 Frequencies --    876.2779               915.3535               936.7773
 Red. masses --      3.9029                 2.2627                 2.5994
 Frc consts  --      1.7657                 1.1170                 1.3440
 IR Inten    --      2.0794                 4.3975                27.0862

                     19                     20                     21
                      A                      A                      A
 Frequencies --    994.1964              1010.5902              1035.1073
 Red. masses --      1.9779                 1.3005                 1.8217
 Frc consts  --      1.1519                 0.7825                 1.1500
 IR Inten    --      6.8314                10.0184                 9.1814

                     22                     23                     24
                      A                      A                      A
 Frequencies --   1063.5591              1085.2719              1102.2040
 Red. masses --      1.9825                 2.2851                 1.8018
 Frc consts  --      1.3213                 1.5857                 1.2897
 IR Inten    --     15.9147                 4.9725                11.6448

                     25                     26                     27
                      A                      A                      A
 Frequencies --   1121.1996              1168.3069              1229.0274
 Red. masses --      2.3709                 3.7167                 2.0945
 Frc consts  --      1.7560                 2.9890                 1.8640
 IR Inten    --     10.1407                84.0561                18.4688

                     28                     29                     30
                      A                      A                      A
 Frequencies --   1253.5342              1274.9146              1321.7806
 Red. masses --      1.1462                 1.2049                 1.1971
 Frc consts  --      1.0612                 1.1538                 1.2323
 IR Inten    --      3.4982                19.8039                 3.8089

                     31                     32                     33
                      A                      A                      A
 Frequencies --   1349.9315              1392.4465              1409.4891
 Red. masses --      1.2976                 1.2939                 1.2848
 Frc consts  --      1.3932                 1.4781                 1.5038
 IR Inten    --      6.1491                 3.6218                 6.6625

                     34                     35                     36
                      A                      A                      A
 Frequencies --   1412.6523              1435.3866              1466.7802
 Red. masses --      1.3796                 1.5358                 1.5057
 Frc consts  --      1.6221                 1.8643                 1.9087
 IR Inten    --      9.6740                 0.5008                 4.6425

                     37                     38                     39
                      A                      A                      A
 Frequencies --   1473.1342              1487.1812              1493.2623
 Red. masses --      1.0919                 1.0967                 1.0867
 Frc consts  --      1.3962                 1.4291                 1.4277
 IR Inten    --      3.7997                 5.8763                 5.9388

                     40                     41                     42
                      A                      A                      A
 Frequencies --   1506.7294              1740.3340              2922.9385
 Red. masses --      1.6886                 7.5641                 1.0727
 Frc consts  --      2.2586                13.4981                 5.3996
 IR Inten    --      4.8698                 5.8742                57.9893

                     43                     44                     45
                      A                      A                      A
 Frequencies --   3019.2204              3035.0697              3040.8656
 Red. masses --      1.0606                 1.0359                 1.0857
 Frc consts  --      5.6961                 5.6222                 5.9149
 IR Inten    --     33.2975                17.5172                23.4268

                     46                     47                     48
                      A                      A                      A
 Frequencies --   3075.5814              3099.0772              3100.3541
 Red. masses --      1.0990                 1.0967                 1.0962
 Frc consts  --      6.1249                 6.2060                 6.2083
 IR Inten    --     12.2446                15.2532                49.4988

                     49                     50                     51
                      A                      A                      A
 Frequencies --   3117.9352              3125.1917              3141.0825
 Red. masses --      1.0822                 1.1014                 1.0932
 Frc consts  --      6.1988                 6.3380                 6.3549
 IR Inten    --      9.2280                18.2687                29.1327

 - Thermochemistry -
 -------------------
 Temperature   298.150 Kelvin.  Pressure   1.00000 Atm.
 Atom     1 has atomic number  6 and mass  12.00000

 Molecular mass:   126.06808 amu.
 Principal axes and moments of inertia in atomic units:
                           1         2         3
     Eigenvalues --   670.990511173.536561515.97928
           X            0.99920  -0.00992  -0.03875
           Y            0.00960   0.99992  -0.00834
           Z            0.03883   0.00797   0.99921
 This molecule is an asymmetric top.
 Rotational symmetry number  1.
 Warning -- assumption of classical behavior for rotation
           may cause significant error
 Rotational temperatures (Kelvin)      0.12908     0.07381     0.05713
 Rotational constants (GHZ):           2.68967     1.53787     1.19048
 Zero-point vibrational energy     418651.2 (Joules/Mol)
                                  100.06004 (Kcal/Mol)
 Warning -- explicit consideration of  11 degrees of freedom as
           vibrations may cause significant error
 Vibrational temperatures:    141.90   232.65   298.31   380.94   421.55
          (Kelvin)            493.22   559.98   597.75   665.17   705.19
                              863.65   980.29  1056.30  1126.03  1203.60
                             1260.77  1316.99  1347.81  1430.43  1454.01
                             1489.29  1530.22  1561.46  1585.82  1613.15
                             1680.93  1768.29  1803.55  1834.32  1901.75
                             1942.25  2003.42  2027.94  2032.49  2065.20
                             2110.37  2119.51  2139.72  2148.47  2167.84
                             2503.95  4205.45  4343.98  4366.78  4375.12
                             4425.07  4458.88  4460.71  4486.01  4496.45
                             4519.31

 Zero-point correction=                           0.159456 (Hartree/Particle)
 Thermal correction to Energy=                    0.167595
 Thermal correction to Enthalpy=                  0.168539
 Thermal correction to Gibbs Free Energy=         0.127011
 Sum of electronic and zero-point Energies=           -423.005965
 Sum of electronic and thermal Energies=              -422.997826
 Sum of electronic and thermal Enthalpies=            -422.996882
 Sum of electronic and thermal Free Energies=         -423.038409

                     E (Thermal)             CV                S
                      KCal/Mol        Cal/Mol-Kelvin    Cal/Mol-Kelvin
 Total                  105.167             31.658             87.402
 Electronic               0.000              0.000              0.000
 Translational            0.889              2.981             40.409
 Rotational               0.889              2.981             28.570
 Vibrational            103.390             25.696             18.424
 Vibration     1          0.604              1.950              3.481
 Vibration     2          0.622              1.889              2.530
 Vibration     3          0.641              1.829              2.067
 Vibration     4          0.671              1.738              1.630
 Vibration     5          0.688              1.687              1.457
 Vibration     6          0.722              1.590              1.199
 Vibration     7          0.757              1.493              1.003
 Vibration     8          0.779              1.437              0.908
 Vibration     9          0.820              1.334              0.759
 Vibration    10          0.846              1.272              0.683
 Vibration    11          0.958              1.031              0.449

 Optimization completed.
    -- Stationary point found.
 Normal termination of Gaussian 09 at Mon Jan 27 18:43:03 2020.
