 Gaussian 09, Revision D.01,
 Gaussian 09:  ES64L-G09RevD.01 24-Apr-2013

 -----------------------------
 # b3lyp 6-31G(2df,p) opt Freq
 -----------------------------

 -----
 titel
 -----
 Symbolic Z-matrix:
 Charge =  0 Multiplicity = 1

 SCF Done:  E(RB3LYP) =  -423.162275577     A.U. after   14 cycles
 Optimization completed.
    -- Stationary point found.
 Normal termination of Gaussian 09 at Tue Jan 28 00:01:42 2020.

 ----------------------------------------------------------------------
 #N Geom=AllCheck Guess=TCheck SCRF=Check GenChk RB3LYP/6-31G(2df,p) Fr
 eq
 ----------------------------------------------------------------------

 Structure from the checkpoint file:  "/scratch/puck/g09_61c37559-9b12-42a4-bd22-90b15261dbb2/Gau-51333.chk"
 -----
 titel
 -----
 Charge =  0 Multiplicity = 1

                         Standard orientation:
 ---------------------------------------------------------------------
 Center     Atomic      Atomic             Coordinates (Angstroms)
 Number     Number       Type             X           Y           Z
 ---------------------------------------------------------------------
      1          6           0        1.061081    2.159735    0.401158
      2          6           0        1.205065    0.658674    0.506253
      3          6           0        1.276109   -0.171674   -0.718244
      4          8           0        1.654582   -1.512762   -0.432419
      5          6           0        0.467405   -1.701957    0.385771
      6          6           0        0.012240   -0.260249    0.147058
      7          6           0       -1.363911    0.210558   -0.127045
      8          6           0       -2.487821   -0.708956    0.324009
      9          8           0       -1.597836    1.266100   -0.682768
     10          1           0        0.556707    2.568095    1.282527
     11          1           0        2.052708    2.619908    0.336642
     12          1           0        0.473140    2.445980   -0.471085
     13          1           0        1.802786    0.305163    1.345689
     14          1           0        1.400535    0.202610   -1.728570
     15          1           0       -0.184220   -2.458952   -0.064369
     16          1           0        0.714538   -1.992092    1.414138
     17          1           0       -2.488179   -1.629351   -0.271290
     18          1           0       -2.359485   -1.004163    1.371326
     19          1           0       -3.443510   -0.200685    0.192722
 ---------------------------------------------------------------------

 SCF Done:  E(RB3LYP) =  -423.162275577     A.U. after    1 cycles

 The electronic state is 1-A.
 Alpha  occ. eigenvalues --  -19.14924 -19.12389 -10.27295 -10.25250 -10.24659
 Alpha  occ. eigenvalues --  -10.21050 -10.20885 -10.19136 -10.17976  -1.06428
 Alpha  occ. eigenvalues --   -1.03466  -0.85156  -0.76085  -0.71926  -0.69794
 Alpha  occ. eigenvalues --   -0.62220  -0.58022  -0.53521  -0.50365  -0.47982
 Alpha  occ. eigenvalues --   -0.46967  -0.44011  -0.42966  -0.41964  -0.41788
 Alpha  occ. eigenvalues --   -0.40028  -0.38709  -0.37331  -0.36205  -0.35665
 Alpha  occ. eigenvalues --   -0.33030  -0.27361  -0.25176  -0.23892
 Alpha virt. eigenvalues --   -0.01919   0.06664   0.08960   0.10052   0.12366
 Alpha virt. eigenvalues --    0.13339   0.13529   0.14602   0.15264   0.16300
 Alpha virt. eigenvalues --    0.17393   0.17810   0.19176   0.20677   0.21525

 Mulliken charges:
               1
     1  C   -0.428078
     2  C   -0.079777
     3  C    0.059685
     4  O   -0.281752
     5  C   -0.150351
     6  C    0.144910
     7  C    0.288104
     8  C   -0.491561
     9  O   -0.323151
    10  H    0.124155
    11  H    0.118904
    12  H    0.155763
    13  H    0.096016
    14  H    0.121765
    15  H    0.112213
    16  H    0.109350
    17  H    0.143898
    18  H    0.135788
    19  H    0.144120
 Sum of Mulliken charges =   0.00000

 Dipole moment (field-independent basis, Debye):
    X=             -0.2276    Y=             -1.1017    Z=              1.4772  Tot=              1.8568
 Quadrupole moment (field-independent basis, Debye-Ang):
   XX=            -55.6974   YY=            -55.3988   ZZ=            -51.8148
   XY=              7.8946   XZ=             -1.2862   YZ=              0.0840

  Exact polarizability:  84.351   4.437  83.650  -0.143  -3.297  63.215
 Approx polarizability: 119.580  -1.452 121.669  -0.753  -7.603 100.863

                      1                      2                      3
                      A                      A                      A
 Frequencies --     51.0775               129.0961               147.7379
 Red. masses --      3.3047                 1.1005                 2.2113
 Frc consts  --      0.0051                 0.0108                 0.0284
 IR Inten    --      3.9829                 0.0965                 1.6763

                      4                      5                      6
                      A                      A                      A
 Frequencies --    182.7464               219.0347               254.1312
 Red. masses --      2.2681                 1.7498                 2.6913
 Frc consts  --      0.0446                 0.0495                 0.1024
 IR Inten    --      2.0927                 6.0320                 0.2268

                      7                      8                      9
                      A                      A                      A
 Frequencies --    279.9673               342.1710               392.9038
 Red. masses --      2.9609                 2.4116                 3.3023
 Frc consts  --      0.1367                 0.1664                 0.3004
 IR Inten    --      0.1800                 3.7450                 4.1513

                     10                     11                     12
                      A                      A                      A
 Frequencies --    462.3350               534.7687               595.3693
 Red. masses --      4.1129                 4.5867                 2.4743
 Frc consts  --      0.5180                 0.7728                 0.5167
 IR Inten    --      3.6812                 2.6855                 3.0449

                     13                     14                     15
                      A                      A                      A
 Frequencies --    632.1147               707.5297               793.6360
 Red. masses --      3.3268                 3.4864                 3.3082
 Frc consts  --      0.7832                 1.0283                 1.2277
 IR Inten    --      8.5630                 2.5550                66.4935

                     16                     17                     18
                      A                      A                      A
 Frequencies --    908.3608               929.3200               958.9191
 Red. masses --      2.4906                 1.8920                 2.2602
 Frc consts  --      1.2108                 0.9627                 1.2245
 IR Inten    --      6.5657                18.4492                16.1555

                     19                     20                     21
                      A                      A                      A
 Frequencies --    988.6650              1002.2658              1006.1659
 Red. masses --      1.9855                 1.9565                 1.6864
 Frc consts  --      1.1435                 1.1580                 1.0059
 IR Inten    --     22.0855                16.0587                18.2330

                     22                     23                     24
                      A                      A                      A
 Frequencies --   1043.1320              1059.3581              1099.7074
 Red. masses --      1.7997                 2.1123                 2.2516
 Frc consts  --      1.1538                 1.3967                 1.6043
 IR Inten    --      5.8343                26.1837                 7.0351

                     25                     26                     27
                      A                      A                      A
 Frequencies --   1115.8180              1135.3429              1159.4671
 Red. masses --      2.8476                 1.6420                 1.5625
 Frc consts  --      2.0889                 1.2470                 1.2376
 IR Inten    --      6.6797                36.3710                 6.7384

                     28                     29                     30
                      A                      A                      A
 Frequencies --   1165.5766              1203.9588              1274.0932
 Red. masses --      1.7613                 1.7768                 1.4052
 Frc consts  --      1.4098                 1.5175                 1.3439
 IR Inten    --     39.2814                11.1539                19.3764

                     31                     32                     33
                      A                      A                      A
 Frequencies --   1322.6601              1369.8701              1386.4688
 Red. masses --      1.6668                 1.4890                 1.7769
 Frc consts  --      1.7180                 1.6462                 2.0124
 IR Inten    --     37.6919                 5.5210                51.5622

                     34                     35                     36
                      A                      A                      A
 Frequencies --   1418.6363              1426.5314              1463.3973
 Red. masses --      1.2650                 2.6096                 1.0571
 Frc consts  --      1.5000                 3.1288                 1.3338
 IR Inten    --     13.9741                58.6697                 9.6877

                     37                     38                     39
                      A                      A                      A
 Frequencies --   1475.6849              1489.4686              1505.1390
 Red. masses --      1.0503                 1.0870                 1.0687
 Frc consts  --      1.3475                 1.4208                 1.4265
 IR Inten    --      8.5328                15.4775                 2.2318

                     40                     41                     42
                      A                      A                      A
 Frequencies --   1517.7253              1773.3027              3021.8663
 Red. masses --      1.1031                10.7132                 1.0549
 Frc consts  --      1.4971                19.8488                 5.6758
 IR Inten    --      0.4131               151.6170                57.1886

                     43                     44                     45
                      A                      A                      A
 Frequencies --   3035.2939              3042.0369              3072.6299
 Red. masses --      1.0378                 1.0389                 1.1100
 Frc consts  --      5.6331                 5.6646                 6.1746
 IR Inten    --      8.5265                29.6369                30.8310

                     46                     47                     48
                      A                      A                      A
 Frequencies --   3095.7157              3099.5713              3110.8126
 Red. masses --      1.0984                 1.1012                 1.0878
 Frc consts  --      6.2020                 6.2334                 6.2024
 IR Inten    --     10.4202                20.0102                12.2518

                     49                     50                     51
                      A                      A                      A
 Frequencies --   3153.5103              3154.1170              3181.5056
 Red. masses --      1.1012                 1.0973                 1.0932
 Frc consts  --      6.4524                 6.4318                 6.5194
 IR Inten    --      8.1837                 5.1223                10.9222

 - Thermochemistry -
 -------------------
 Temperature   298.150 Kelvin.  Pressure   1.00000 Atm.
 Atom     1 has atomic number  6 and mass  12.00000

 Molecular mass:   126.06808 amu.
 Principal axes and moments of inertia in atomic units:
                           1         2         3
     Eigenvalues --   829.705521098.553971671.82523
           X            0.97968   0.20051  -0.00472
           Y           -0.20053   0.97968  -0.00362
           Z            0.00389   0.00449   0.99998
 This molecule is an asymmetric top.
 Rotational symmetry number  1.
 Warning -- assumption of classical behavior for rotation
           may cause significant error
 Rotational temperatures (Kelvin)      0.10439     0.07884     0.05181
 Rotational constants (GHZ):           2.17516     1.64283     1.07950
 Zero-point vibrational energy     412058.0 (Joules/Mol)
                                   98.48422 (Kcal/Mol)
 Warning -- explicit consideration of  12 degrees of freedom as
           vibrations may cause significant error
 Vibrational temperatures:     73.49   185.74   212.56   262.93   315.14
          (Kelvin)            365.64   402.81   492.31   565.30   665.20
                              769.41   856.60   909.47  1017.98  1141.86
                             1306.93  1337.08  1379.67  1422.47  1442.04
                             1447.65  1500.83  1524.18  1582.23  1605.41
                             1633.50  1668.21  1677.00  1732.23  1833.13
                             1903.01  1970.94  1994.82  2041.10  2052.46
                             2105.50  2123.18  2143.01  2165.56  2183.67
                             2551.38  4347.79  4367.11  4376.81  4420.82
                             4454.04  4459.59  4475.76  4537.19  4538.07
                             4577.47

 Zero-point correction=                           0.156945 (Hartree/Particle)
 Thermal correction to Energy=                    0.166139
 Thermal correction to Enthalpy=                  0.167083
 Thermal correction to Gibbs Free Energy=         0.122725
 Sum of electronic and zero-point Energies=           -423.005331
 Sum of electronic and thermal Energies=              -422.996136
 Sum of electronic and thermal Enthalpies=            -422.995192
 Sum of electronic and thermal Free Energies=         -423.039551

                     E (Thermal)             CV                S
                      KCal/Mol        Cal/Mol-Kelvin    Cal/Mol-Kelvin
 Total                  104.254             33.736             93.360
 Electronic               0.000              0.000              0.000
 Translational            0.889              2.981             40.409
 Rotational               0.889              2.981             28.812
 Vibrational            102.476             27.774             24.139
 Vibration     1          0.595              1.977              4.775
 Vibration     2          0.612              1.924              2.959
 Vibration     3          0.617              1.905              2.701
 Vibration     4          0.630              1.863              2.300
 Vibration     5          0.647              1.812              1.967
 Vibration     6          0.665              1.756              1.702
 Vibration     7          0.680              1.711              1.534
 Vibration     8          0.721              1.591              1.202
 Vibration     9          0.760              1.485              0.989
 Vibration    10          0.820              1.334              0.759
 Vibration    11          0.890              1.173              0.577
 Vibration    12          0.953              1.042              0.458

 Optimization completed.
    -- Stationary point found.
 Normal termination of Gaussian 09 at Tue Jan 28 00:45:54 2020.
