 Gaussian 09, Revision D.01,
 Gaussian 09:  ES64L-G09RevD.01 24-Apr-2013

 -----------------------------
 # b3lyp 6-31G(2df,p) opt Freq
 -----------------------------

 -----
 titel
 -----
 Symbolic Z-matrix:
 Charge =  0 Multiplicity = 1

 SCF Done:  E(RB3LYP) =  -423.120182023     A.U. after   13 cycles
 Optimization completed.
    -- Stationary point found.
 Normal termination of Gaussian 09 at Mon Jan 27 12:06:59 2020.

 ----------------------------------------------------------------------
 #N Geom=AllCheck Guess=TCheck SCRF=Check GenChk RB3LYP/6-31G(2df,p) Fr
 eq
 ----------------------------------------------------------------------

 Structure from the checkpoint file:  "/scratch/puck/g09_d1b52804-ffa7-43f1-a9f6-18ae1072c4d5/Gau-18752.chk"
 -----
 titel
 -----
 Charge =  0 Multiplicity = 1

                         Standard orientation:
 ---------------------------------------------------------------------
 Center     Atomic      Atomic             Coordinates (Angstroms)
 Number     Number       Type             X           Y           Z
 ---------------------------------------------------------------------
      1          6           0        2.195034   -1.331742   -0.162965
      2          8           0        2.308363   -0.361288    0.884942
      3          6           0        2.041341    0.102755   -0.439528
      4          6           0        0.702102    0.727201   -0.677143
      5          6           0        0.192317    1.812500    0.237983
      6          6           0       -0.438759    0.438943    0.267122
      7          6           0       -1.809481    0.223105   -0.271269
      8          6           0       -2.887957   -0.359857    0.536500
      9          8           0       -2.217251   -1.138541   -0.456841
     10          1           0        3.120951   -1.841521   -0.423692
     11          1           0        1.304738   -1.956719   -0.120679
     12          1           0        2.884144    0.621982   -0.899991
     13          1           0        0.448589    0.828843   -1.729890
     14          1           0        0.805840    2.088364    1.088244
     15          1           0       -0.367894    2.630328   -0.203376
     16          1           0       -0.184649   -0.173881    1.126400
     17          1           0       -2.094799    0.883366   -1.093608
     18          1           0       -2.686533   -0.645279    1.568531
     19          1           0       -3.926856   -0.114284    0.319055
 ---------------------------------------------------------------------

 SCF Done:  E(RB3LYP) =  -423.120182023     A.U. after    1 cycles

 The electronic state is 1-A.
 Alpha  occ. eigenvalues --  -19.15277 -19.14687 -10.24102 -10.23961 -10.23172
 Alpha  occ. eigenvalues --  -10.23131 -10.19925 -10.19580 -10.19168  -1.07148
 Alpha  occ. eigenvalues --   -1.06650  -0.86854  -0.70380  -0.67707  -0.65088
 Alpha  occ. eigenvalues --   -0.63830  -0.58628  -0.56785  -0.51739  -0.50575
 Alpha  occ. eigenvalues --   -0.48927  -0.47453  -0.43345  -0.42070  -0.39348
 Alpha  occ. eigenvalues --   -0.38747  -0.36700  -0.36264  -0.34238  -0.33094
 Alpha  occ. eigenvalues --   -0.28743  -0.27808  -0.26535  -0.26075
 Alpha virt. eigenvalues --    0.08770   0.09336   0.09919   0.11000   0.11432
 Alpha virt. eigenvalues --    0.12075   0.12227   0.14361   0.15021   0.15340
 Alpha virt. eigenvalues --    0.15653   0.18454   0.18733   0.19343   0.20595

 Mulliken charges:
               1
     1  C   -0.179191
     2  O   -0.233603
     3  C    0.061695
     4  C   -0.056747
     5  C   -0.310206
     6  C   -0.029089
     7  C    0.082509
     8  C   -0.186834
     9  O   -0.241681
    10  H    0.116652
    11  H    0.128194
    12  H    0.093780
    13  H    0.093222
    14  H    0.128111
    15  H    0.111989
    16  H    0.107749
    17  H    0.086786
    18  H    0.113587
    19  H    0.113076
 Sum of Mulliken charges =   0.00000

 Dipole moment (field-independent basis, Debye):
    X=             -0.2312    Y=              1.2694    Z=             -0.7485  Tot=              1.4917
 Quadrupole moment (field-independent basis, Debye-Ang):
   XX=            -51.6506   YY=            -52.9782   ZZ=            -53.4245
   XY=             -4.0775   XZ=             -5.8137   YZ=             -1.7389

  Exact polarizability:  89.761  -0.381  75.414  -4.772  -2.503  63.283
 Approx polarizability: 110.802   1.910 113.913  -5.365  -1.743 102.986

                      1                      2                      3
                      A                      A                      A
 Frequencies --     60.9832                76.1568               123.9909
 Red. masses --      4.2113                 3.9806                 3.0183
 Frc consts  --      0.0092                 0.0136                 0.0273
 IR Inten    --      0.9712                 4.8365                 3.4953

                      4                      5                      6
                      A                      A                      A
 Frequencies --    159.9279               247.7271               287.7325
 Red. masses --      3.3402                 3.9242                 2.8573
 Frc consts  --      0.0503                 0.1419                 0.1394
 IR Inten    --      3.0338                 1.7359                 3.0909

                      7                      8                      9
                      A                      A                      A
 Frequencies --    378.6121               460.7659               479.9581
 Red. masses --      3.5609                 2.9902                 3.2258
 Frc consts  --      0.3007                 0.3740                 0.4378
 IR Inten    --      1.3093                 7.5994                 5.6454

                     10                     11                     12
                      A                      A                      A
 Frequencies --    575.3467               741.3754               794.7892
 Red. masses --      3.0309                 2.2199                 1.6468
 Frc consts  --      0.5911                 0.7189                 0.6129
 IR Inten    --      2.8591                 3.8037                 5.5693

                     13                     14                     15
                      A                      A                      A
 Frequencies --    846.8019               860.0881               886.0381
 Red. masses --      5.2083                 2.9579                 1.8479
 Frc consts  --      2.2004                 1.2892                 0.8548
 IR Inten    --     14.3929                25.2953                12.4762

                     16                     17                     18
                      A                      A                      A
 Frequencies --    902.5677               927.5438               948.1802
 Red. masses --      4.0026                 3.3088                 1.7321
 Frc consts  --      1.9211                 1.6772                 0.9175
 IR Inten    --     16.0614                26.9775                 3.7030

                     19                     20                     21
                      A                      A                      A
 Frequencies --    981.5795              1007.5728              1067.9067
 Red. masses --      1.6314                 2.8221                 1.3062
 Frc consts  --      0.9261                 1.6880                 0.8776
 IR Inten    --      2.4983                18.8313                 6.1549

                     22                     23                     24
                      A                      A                      A
 Frequencies --   1086.3533              1097.0076              1107.6363
 Red. masses --      1.1634                 1.3376                 1.7444
 Frc consts  --      0.8090                 0.9484                 1.2609
 IR Inten    --      0.7917                 1.7478                 7.9920

                     25                     26                     27
                      A                      A                      A
 Frequencies --   1120.4446              1132.8252              1155.8809
 Red. masses --      1.1255                 1.3892                 1.3664
 Frc consts  --      0.8325                 1.0504                 1.0756
 IR Inten    --      1.3779                 8.3983                 1.0549

                     28                     29                     30
                      A                      A                      A
 Frequencies --   1162.4752              1168.4565              1176.3806
 Red. masses --      1.3615                 1.3425                 1.3928
 Frc consts  --      1.0840                 1.0799                 1.1356
 IR Inten    --      0.1222                 3.7001                 0.4888

                     31                     32                     33
                      A                      A                      A
 Frequencies --   1210.4037              1224.0245              1284.5594
 Red. masses --      2.0597                 1.7095                 1.7119
 Frc consts  --      1.7779                 1.5090                 1.6643
 IR Inten    --      4.3499                 4.9318                 8.1106

                     34                     35                     36
                      A                      A                      A
 Frequencies --   1290.3889              1299.8441              1397.3832
 Red. masses --      1.6275                 1.3445                 1.4750
 Frc consts  --      1.5966                 1.3384                 1.6970
 IR Inten    --      5.6480                 3.2926                 5.6837

                     37                     38                     39
                      A                      A                      A
 Frequencies --   1428.3669              1462.4313              1499.0074
 Red. masses --      2.0644                 1.3053                 1.7898
 Frc consts  --      2.4815                 1.6448                 2.3695
 IR Inten    --     32.3011                 9.5948                 1.4726

                     40                     41                     42
                      A                      A                      A
 Frequencies --   1521.5930              1533.0637              3077.5274
 Red. masses --      1.3310                 1.5195                 1.0554
 Frc consts  --      1.8156                 2.1041                 5.8896
 IR Inten    --      4.9788                 5.4539                32.0892

                     43                     44                     45
                      A                      A                      A
 Frequencies --   3082.9350              3086.3964              3091.1668
 Red. masses --      1.0820                 1.0622                 1.0744
 Frc consts  --      6.0592                 5.9616                 6.0486
 IR Inten    --     20.7865                27.5746                32.5992

                     46                     47                     48
                      A                      A                      A
 Frequencies --   3131.7757              3138.3804              3162.7356
 Red. masses --      1.0561                 1.0859                 1.1039
 Frc consts  --      6.1026                 6.3015                 6.5059
 IR Inten    --     12.4020                13.2234                12.7560

                     49                     50                     51
                      A                      A                      A
 Frequencies --   3166.5436              3180.5072              3221.6618
 Red. masses --      1.1026                 1.1202                 1.1164
 Frc consts  --      6.5138                 6.6765                 6.8273
 IR Inten    --     19.4247                23.4757                 6.3466

 - Thermochemistry -
 -------------------
 Temperature   298.150 Kelvin.  Pressure   1.00000 Atm.
 Atom     1 has atomic number  6 and mass  12.00000

 Molecular mass:   126.06808 amu.
 Principal axes and moments of inertia in atomic units:
                           1         2         3
     Eigenvalues --   554.970211814.670412083.53791
           X            0.99976  -0.01460  -0.01663
           Y            0.01430   0.99973  -0.01806
           Z            0.01689   0.01781   0.99970
 This molecule is an asymmetric top.
 Rotational symmetry number  1.
 Warning -- assumption of classical behavior for rotation
           may cause significant error
 Rotational temperatures (Kelvin)      0.15607     0.04773     0.04157
 Rotational constants (GHZ):           3.25196     0.99453     0.86619
 Zero-point vibrational energy     415784.9 (Joules/Mol)
                                   99.37497 (Kcal/Mol)
 Warning -- explicit consideration of  10 degrees of freedom as
           vibrations may cause significant error
 Vibrational temperatures:     87.74   109.57   178.40   230.10   356.42
          (Kelvin)            413.98   544.74   662.94   690.55   827.79
                             1066.67  1143.52  1218.36  1237.47  1274.81
                             1298.59  1334.53  1364.22  1412.27  1449.67
                             1536.48  1563.02  1578.35  1593.64  1612.07
                             1629.88  1663.05  1672.54  1681.15  1692.55
                             1741.50  1761.10  1848.19  1856.58  1870.18
                             2010.52  2055.10  2104.11  2156.73  2189.23
                             2205.73  4427.87  4435.65  4440.63  4447.49
                             4505.92  4515.42  4550.47  4555.94  4576.03
                             4635.25

 Zero-point correction=                           0.158364 (Hartree/Particle)
 Thermal correction to Energy=                    0.166941
 Thermal correction to Enthalpy=                  0.167885
 Thermal correction to Gibbs Free Energy=         0.124117
 Sum of electronic and zero-point Energies=           -422.961818
 Sum of electronic and thermal Energies=              -422.953241
 Sum of electronic and thermal Enthalpies=            -422.952297
 Sum of electronic and thermal Free Energies=         -422.996065

                     E (Thermal)             CV                S
                      KCal/Mol        Cal/Mol-Kelvin    Cal/Mol-Kelvin
 Total                  104.757             31.575             92.117
 Electronic               0.000              0.000              0.000
 Translational            0.889              2.981             40.409
 Rotational               0.889              2.981             29.130
 Vibrational            102.979             25.613             22.579
 Vibration     1          0.597              1.973              4.425
 Vibration     2          0.599              1.965              3.988
 Vibration     3          0.610              1.929              3.037
 Vibration     4          0.622              1.891              2.551
 Vibration     5          0.661              1.767              1.747
 Vibration     6          0.685              1.697              1.487
 Vibration     7          0.749              1.516              1.045
 Vibration     8          0.819              1.337              0.764
 Vibration     9          0.836              1.295              0.710
 Vibration    10          0.932              1.085              0.494

 Optimization completed.
    -- Stationary point found.
 Normal termination of Gaussian 09 at Mon Jan 27 12:50:43 2020.
