 Gaussian 09, Revision D.01,
 Gaussian 09:  ES64L-G09RevD.01 24-Apr-2013

 -----------------------------
 # b3lyp 6-31G(2df,p) opt Freq
 -----------------------------

 -----
 titel
 -----
 Symbolic Z-matrix:
 Charge =  0 Multiplicity = 1

 SCF Done:  E(RB3LYP) =  -423.117447202     A.U. after   14 cycles
 Optimization completed.
    -- Stationary point found.
 Normal termination of Gaussian 09 at Mon Jan 27 11:18:37 2020.

 ----------------------------------------------------------------------
 #N Geom=AllCheck Guess=TCheck SCRF=Check GenChk RB3LYP/6-31G(2df,p) Fr
 eq
 ----------------------------------------------------------------------

 Structure from the checkpoint file:  "/scratch/puck/g09_f3980e2d-2f95-4959-ae33-304fd30f18f9/Gau-41924.chk"
 -----
 titel
 -----
 Charge =  0 Multiplicity = 1

                         Standard orientation:
 ---------------------------------------------------------------------
 Center     Atomic      Atomic             Coordinates (Angstroms)
 Number     Number       Type             X           Y           Z
 ---------------------------------------------------------------------
      1          6           0       -1.175732    0.116618    1.241947
      2          6           0       -1.755041   -0.686340    0.067185
      3          8           0       -1.854343    0.583104   -0.721488
      4          6           0       -0.516379    0.612252   -0.080546
      5          6           0        0.632338    1.548140   -0.274590
      6          6           0        1.835986    0.758049    0.318501
      7          6           0        1.914143   -0.709517   -0.161370
      8          8           0        0.735672   -1.484164    0.101566
      9          6           0       -0.333696   -0.836075   -0.535830
     10          1           0       -1.865847    0.825001    1.701584
     11          1           0       -0.549288   -0.415978    1.957820
     12          1           0       -2.614564   -1.354280    0.024448
     13          1           0        0.783423    1.729385   -1.345583
     14          1           0        0.512037    2.516300    0.221414
     15          1           0        2.776997    1.252095    0.054399
     16          1           0        1.766601    0.767817    1.411984
     17          1           0        2.126663   -0.729320   -1.243331
     18          1           0        2.731066   -1.225693    0.349235
     19          1           0       -0.327436   -0.975616   -1.624372
 ---------------------------------------------------------------------

 SCF Done:  E(RB3LYP) =  -423.117447202     A.U. after    1 cycles

 The electronic state is 1-A.
 Alpha  occ. eigenvalues --  -19.14629 -19.13398 -10.24743 -10.24177 -10.23675
 Alpha  occ. eigenvalues --  -10.22965 -10.19723 -10.19559 -10.18634  -1.06301
 Alpha  occ. eigenvalues --   -1.02940  -0.80455  -0.78280  -0.71021  -0.66732
 Alpha  occ. eigenvalues --   -0.62808  -0.59416  -0.53980  -0.50052  -0.48346
 Alpha  occ. eigenvalues --   -0.46757  -0.46547  -0.44181  -0.41617  -0.39923
 Alpha  occ. eigenvalues --   -0.37370  -0.37027  -0.35792  -0.35139  -0.32450
 Alpha  occ. eigenvalues --   -0.31822  -0.28934  -0.26630  -0.23283
 Alpha virt. eigenvalues --    0.07581   0.09447   0.11234   0.12181   0.12617
 Alpha virt. eigenvalues --    0.13445   0.14023   0.14879   0.15075   0.16049
 Alpha virt. eigenvalues --    0.16995   0.17854   0.18469   0.19933   0.20617

 Mulliken charges:
               1
     1  C   -0.271715
     2  C   -0.025196
     3  O   -0.369519
     4  C    0.431110
     5  C   -0.360431
     6  C   -0.217168
     7  C   -0.068904
     8  O   -0.265975
     9  C    0.107151
    10  H    0.102348
    11  H    0.112204
    12  H    0.095022
    13  H    0.114952
    14  H    0.109156
    15  H    0.106501
    16  H    0.116603
    17  H    0.094382
    18  H    0.113276
    19  H    0.076200
 Sum of Mulliken charges =   0.00000

 Dipole moment (field-independent basis, Debye):
    X=              1.8140    Y=              0.4775    Z=              0.6154  Tot=              1.9742
 Quadrupole moment (field-independent basis, Debye-Ang):
   XX=            -52.1321   YY=            -55.0195   ZZ=            -53.0204
   XY=              4.0976   XZ=             -2.7274   YZ=              1.5887

  Exact polarizability:  85.339   2.885  70.010  -1.672   1.370  68.456
 Approx polarizability: 117.324   1.900 106.459   1.313  -1.814 107.368

                      1                      2                      3
                      A                      A                      A
 Frequencies --    180.1134               239.9868               330.6527
 Red. masses --      2.8952                 2.2908                 2.3061
 Frc consts  --      0.0553                 0.0777                 0.1486
 IR Inten    --      0.7215                 1.5870                 1.3325

                      4                      5                      6
                      A                      A                      A
 Frequencies --    352.3659               390.3941               435.5225
 Red. masses --      2.6290                 4.5505                 4.2807
 Frc consts  --      0.1923                 0.4086                 0.4784
 IR Inten    --      6.1252                 8.8467                 0.3559

                      7                      8                      9
                      A                      A                      A
 Frequencies --    511.4380               562.6755               623.9186
 Red. masses --      2.4920                 2.3809                 5.8192
 Frc consts  --      0.3840                 0.4441                 1.3347
 IR Inten    --      1.2763                 5.8080                 8.9087

                     10                     11                     12
                      A                      A                      A
 Frequencies --    653.6081               728.2477               825.0644
 Red. masses --      2.3667                 4.1324                 2.7234
 Frc consts  --      0.5957                 1.2913                 1.0923
 IR Inten    --      0.2959                12.8785                 2.7727

                     13                     14                     15
                      A                      A                      A
 Frequencies --    846.7937               881.2848               906.9029
 Red. masses --      2.6112                 1.5812                 4.0681
 Frc consts  --      1.1032                 0.7236                 1.9714
 IR Inten    --      0.9187                 3.0677                17.0503

                     16                     17                     18
                      A                      A                      A
 Frequencies --    919.3610               952.8432               961.7347
 Red. masses --      2.1740                 1.9016                 2.4390
 Frc consts  --      1.0826                 1.0172                 1.3291
 IR Inten    --      5.6114                 4.0517                15.9339

                     19                     20                     21
                      A                      A                      A
 Frequencies --    984.3217              1003.3910              1044.9541
 Red. masses --      2.6172                 1.8431                 3.2353
 Frc consts  --      1.4940                 1.0933                 2.0814
 IR Inten    --     11.4465                 1.6804                35.1974

                     22                     23                     24
                      A                      A                      A
 Frequencies --   1055.4129              1082.8112              1113.8633
 Red. masses --      1.6248                 1.8046                 2.0511
 Frc consts  --      1.0664                 1.2466                 1.4994
 IR Inten    --      5.8837                 1.9487                63.3633

                     25                     26                     27
                      A                      A                      A
 Frequencies --   1143.6369              1174.1086              1202.5454
 Red. masses --      2.4785                 1.7542                 1.3505
 Frc consts  --      1.9099                 1.4247                 1.1507
 IR Inten    --     83.1079                 4.2181                 4.4883

                     28                     29                     30
                      A                      A                      A
 Frequencies --   1215.4577              1216.4991              1230.0677
 Red. masses --      1.4755                 1.5410                 1.4662
 Frc consts  --      1.2843                 1.3436                 1.3070
 IR Inten    --      4.7854                 3.5311                 4.4581

                     31                     32                     33
                      A                      A                      A
 Frequencies --   1275.1558              1298.6859              1311.6141
 Red. masses --      1.8591                 1.3189                 1.4248
 Frc consts  --      1.7811                 1.3106                 1.4442
 IR Inten    --     12.5977                 1.2733                 7.4659

                     34                     35                     36
                      A                      A                      A
 Frequencies --   1353.1111              1365.9357              1392.9104
 Red. masses --      1.3211                 1.3843                 2.0492
 Frc consts  --      1.4251                 1.5218                 2.3425
 IR Inten    --      2.4163                17.2065                17.8294

                     37                     38                     39
                      A                      A                      A
 Frequencies --   1410.5394              1477.3547              1484.2700
 Red. masses --      1.3640                 1.0838                 1.2908
 Frc consts  --      1.5990                 1.3936                 1.6754
 IR Inten    --      5.5890                 4.7964                 6.4776

                     40                     41                     42
                      A                      A                      A
 Frequencies --   1488.6635              1498.7014              2970.2195
 Red. masses --      1.1105                 1.1528                 1.0713
 Frc consts  --      1.4499                 1.5256                 5.5683
 IR Inten    --      2.8939                 6.2563                48.9740

                     43                     44                     45
                      A                      A                      A
 Frequencies --   3033.7602              3038.1117              3042.1384
 Red. masses --      1.0727                 1.0711                 1.0612
 Frc consts  --      5.8170                 5.8249                 5.7863
 IR Inten    --     26.5524                44.0670                14.9647

                     46                     47                     48
                      A                      A                      A
 Frequencies --   3081.0540              3082.6222              3091.0350
 Red. masses --      1.1000                 1.0557                 1.1017
 Frc consts  --      6.1521                 5.9107                 6.2019
 IR Inten    --     24.2572                16.7701                40.5571

                     49                     50                     51
                      A                      A                      A
 Frequencies --   3097.9009              3128.1791              3161.7777
 Red. masses --      1.0949                 1.0938                 1.1122
 Frc consts  --      6.1908                 6.3062                 6.5511
 IR Inten    --     32.7747                55.9169                17.2519

 - Thermochemistry -
 -------------------
 Temperature   298.150 Kelvin.  Pressure   1.00000 Atm.
 Atom     1 has atomic number  6 and mass  12.00000

 Molecular mass:   126.06808 amu.
 Principal axes and moments of inertia in atomic units:
                           1         2         3
     Eigenvalues --   592.924771048.413671299.35543
           X            0.99898   0.04138  -0.01785
           Y           -0.04089   0.99879   0.02723
           Z            0.01895  -0.02648   0.99947
 This molecule is an asymmetric top.
 Rotational symmetry number  1.
 Warning -- assumption of classical behavior for rotation
           may cause significant error
 Rotational temperatures (Kelvin)      0.14608     0.08261     0.06666
 Rotational constants (GHZ):           3.04379     1.72140     1.38895
 Zero-point vibrational energy     423799.3 (Joules/Mol)
                                  101.29047 (Kcal/Mol)
 Warning -- explicit consideration of   8 degrees of freedom as
           vibrations may cause significant error
 Vibrational temperatures:    259.14   345.29   475.73   506.98   561.69
          (Kelvin)            626.62   735.84   809.56   897.68   940.40
                             1047.78  1187.08  1218.35  1267.97  1304.83
                             1322.75  1370.93  1383.72  1416.22  1443.65
                             1503.45  1518.50  1557.92  1602.60  1645.44
                             1689.28  1730.19  1748.77  1750.27  1769.79
                             1834.66  1868.52  1887.12  1946.82  1965.27
                             2004.08  2029.45  2125.58  2135.53  2141.85
                             2156.29  4273.48  4364.90  4371.16  4376.95
                             4432.94  4435.20  4447.30  4457.18  4500.75
                             4549.09

 Zero-point correction=                           0.161417 (Hartree/Particle)
 Thermal correction to Energy=                    0.168220
 Thermal correction to Enthalpy=                  0.169164
 Thermal correction to Gibbs Free Energy=         0.130629
 Sum of electronic and zero-point Energies=           -422.956031
 Sum of electronic and thermal Energies=              -422.949227
 Sum of electronic and thermal Enthalpies=            -422.948283
 Sum of electronic and thermal Free Energies=         -422.986818

                     E (Thermal)             CV                S
                      KCal/Mol        Cal/Mol-Kelvin    Cal/Mol-Kelvin
 Total                  105.560             28.670             81.105
 Electronic               0.000              0.000              0.000
 Translational            0.889              2.981             40.409
 Rotational               0.889              2.981             28.181
 Vibrational            103.782             22.708             12.515
 Vibration     1          0.629              1.867              2.327
 Vibration     2          0.657              1.779              1.803
 Vibration     3          0.713              1.614              1.257
 Vibration     4          0.729              1.570              1.156
 Vibration     5          0.758              1.491              0.999
 Vibration     6          0.796              1.393              0.841
 Vibration     7          0.867              1.225              0.630
 Vibration     8          0.918              1.112              0.519

 Optimization completed.
    -- Stationary point found.
 Normal termination of Gaussian 09 at Mon Jan 27 12:07:42 2020.
