 Gaussian 09, Revision D.01,
 Gaussian 09:  ES64L-G09RevD.01 24-Apr-2013

 -----------------------------
 # b3lyp 6-31G(2df,p) opt Freq
 -----------------------------

 -----
 titel
 -----
 Symbolic Z-matrix:
 Charge =  0 Multiplicity = 1

 SCF Done:  E(RB3LYP) =  -423.180547085     A.U. after   13 cycles
 SCF Done:  E(RB3LYP) =  -423.180547678     A.U. after    6 cycles
 SCF Done:  E(RB3LYP) =  -423.180548066     A.U. after    6 cycles
 Optimization completed.
    -- Stationary point found.
 Normal termination of Gaussian 09 at Mon Jan 27 18:30:12 2020.

 ----------------------------------------------------------------------
 #N Geom=AllCheck Guess=TCheck SCRF=Check GenChk RB3LYP/6-31G(2df,p) Fr
 eq
 ----------------------------------------------------------------------

 Structure from the checkpoint file:  "/scratch/puck/g09_06893bdb-77ef-4a1a-9e71-30792de1009b/Gau-149766.chk"
 -----
 titel
 -----
 Charge =  0 Multiplicity = 1

                         Standard orientation:
 ---------------------------------------------------------------------
 Center     Atomic      Atomic             Coordinates (Angstroms)
 Number     Number       Type             X           Y           Z
 ---------------------------------------------------------------------
      1          6           0       -1.700409   -1.498903   -0.076713
      2          6           0       -0.840122   -0.260490   -0.032068
      3          6           0       -1.376933    1.191226    0.073559
      4          6           0        0.097837    1.477468    0.415288
      5          8           0        0.757366    1.201837   -0.839978
      6          6           0        0.340357   -0.156250   -1.039120
      7          8           0        1.334354   -1.023232   -0.552516
      8          6           0        1.428657   -0.716496    0.854488
      9          6           0        0.159231    0.087990    1.131167
     10          1           0       -2.333331   -1.506663   -0.971650
     11          1           0       -1.081064   -2.401239   -0.098102
     12          1           0       -2.359236   -1.557990    0.795701
     13          1           0       -1.775069    1.674238   -0.822212
     14          1           0       -2.058453    1.314905    0.919499
     15          1           0        0.469770    2.408529    0.839886
     16          1           0        0.176521   -0.366081   -2.095828
     17          1           0        1.473229   -1.654973    1.417090
     18          1           0        2.342768   -0.143910    1.051982
     19          1           0       -0.240603    0.057072    2.143981
 ---------------------------------------------------------------------

 SCF Done:  E(RB3LYP) =  -423.180548066     A.U. after    1 cycles

 The electronic state is 1-A.
 Alpha  occ. eigenvalues --  -19.13783 -19.13570 -10.26941 -10.23873 -10.22714
 Alpha  occ. eigenvalues --  -10.20169 -10.19549 -10.18559 -10.18107  -1.07881
 Alpha  occ. eigenvalues --   -1.00027  -0.84643  -0.75104  -0.71323  -0.67705
 Alpha  occ. eigenvalues --   -0.62684  -0.56944  -0.55360  -0.50581  -0.49468
 Alpha  occ. eigenvalues --   -0.46662  -0.44345  -0.43256  -0.40737  -0.40528
 Alpha  occ. eigenvalues --   -0.39295  -0.37267  -0.36081  -0.33955  -0.32461
 Alpha  occ. eigenvalues --   -0.31621  -0.30697  -0.25826  -0.24214
 Alpha virt. eigenvalues --    0.09081   0.10021   0.11534   0.12009   0.13269
 Alpha virt. eigenvalues --    0.13583   0.14975   0.15665   0.15774   0.16919
 Alpha virt. eigenvalues --    0.17979   0.18435   0.18802   0.19488   0.21034

 Mulliken charges:
               1
     1  C   -0.512573
     2  C    0.278492
     3  C   -0.289130
     4  C    0.075347
     5  O   -0.285294
     6  C    0.176356
     7  O   -0.257179
     8  C   -0.112831
     9  C   -0.108310
    10  H    0.121150
    11  H    0.133108
    12  H    0.116641
    13  H    0.100909
    14  H    0.098907
    15  H    0.080856
    16  H    0.086926
    17  H    0.106603
    18  H    0.109737
    19  H    0.080286
 Sum of Mulliken charges =   0.00000

 Dipole moment (field-independent basis, Debye):
    X=             -1.7943    Y=             -0.0693    Z=              1.8017  Tot=              2.5437
 Quadrupole moment (field-independent basis, Debye-Ang):
   XX=            -54.6855   YY=            -54.4172   ZZ=            -50.9441
   XY=              0.1945   XZ=              3.0787   YZ=              1.0681

  Exact polarizability:  75.210  -1.185  74.288   3.373   0.678  70.189
 Approx polarizability: 106.363  -1.986 107.764   1.828   1.187 109.515

                      1                      2                      3
                      A                      A                      A
 Frequencies --    203.5232               221.0823               255.3040
 Red. masses --      1.0277                 2.3592                 3.0215
 Frc consts  --      0.0251                 0.0679                 0.1160
 IR Inten    --      0.1139                 0.2844                 4.1031

                      4                      5                      6
                      A                      A                      A
 Frequencies --    274.3036               419.7697               446.8745
 Red. masses --      2.8283                 2.4857                 2.3551
 Frc consts  --      0.1254                 0.2581                 0.2771
 IR Inten    --      1.0874                 0.3380                 0.6843

                      7                      8                      9
                      A                      A                      A
 Frequencies --    528.8606               597.5510               636.5112
 Red. masses --      4.5809                 6.0837                 3.7921
 Frc consts  --      0.7549                 1.2799                 0.9052
 IR Inten    --      4.4916                 4.5053                 0.4924

                     10                     11                     12
                      A                      A                      A
 Frequencies --    705.9943               755.0015               819.4803
 Red. masses --      3.7082                 4.5580                 2.3719
 Frc consts  --      1.0890                 1.5308                 0.9385
 IR Inten    --      1.1431                 3.2995                 1.0687

                     13                     14                     15
                      A                      A                      A
 Frequencies --    878.0080               887.5002               912.4107
 Red. masses --      4.0084                 2.2544                 2.7719
 Frc consts  --      1.8206                 1.0462                 1.3596
 IR Inten    --     22.1095                 3.9916                19.3166

                     16                     17                     18
                      A                      A                      A
 Frequencies --    924.0607               933.7434               949.0384
 Red. masses --      2.7460                 2.7961                 2.5606
 Frc consts  --      1.3815                 1.4363                 1.3588
 IR Inten    --     20.0298                22.0463                29.5335

                     19                     20                     21
                      A                      A                      A
 Frequencies --    980.2967               997.8032              1015.3477
 Red. masses --      2.1824                 1.8249                 1.5972
 Frc consts  --      1.2357                 1.0705                 0.9702
 IR Inten    --     73.7917                 5.1920                 0.7929

                     22                     23                     24
                      A                      A                      A
 Frequencies --   1041.6865              1080.3544              1114.6408
 Red. masses --      1.4581                 3.6525                 1.8250
 Frc consts  --      0.9322                 2.5117                 1.3359
 IR Inten    --     11.2401                56.5298                 5.9237

                     25                     26                     27
                      A                      A                      A
 Frequencies --   1117.6878              1145.5476              1209.3936
 Red. masses --      1.9831                 1.9437                 1.3936
 Frc consts  --      1.4596                 1.5029                 1.2009
 IR Inten    --     24.2435                 9.4051                 8.1051

                     28                     29                     30
                      A                      A                      A
 Frequencies --   1216.6578              1227.1612              1239.6332
 Red. masses --      1.6204                 1.7660                 1.3621
 Frc consts  --      1.4132                 1.5669                 1.2332
 IR Inten    --      2.0284                 2.2822                 4.5501

                     31                     32                     33
                      A                      A                      A
 Frequencies --   1252.6868              1295.5889              1305.8653
 Red. masses --      1.8951                 1.8512                 1.4754
 Frc consts  --      1.7521                 1.8308                 1.4824
 IR Inten    --      1.5186                20.2500                 5.0185

                     34                     35                     36
                      A                      A                      A
 Frequencies --   1336.2214              1357.0830              1388.8845
 Red. masses --      1.5870                 1.7511                 1.5348
 Frc consts  --      1.6695                 1.9001                 1.7443
 IR Inten    --      4.3595                 4.3699                10.6290

                     37                     38                     39
                      A                      A                      A
 Frequencies --   1412.5665              1490.4741              1493.3725
 Red. masses --      1.3241                 1.1323                 1.0549
 Frc consts  --      1.5566                 1.4820                 1.3861
 IR Inten    --      2.6844                 0.2425                 3.9338

                     40                     41                     42
                      A                      A                      A
 Frequencies --   1496.8158              1516.5567              3028.0687
 Red. masses --      1.0615                 1.0918                 1.0504
 Frc consts  --      1.4012                 1.4795                 5.6744
 IR Inten    --      6.3991                 0.7575                66.8016

                     43                     44                     45
                      A                      A                      A
 Frequencies --   3029.1604              3058.3546              3071.1283
 Red. masses --      1.0436                 1.0562                 1.1075
 Frc consts  --      5.6419                 5.8208                 6.1542
 IR Inten    --     18.9959                31.8964                28.3384

                     46                     47                     48
                      A                      A                      A
 Frequencies --   3091.5910              3104.9850              3120.0577
 Red. masses --      1.1001                 1.1011                 1.1083
 Frc consts  --      6.1950                 6.2545                 6.3570
 IR Inten    --     17.7916                15.1742                12.1215

                     49                     50                     51
                      A                      A                      A
 Frequencies --   3126.9657              3130.8378              3138.3142
 Red. masses --      1.0894                 1.0901                 1.0934
 Frc consts  --      6.2762                 6.2954                 6.3451
 IR Inten    --     35.9026                41.6826                29.5507

 - Thermochemistry -
 -------------------
 Temperature   298.150 Kelvin.  Pressure   1.00000 Atm.
 Atom     1 has atomic number  6 and mass  12.00000

 Molecular mass:   126.06808 amu.
 Principal axes and moments of inertia in atomic units:
                           1         2         3
     Eigenvalues --   757.51384 818.366621067.12173
           X            0.98863   0.14312   0.04611
           Y           -0.14376   0.98955   0.01084
           Z           -0.04408  -0.01735   0.99888
 This molecule is an asymmetric top.
 Rotational symmetry number  1.
 Warning -- assumption of classical behavior for rotation
           may cause significant error
 Rotational temperatures (Kelvin)      0.11434     0.10584     0.08117
 Rotational constants (GHZ):           2.38245     2.20530     1.69122
 Zero-point vibrational energy     424559.5 (Joules/Mol)
                                  101.47216 (Kcal/Mol)
 Warning -- explicit consideration of   8 degrees of freedom as
           vibrations may cause significant error
 Vibrational temperatures:    292.82   318.09   367.32   394.66   603.95
          (Kelvin)            642.95   760.91   859.74   915.80  1015.77
                             1086.28  1179.05  1263.26  1276.91  1312.75
                             1329.52  1343.45  1365.45  1410.43  1435.61
                             1460.86  1498.75  1554.39  1603.72  1608.10
                             1648.19  1740.05  1750.50  1765.61  1783.55
                             1802.33  1864.06  1878.85  1922.52  1952.54
                             1998.29  2032.37  2144.46  2148.63  2153.58
                             2181.98  4356.71  4358.28  4400.28  4418.66
                             4448.10  4467.38  4489.06  4499.00  4504.57
                             4515.33

 Zero-point correction=                           0.161706 (Hartree/Particle)
 Thermal correction to Energy=                    0.168589
 Thermal correction to Enthalpy=                  0.169534
 Thermal correction to Gibbs Free Energy=         0.130888
 Sum of electronic and zero-point Energies=           -423.018842
 Sum of electronic and thermal Energies=              -423.011959
 Sum of electronic and thermal Enthalpies=            -423.011014
 Sum of electronic and thermal Free Energies=         -423.049660

                     E (Thermal)             CV                S
                      KCal/Mol        Cal/Mol-Kelvin    Cal/Mol-Kelvin
 Total                  105.791             28.653             81.337
 Electronic               0.000              0.000              0.000
 Translational            0.889              2.981             40.409
 Rotational               0.889              2.981             27.983
 Vibrational            104.014             22.691             12.945
 Vibration     1          0.639              1.835              2.101
 Vibration     2          0.648              1.809              1.950
 Vibration     3          0.666              1.754              1.694
 Vibration     4          0.677              1.721              1.569
 Vibration     5          0.782              1.427              0.893
 Vibration     6          0.806              1.368              0.805
 Vibration     7          0.884              1.186              0.590
 Vibration     8          0.955              1.037              0.454

 Optimization completed.
    -- Stationary point found.
 Normal termination of Gaussian 09 at Mon Jan 27 19:26:36 2020.
