 Gaussian 09, Revision D.01,
 Gaussian 09:  ES64L-G09RevD.01 24-Apr-2013

 -----------------------------
 # b3lyp 6-31G(2df,p) opt Freq
 -----------------------------

 -----
 titel
 -----
 Symbolic Z-matrix:
 Charge =  0 Multiplicity = 1

 SCF Done:  E(RB3LYP) =  -423.149428757     A.U. after   13 cycles
 Optimization completed.
    -- Stationary point found.
 Normal termination of Gaussian 09 at Mon Jan 27 23:43:15 2020.

 ----------------------------------------------------------------------
 #N Geom=AllCheck Guess=TCheck SCRF=Check GenChk RB3LYP/6-31G(2df,p) Fr
 eq
 ----------------------------------------------------------------------

 Structure from the checkpoint file:  "/scratch/puck/g09_12e84d5b-f83b-4655-a8ff-f8797f24f09e/Gau-193808.chk"
 -----
 titel
 -----
 Charge =  0 Multiplicity = 1

                         Standard orientation:
 ---------------------------------------------------------------------
 Center     Atomic      Atomic             Coordinates (Angstroms)
 Number     Number       Type             X           Y           Z
 ---------------------------------------------------------------------
      1          8           0       -3.077950   -0.138128   -0.215390
      2          6           0       -1.685394   -0.154805   -0.354206
      3          6           0       -0.855733    0.980051    0.180920
      4          6           0        0.521834    1.297942   -0.400800
      5          6           0        1.426703    0.087514   -0.111503
      6          8           0        2.776170    0.330809    0.148314
      7          6           0        1.130083   -1.222772   -0.763923
      8          6           0        0.604498   -0.949562    0.640119
      9          6           0       -0.794588   -0.410516    0.833321
     10          1           0       -3.297471    0.230428    0.646307
     11          1           0       -1.438323   -0.595958   -1.313316
     12          1           0       -1.401898    1.788549    0.658657
     13          1           0        0.493754    1.548081   -1.467268
     14          1           0        0.944882    2.168254    0.115094
     15          1           0        2.834011    0.861683    0.951048
     16          1           0        0.456550   -1.280083   -1.611132
     17          1           0        1.971852   -1.904266   -0.820154
     18          1           0        1.044777   -1.523549    1.447388
     19          1           0       -1.278317   -0.601696    1.786423
 ---------------------------------------------------------------------

 SCF Done:  E(RB3LYP) =  -423.149428757     A.U. after    1 cycles

 The electronic state is 1-A.
 Alpha  occ. eigenvalues --  -19.14278 -19.14200 -10.23537 -10.23359 -10.18964
 Alpha  occ. eigenvalues --  -10.18897 -10.18778 -10.18696 -10.18177  -1.02903
 Alpha  occ. eigenvalues --   -1.02664  -0.88614  -0.81129  -0.72252  -0.64317
 Alpha  occ. eigenvalues --   -0.59821  -0.57532  -0.55747  -0.53239  -0.48720
 Alpha  occ. eigenvalues --   -0.47113  -0.44496  -0.42614  -0.41858  -0.40277
 Alpha  occ. eigenvalues --   -0.37108  -0.36757  -0.36161  -0.35012  -0.32597
 Alpha  occ. eigenvalues --   -0.28376  -0.27771  -0.24737  -0.22531
 Alpha virt. eigenvalues --    0.07072   0.07614   0.08793   0.09897   0.11795
 Alpha virt. eigenvalues --    0.13151   0.14197   0.16691   0.17684   0.18127
 Alpha virt. eigenvalues --    0.18481   0.19725   0.20347   0.21964   0.25030

 Mulliken charges:
               1
     1  O   -0.440760
     2  C    0.139060
     3  C   -0.107603
     4  C   -0.316429
     5  C    0.407646
     6  O   -0.464870
     7  C   -0.328703
     8  C   -0.118501
     9  C   -0.119098
    10  H    0.281537
    11  H    0.102840
    12  H    0.079445
    13  H    0.111873
    14  H    0.094863
    15  H    0.277529
    16  H    0.116095
    17  H    0.120071
    18  H    0.087048
    19  H    0.077957
 Sum of Mulliken charges =   0.00000

 Dipole moment (field-independent basis, Debye):
    X=              0.0514    Y=              1.0819    Z=              2.1023  Tot=              2.3649
 Quadrupole moment (field-independent basis, Debye-Ang):
   XX=            -59.8589   YY=            -51.8630   ZZ=            -49.4540
   XY=             -1.1714   XZ=             -1.4235   YZ=              2.0283

  Exact polarizability:  84.597  -0.849  70.855  -1.470   1.694  66.488
 Approx polarizability: 114.042   1.401 105.976  -1.020   2.510 105.709

                      1                      2                      3
                      A                      A                      A
 Frequencies --    123.8253               148.1510               216.5326
 Red. masses --      1.0427                 4.4370                 3.1003
 Frc consts  --      0.0094                 0.0574                 0.0856
 IR Inten    --     79.8566                 0.9382                 0.4129

                      4                      5                      6
                      A                      A                      A
 Frequencies --    259.3597               302.0091               339.0934
 Red. masses --      2.7854                 3.3175                 1.3136
 Frc consts  --      0.1104                 0.1783                 0.0890
 IR Inten    --      4.5088                 5.2568                80.6324

                      7                      8                      9
                      A                      A                      A
 Frequencies --    373.3015               406.7879               416.0625
 Red. masses --      2.8199                 3.8304                 2.5427
 Frc consts  --      0.2315                 0.3735                 0.2593
 IR Inten    --     11.2549                15.5645                 2.6056

                     10                     11                     12
                      A                      A                      A
 Frequencies --    515.0731               606.0227               679.4923
 Red. masses --      2.3938                 3.3553                 4.3339
 Frc consts  --      0.3742                 0.7260                 1.1790
 IR Inten    --      3.1197                 7.9037                 1.9122

                     13                     14                     15
                      A                      A                      A
 Frequencies --    713.1076               805.6482               826.2506
 Red. masses --      3.5517                 1.9716                 2.7133
 Frc consts  --      1.0641                 0.7540                 1.0914
 IR Inten    --      1.1719                 4.5369                13.0251

                     16                     17                     18
                      A                      A                      A
 Frequencies --    868.5791               896.4397               924.3352
 Red. masses --      3.1305                 1.5738                 2.0782
 Frc consts  --      1.3915                 0.7452                 1.0462
 IR Inten    --     17.5995                 1.4673                11.4567

                     19                     20                     21
                      A                      A                      A
 Frequencies --    925.6236               956.0777               996.6132
 Red. masses --      2.3839                 1.9018                 1.9440
 Frc consts  --      1.2034                 1.0242                 1.1376
 IR Inten    --     16.6734                 9.6603                 4.0042

                     22                     23                     24
                      A                      A                      A
 Frequencies --   1020.7973              1047.0438              1060.4895
 Red. masses --      1.7507                 1.2843                 1.3818
 Frc consts  --      1.0748                 0.8296                 0.9156
 IR Inten    --      7.0637                 6.7444                 5.1793

                     25                     26                     27
                      A                      A                      A
 Frequencies --   1073.4889              1081.1103              1100.9314
 Red. masses --      1.7825                 1.7443                 1.5221
 Frc consts  --      1.2103                 1.2012                 1.0869
 IR Inten    --      6.5326                 0.0812                 4.3109

                     28                     29                     30
                      A                      A                      A
 Frequencies --   1125.0644              1176.9306              1179.9033
 Red. masses --      1.9513                 1.5146                 1.3371
 Frc consts  --      1.4552                 1.2361                 1.0967
 IR Inten    --     90.2310                64.6852                 1.6639

                     31                     32                     33
                      A                      A                      A
 Frequencies --   1230.3846              1246.5386              1281.4844
 Red. masses --      1.7431                 2.0110                 1.6708
 Frc consts  --      1.5547                 1.8411                 1.6166
 IR Inten    --     85.2550                23.6593                12.6904

                     34                     35                     36
                      A                      A                      A
 Frequencies --   1304.2312              1311.9348              1333.7535
 Red. masses --      1.9392                 1.4212                 1.8483
 Frc consts  --      1.9435                 1.4413                 1.9372
 IR Inten    --      9.9607                18.4655                44.9533

                     37                     38                     39
                      A                      A                      A
 Frequencies --   1376.3853              1412.3321              1464.0268
 Red. masses --      1.4985                 1.7873                 1.9188
 Frc consts  --      1.6726                 2.1005                 2.4232
 IR Inten    --      4.6362                13.9909                65.1988

                     40                     41                     42
                      A                      A                      A
 Frequencies --   1479.8075              1499.4472              3031.8176
 Red. masses --      1.1438                 1.3108                 1.0602
 Frc consts  --      1.4758                 1.7364                 5.7418
 IR Inten    --      5.1109                 4.8603                39.0933

                     43                     44                     45
                      A                      A                      A
 Frequencies --   3068.2365              3139.4859              3142.8921
 Red. masses --      1.1031                 1.0554                 1.0883
 Frc consts  --      6.1186                 6.1292                 6.3340
 IR Inten    --     20.2884                 7.9420                 9.5900

                     46                     47                     48
                      A                      A                      A
 Frequencies --   3153.3227              3175.5420              3178.6167
 Red. masses --      1.0911                 1.0869                 1.0918
 Frc consts  --      6.3919                 6.4578                 6.4993
 IR Inten    --     18.4620                20.8377                10.1549

                     49                     50                     51
                      A                      A                      A
 Frequencies --   3225.4573              3784.8411              3818.7256
 Red. masses --      1.1150                 1.0658                 1.0659
 Frc consts  --      6.8346                 8.9957                 9.1579
 IR Inten    --      8.1847                12.1556                19.4908

 - Thermochemistry -
 -------------------
 Temperature   298.150 Kelvin.  Pressure   1.00000 Atm.
 Atom     1 has atomic number  8 and mass  15.99491

 Molecular mass:   126.06808 amu.
 Principal axes and moments of inertia in atomic units:
                           1         2         3
     Eigenvalues --   443.201761583.462111743.94035
           X            0.99996  -0.00698  -0.00618
           Y            0.00715   0.99958   0.02800
           Z            0.00598  -0.02804   0.99959
 This molecule is an asymmetric top.
 Rotational symmetry number  1.
 Warning -- assumption of classical behavior for rotation
           may cause significant error
 Rotational temperatures (Kelvin)      0.19543     0.05470     0.04967
 Rotational constants (GHZ):           4.07205     1.13974     1.03486
 Zero-point vibrational energy     417636.7 (Joules/Mol)
                                   99.81757 (Kcal/Mol)
 Warning -- explicit consideration of  11 degrees of freedom as
           vibrations may cause significant error
 Vibrational temperatures:    178.16   213.16   311.54   373.16   434.52
          (Kelvin)            487.88   537.10   585.28   598.62   741.07
                              871.93   977.64  1026.00  1159.15  1188.79
                             1249.69  1289.78  1329.91  1331.76  1375.58
                             1433.90  1468.70  1506.46  1525.81  1544.51
                             1555.47  1583.99  1618.71  1693.34  1697.62
                             1770.25  1793.49  1843.77  1876.50  1887.58
                             1918.97  1980.31  2032.03  2106.41  2129.11
                             2157.37  4362.10  4414.50  4517.01  4521.92
                             4536.92  4568.89  4573.31  4640.71  5445.54
                             5494.29

 Zero-point correction=                           0.159069 (Hartree/Particle)
 Thermal correction to Energy=                    0.167349
 Thermal correction to Enthalpy=                  0.168293
 Thermal correction to Gibbs Free Energy=         0.126676
 Sum of electronic and zero-point Energies=           -422.990359
 Sum of electronic and thermal Energies=              -422.982080
 Sum of electronic and thermal Enthalpies=            -422.981136
 Sum of electronic and thermal Free Energies=         -423.022753

                     E (Thermal)             CV                S
                      KCal/Mol        Cal/Mol-Kelvin    Cal/Mol-Kelvin
 Total                  105.013             32.968             87.590
 Electronic               0.000              0.000              0.000
 Translational            0.889              2.981             40.409
 Rotational               0.889              2.981             28.594
 Vibrational            103.235             27.006             18.587
 Vibration     1          0.610              1.929              3.040
 Vibration     2          0.618              1.905              2.696
 Vibration     3          0.645              1.816              1.988
 Vibration     4          0.668              1.747              1.666
 Vibration     5          0.694              1.670              1.406
 Vibration     6          0.719              1.597              1.216
 Vibration     7          0.745              1.527              1.066
 Vibration     8          0.772              1.455              0.938
 Vibration     9          0.779              1.435              0.905
 Vibration    10          0.870              1.217              0.621
 Vibration    11          0.965              1.019              0.439

 Normal termination of Gaussian 09 at Tue Jan 28 00:26:35 2020.
