 Gaussian 09, Revision D.01,
 Gaussian 09:  ES64L-G09RevD.01 24-Apr-2013

 -----------------------------
 # b3lyp 6-31G(2df,p) opt Freq
 -----------------------------

 -----
 titel
 -----
 Symbolic Z-matrix:
 Charge =  0 Multiplicity = 1

 SCF Done:  E(RB3LYP) =  -423.222887071     A.U. after   14 cycles
 Optimization completed.
    -- Stationary point found.
 Normal termination of Gaussian 09 at Mon Jan 27 13:14:43 2020.

 ----------------------------------------------------------------------
 #N Geom=AllCheck Guess=TCheck SCRF=Check GenChk RB3LYP/6-31G(2df,p) Fr
 eq
 ----------------------------------------------------------------------

 Structure from the checkpoint file:  "/scratch/puck/g09_8e310d95-4115-40e1-947e-cbea5c68c057/Gau-28214.chk"
 -----
 titel
 -----
 Charge =  0 Multiplicity = 1

                         Standard orientation:
 ---------------------------------------------------------------------
 Center     Atomic      Atomic             Coordinates (Angstroms)
 Number     Number       Type             X           Y           Z
 ---------------------------------------------------------------------
      1          8           0        2.655103    0.015398   -0.415332
      2          6           0        1.542978   -0.122068    0.014446
      3          6           0        0.828556    0.960650    0.822342
      4          6           0       -0.049210    1.754161   -0.117398
      5          6           0       -1.311997    1.449564   -0.412112
      6          6           0       -2.097781    0.301584    0.174670
      7          6           0       -1.653923   -1.106906   -0.281195
      8          6           0       -0.363356   -1.658377    0.332970
      9          8           0        0.853996   -1.246292   -0.303687
     10          1           0        0.241326    0.534182    1.640037
     11          1           0        1.610184    1.589164    1.250712
     12          1           0        0.433910    2.586753   -0.620515
     13          1           0       -1.830053    2.065232   -1.143416
     14          1           0       -2.060053    0.338585    1.272654
     15          1           0       -3.152459    0.425175   -0.089876
     16          1           0       -2.446164   -1.814577   -0.005699
     17          1           0       -1.565175   -1.145429   -1.372483
     18          1           0       -0.320985   -1.458928    1.410191
     19          1           0       -0.354927   -2.744658    0.208202
 ---------------------------------------------------------------------

 SCF Done:  E(RB3LYP) =  -423.222887071     A.U. after    1 cycles

 The electronic state is 1-A.
 Alpha  occ. eigenvalues --  -19.17422 -19.11416 -10.30301 -10.25073 -10.20293
 Alpha  occ. eigenvalues --  -10.20031 -10.19956 -10.19448 -10.19135  -1.08926
 Alpha  occ. eigenvalues --   -1.00969  -0.82596  -0.79193  -0.73199  -0.69578
 Alpha  occ. eigenvalues --   -0.62400  -0.56799  -0.54071  -0.50653  -0.49996
 Alpha  occ. eigenvalues --   -0.47271  -0.45258  -0.44071  -0.43468  -0.40435
 Alpha  occ. eigenvalues --   -0.40270  -0.38093  -0.36818  -0.36044  -0.33629
 Alpha  occ. eigenvalues --   -0.32916  -0.28740  -0.27484  -0.24585
 Alpha virt. eigenvalues --   -0.00841   0.03825   0.07452   0.08390   0.11422
 Alpha virt. eigenvalues --    0.11968   0.13819   0.14598   0.15217   0.16834
 Alpha virt. eigenvalues --    0.17598   0.18367   0.19281   0.21331   0.21866

 Mulliken charges:
               1
     1  O   -0.316191
     2  C    0.410571
     3  C   -0.382593
     4  C   -0.052416
     5  C   -0.040895
     6  C   -0.259908
     7  C   -0.196097
     8  C   -0.073610
     9  O   -0.220209
    10  H    0.114888
    11  H    0.133098
    12  H    0.107807
    13  H    0.095465
    14  H    0.109138
    15  H    0.107500
    16  H    0.104697
    17  H    0.121871
    18  H    0.110522
    19  H    0.126362
 Sum of Mulliken charges =   0.00000

 Dipole moment (field-independent basis, Debye):
    X=             -4.0029    Y=              0.0043    Z=              1.6833  Tot=              4.3424
 Quadrupole moment (field-independent basis, Debye-Ang):
   XX=            -60.9279   YY=            -50.7318   ZZ=            -52.2938
   XY=              2.9403   XZ=              3.8061   YZ=             -1.8873

  Exact polarizability:  95.161   7.047  77.293   2.344  -2.654  59.998
 Approx polarizability: 145.243  13.328 106.585   1.435  -2.819  95.052

                      1                      2                      3
                      A                      A                      A
 Frequencies --     90.6152               154.5404               196.1142
 Red. masses --      6.0740                 3.5363                 2.7282
 Frc consts  --      0.0294                 0.0498                 0.0618
 IR Inten    --      0.9489                 2.7649                 1.6392

                      4                      5                      6
                      A                      A                      A
 Frequencies --    257.3984               282.9523               353.4835
 Red. masses --      2.6959                 3.8471                 2.3400
 Frc consts  --      0.1052                 0.1815                 0.1723
 IR Inten    --      0.4272                 0.2724                 1.7563

                      7                      8                      9
                      A                      A                      A
 Frequencies --    443.1676               467.2586               490.0344
 Red. masses --      2.0804                 3.1106                 2.5263
 Frc consts  --      0.2407                 0.4001                 0.3574
 IR Inten    --      1.1902                 1.0465                 1.6276

                     10                     11                     12
                      A                      A                      A
 Frequencies --    575.0971               598.1231               700.7446
 Red. masses --      2.8996                 2.6083                 4.2849
 Frc consts  --      0.5650                 0.5498                 1.2397
 IR Inten    --      6.9163                 4.0153                 3.4472

                     13                     14                     15
                      A                      A                      A
 Frequencies --    720.7474               798.4971               841.2846
 Red. masses --      1.8359                 2.4652                 3.4287
 Frc consts  --      0.5619                 0.9261                 1.4298
 IR Inten    --     18.5864                 9.7797                29.9833

                     16                     17                     18
                      A                      A                      A
 Frequencies --    886.9117               924.8695               943.0566
 Red. masses --      1.5036                 3.1938                 1.9437
 Frc consts  --      0.6969                 1.6096                 1.0185
 IR Inten    --      0.5585                 4.5982                 6.1233

                     19                     20                     21
                      A                      A                      A
 Frequencies --    986.8554              1001.4725              1022.2108
 Red. masses --      2.4337                 1.3241                 2.3214
 Frc consts  --      1.3965                 0.7825                 1.4292
 IR Inten    --      4.1323                 0.0813                15.3470

                     22                     23                     24
                      A                      A                      A
 Frequencies --   1068.3213              1097.0258              1112.8044
 Red. masses --      2.6641                 2.6567                 2.2345
 Frc consts  --      1.7915                 1.8838                 1.6303
 IR Inten    --     13.3108                24.8064                54.9794

                     25                     26                     27
                      A                      A                      A
 Frequencies --   1134.2691              1214.9500              1253.1575
 Red. masses --      1.9832                 1.2643                 1.4728
 Frc consts  --      1.5033                 1.0996                 1.3627
 IR Inten    --     99.9777                 3.0900                67.5935

                     28                     29                     30
                      A                      A                      A
 Frequencies --   1275.2988              1285.1581              1293.3626
 Red. masses --      1.2692                 1.1488                 1.3860
 Frc consts  --      1.2162                 1.1179                 1.3660
 IR Inten    --     31.2490                 2.7109                 6.9551

                     31                     32                     33
                      A                      A                      A
 Frequencies --   1321.5975              1362.6199              1385.8865
 Red. masses --      1.2563                 1.3032                 1.3882
 Frc consts  --      1.2929                 1.4257                 1.5709
 IR Inten    --     55.9859                 0.3488                18.9008

                     34                     35                     36
                      A                      A                      A
 Frequencies --   1415.9456              1421.3555              1469.5084
 Red. masses --      1.3965                 1.3151                 1.0892
 Frc consts  --      1.6496                 1.5654                 1.3858
 IR Inten    --      4.7922                 7.7247                 2.6645

                     37                     38                     39
                      A                      A                      A
 Frequencies --   1478.6255              1491.8880              1512.2373
 Red. masses --      1.1083                 1.1000                 1.0855
 Frc consts  --      1.4277                 1.4425                 1.4626
 IR Inten    --      7.3464                 6.7224                10.8743

                     40                     41                     42
                      A                      A                      A
 Frequencies --   1722.7041              1839.7255              3010.3711
 Red. masses --      6.7806                11.8149                 1.0683
 Frc consts  --     11.8560                23.5607                 5.7040
 IR Inten    --      6.1100               349.5723                19.6452

                     43                     44                     45
                      A                      A                      A
 Frequencies --   3027.3851              3036.8358              3067.9231
 Red. masses --      1.0637                 1.0647                 1.0609
 Frc consts  --      5.7437                 5.7851                 5.8830
 IR Inten    --     19.8622                22.2970                15.6572

                     46                     47                     48
                      A                      A                      A
 Frequencies --   3074.0231              3081.3209              3093.7636
 Red. masses --      1.0925                 1.0981                 1.1011
 Frc consts  --      6.0823                 6.1430                 6.2094
 IR Inten    --     29.1377                25.7111                32.7985

                     49                     50                     51
                      A                      A                      A
 Frequencies --   3128.7842              3151.5250              3178.9013
 Red. masses --      1.1007                 1.0852                 1.0957
 Frc consts  --      6.3487                 6.3501                 6.5239
 IR Inten    --      6.3941                 7.1096                20.6883

 - Thermochemistry -
 -------------------
 Temperature   298.150 Kelvin.  Pressure   1.00000 Atm.
 Atom     1 has atomic number  8 and mass  15.99491

 Molecular mass:   126.06808 amu.
 Principal axes and moments of inertia in atomic units:
                           1         2         3
     Eigenvalues --   728.564751166.549791690.34830
           X            0.99887   0.04593   0.01206
           Y           -0.04579   0.99889  -0.01134
           Z           -0.01257   0.01077   0.99986
 This molecule is an asymmetric top.
 Rotational symmetry number  1.
 Warning -- assumption of classical behavior for rotation
           may cause significant error
 Rotational temperatures (Kelvin)      0.11888     0.07425     0.05124
 Rotational constants (GHZ):           2.47712     1.54708     1.06767
 Zero-point vibrational energy     423135.4 (Joules/Mol)
                                  101.13178 (Kcal/Mol)
 Warning -- explicit consideration of  11 degrees of freedom as
           vibrations may cause significant error
 Vibrational temperatures:    130.37   222.35   282.16   370.34   407.10
          (Kelvin)            508.58   637.62   672.28   705.05   827.44
                              860.56  1008.21  1036.99  1148.86  1210.42
                             1276.07  1330.68  1356.85  1419.86  1440.89
                             1470.73  1537.07  1578.37  1601.08  1631.96
                             1748.04  1803.01  1834.87  1849.05  1860.86
                             1901.48  1960.50  1993.98  2037.23  2045.01
                             2114.29  2127.41  2146.49  2175.77  2478.58
                             2646.95  4331.25  4355.73  4369.32  4414.05
                             4422.83  4433.33  4451.23  4501.62  4534.34
                             4573.72

 Zero-point correction=                           0.161164 (Hartree/Particle)
 Thermal correction to Energy=                    0.169165
 Thermal correction to Enthalpy=                  0.170109
 Thermal correction to Gibbs Free Energy=         0.128614
 Sum of electronic and zero-point Energies=           -423.061723
 Sum of electronic and thermal Energies=              -423.053722
 Sum of electronic and thermal Enthalpies=            -423.052778
 Sum of electronic and thermal Free Energies=         -423.094273

                     E (Thermal)             CV                S
                      KCal/Mol        Cal/Mol-Kelvin    Cal/Mol-Kelvin
 Total                  106.153             31.066             87.335
 Electronic               0.000              0.000              0.000
 Translational            0.889              2.981             40.409
 Rotational               0.889              2.981             28.754
 Vibrational            104.375             25.105             18.173
 Vibration     1          0.602              1.956              3.647
 Vibration     2          0.620              1.898              2.616
 Vibration     3          0.636              1.845              2.169
 Vibration     4          0.667              1.750              1.679
 Vibration     5          0.682              1.705              1.516
 Vibration     6          0.730              1.568              1.151
 Vibration     7          0.803              1.376              0.817
 Vibration     8          0.825              1.323              0.745
 Vibration     9          0.846              1.272              0.684
 Vibration    10          0.931              1.085              0.495
 Vibration    11          0.956              1.036              0.453

 Optimization completed.
    -- Stationary point found.
 Normal termination of Gaussian 09 at Mon Jan 27 14:33:10 2020.
