 Gaussian 09, Revision D.01,
 Gaussian 09:  ES64L-G09RevD.01 24-Apr-2013

 -----------------------------
 # b3lyp 6-31G(2df,p) opt Freq
 -----------------------------

 -----
 titel
 -----
 Symbolic Z-matrix:
 Charge =  0 Multiplicity = 1

 SCF Done:  E(RB3LYP) =  -423.133623635     A.U. after   14 cycles
 Optimization completed.
    -- Stationary point found.
 Normal termination of Gaussian 09 at Tue Jan 28 08:11:55 2020.

 ----------------------------------------------------------------------
 #N Geom=AllCheck Guess=TCheck SCRF=Check GenChk RB3LYP/6-31G(2df,p) Fr
 eq
 ----------------------------------------------------------------------

 Structure from the checkpoint file:  "/scratch/puck/g09_42bf0f10-8ded-42ec-b4e2-694ddce9afd6/Gau-102029.chk"
 -----
 titel
 -----
 Charge =  0 Multiplicity = 1

                         Standard orientation:
 ---------------------------------------------------------------------
 Center     Atomic      Atomic             Coordinates (Angstroms)
 Number     Number       Type             X           Y           Z
 ---------------------------------------------------------------------
      1          8           0        4.257569    0.216574    0.228899
      2          6           0        3.286922   -0.448689   -0.569202
      3          6           0        1.909958   -0.194415   -0.147979
      4          6           0        0.789118    0.068377    0.212008
      5          6           0       -0.567774    0.354451    0.627076
      6          6           0       -1.590693   -0.823919    0.738690
      7          6           0       -2.675448    0.140518    0.191340
      8          8           0       -3.689653   -0.341320   -0.647701
      9          6           0       -1.547925    1.038202   -0.382084
     10          1           0        3.997761    1.142178    0.282006
     11          1           0        3.397454   -0.184691   -1.633654
     12          1           0        3.517560   -1.516858   -0.485785
     13          1           0       -0.554998    0.918077    1.566298
     14          1           0       -1.356299   -1.602354    0.005428
     15          1           0       -1.738809   -1.285387    1.716767
     16          1           0       -3.192314    0.646462    1.012855
     17          1           0       -3.274554   -0.795614   -1.388729
     18          1           0       -1.301977    0.746065   -1.408223
     19          1           0       -1.662100    2.122941   -0.335648
 ---------------------------------------------------------------------

 SCF Done:  E(RB3LYP) =  -423.133623635     A.U. after    1 cycles

 The electronic state is 1-A.
 Alpha  occ. eigenvalues --  -19.14163 -19.13881 -10.25022 -10.23806 -10.21661
 Alpha  occ. eigenvalues --  -10.18998 -10.18993 -10.17862 -10.17322  -1.02581
 Alpha  occ. eigenvalues --   -1.02038  -0.85354  -0.76440  -0.70587  -0.67118
 Alpha  occ. eigenvalues --   -0.65210  -0.59043  -0.53112  -0.51279  -0.49718
 Alpha  occ. eigenvalues --   -0.46909  -0.44243  -0.43030  -0.42183  -0.40714
 Alpha  occ. eigenvalues --   -0.39809  -0.35592  -0.35018  -0.34709  -0.31685
 Alpha  occ. eigenvalues --   -0.28379  -0.26807  -0.25677  -0.24621
 Alpha virt. eigenvalues --    0.03043   0.04810   0.07654   0.08683   0.10425
 Alpha virt. eigenvalues --    0.10735   0.13085   0.14423   0.15036   0.17207
 Alpha virt. eigenvalues --    0.17684   0.18431   0.19165   0.21217   0.23254

 Mulliken charges:
               1
     1  O   -0.402472
     2  C   -0.192124
     3  C    0.104688
     4  C    0.016358
     5  C   -0.163926
     6  C   -0.269340
     7  C    0.163584
     8  O   -0.430984
     9  C   -0.270837
    10  H    0.286343
    11  H    0.114694
    12  H    0.138155
    13  H    0.105822
    14  H    0.103938
    15  H    0.110677
    16  H    0.096492
    17  H    0.277555
    18  H    0.102813
    19  H    0.108563
 Sum of Mulliken charges =   0.00000

 Dipole moment (field-independent basis, Debye):
    X=             -0.3479    Y=              0.5469    Z=             -0.8150  Tot=              1.0413
 Quadrupole moment (field-independent basis, Debye-Ang):
   XX=            -68.7602   YY=            -49.3605   ZZ=            -50.0039
   XY=              2.3505   XZ=             -3.5565   YZ=              2.7045

  Exact polarizability: 114.640  -3.949  66.725  -6.317   2.406  65.799
 Approx polarizability: 152.731  -9.606  97.939 -12.709   6.668  99.227

                      1                      2                      3
                      A                      A                      A
 Frequencies --     16.9507                58.6989                99.1844
 Red. masses --      3.4019                 5.4256                 2.7864
 Frc consts  --      0.0006                 0.0110                 0.0162
 IR Inten    --      1.7044                 1.0418                 1.4390

                      4                      5                      6
                      A                      A                      A
 Frequencies --    128.2835               216.0662               258.1968
 Red. masses --      4.8990                 3.0020                 2.5596
 Frc consts  --      0.0475                 0.0826                 0.1005
 IR Inten    --      1.0719                 7.6573                24.9398

                      7                      8                      9
                      A                      A                      A
 Frequencies --    299.8764               327.2732               392.9991
 Red. masses --      1.1758                 1.4149                 3.2374
 Frc consts  --      0.0623                 0.0893                 0.2946
 IR Inten    --     32.4485               146.0229                24.5025

                     10                     11                     12
                      A                      A                      A
 Frequencies --    435.8544               466.6763               520.6732
 Red. masses --      3.7552                 2.8192                 4.4895
 Frc consts  --      0.4203                 0.3617                 0.7171
 IR Inten    --      2.5336                 1.2654                 3.2348

                     13                     14                     15
                      A                      A                      A
 Frequencies --    529.1049               589.3608               733.7277
 Red. masses --      3.2789                 3.8262                 3.1393
 Frc consts  --      0.5408                 0.7830                 0.9958
 IR Inten    --      5.7992                 7.4682                 7.7265

                     16                     17                     18
                      A                      A                      A
 Frequencies --    806.9552               872.8368               910.2245
 Red. masses --      1.2305                 3.0263                 2.3072
 Frc consts  --      0.4721                 1.3584                 1.1262
 IR Inten    --      1.9297                 3.3252                 0.9092

                     19                     20                     21
                      A                      A                      A
 Frequencies --    960.7213               990.5364              1010.6953
 Red. masses --      3.3628                 1.6053                 1.5081
 Frc consts  --      1.8287                 0.9280                 0.9076
 IR Inten    --     20.4300                21.2704                 1.1914

                     22                     23                     24
                      A                      A                      A
 Frequencies --   1046.7404              1047.8788              1075.1251
 Red. masses --      4.6470                 4.0997                 1.8169
 Frc consts  --      2.9999                 2.6523                 1.2374
 IR Inten    --     52.4383                31.9746                39.7847

                     25                     26                     27
                      A                      A                      A
 Frequencies --   1128.1242              1157.2290              1193.9726
 Red. masses --      2.8369                 1.4595                 2.2778
 Frc consts  --      2.1272                 1.1516                 1.9132
 IR Inten    --    110.0869                60.4041                10.1603

                     28                     29                     30
                      A                      A                      A
 Frequencies --   1212.4192              1214.8222              1235.1410
 Red. masses --      1.3153                 1.1100                 1.1566
 Frc consts  --      1.1392                 0.9652                 1.0396
 IR Inten    --      0.6004                11.5618                 0.2962

                     31                     32                     33
                      A                      A                      A
 Frequencies --   1257.4293              1284.9949              1337.4049
 Red. masses --      1.4681                 1.3275                 1.5232
 Frc consts  --      1.3676                 1.2915                 1.6052
 IR Inten    --     12.1250                 0.6801                 0.2259

                     34                     35                     36
                      A                      A                      A
 Frequencies --   1355.2983              1360.1106              1418.9447
 Red. masses --      1.2486                 1.5696                 1.2405
 Frc consts  --      1.3513                 1.7107                 1.4715
 IR Inten    --      3.6292                26.8026               127.2286

                     37                     38                     39
                      A                      A                      A
 Frequencies --   1441.3362              1470.7652              1493.8781
 Red. masses --      1.2491                 1.0921                 1.0796
 Frc consts  --      1.5289                 1.3919                 1.4195
 IR Inten    --     56.6351                 1.4786                 0.8163

                     40                     41                     42
                      A                      A                      A
 Frequencies --   1499.2803              2353.7476              2970.2330
 Red. masses --      1.1411                11.8920                 1.0718
 Frc consts  --      1.5113                38.8174                 5.5713
 IR Inten    --      6.4603                15.4651                52.8521

                     43                     44                     45
                      A                      A                      A
 Frequencies --   3044.6823              3052.8564              3057.7196
 Red. masses --      1.0822                 1.0590                 1.0736
 Frc consts  --      5.9108                 5.8154                 5.9141
 IR Inten    --      5.8165                30.4203                 9.9829

                     46                     47                     48
                      A                      A                      A
 Frequencies --   3057.9917              3067.6071              3119.5734
 Red. masses --      1.0824                 1.0790                 1.1066
 Frc consts  --      5.9637                 5.9824                 6.3450
 IR Inten    --     17.8657                23.0927                25.9329

                     49                     50                     51
                      A                      A                      A
 Frequencies --   3124.6795              3805.0019              3816.8588
 Red. masses --      1.1064                 1.0658                 1.0662
 Frc consts  --      6.3646                 9.0912                 9.1520
 IR Inten    --     41.3077                13.4571                19.5664

 - Thermochemistry -
 -------------------
 Temperature   298.150 Kelvin.  Pressure   1.00000 Atm.
 Atom     1 has atomic number  8 and mass  15.99491

 Molecular mass:   126.06808 amu.
 Principal axes and moments of inertia in atomic units:
                           1         2         3
     Eigenvalues --   294.550373383.829643399.07642
           X            0.99997  -0.00065  -0.00730
           Y            0.00166   0.99035   0.13855
           Z            0.00714  -0.13856   0.99033
 This molecule is an asymmetric top.
 Rotational symmetry number  1.
 Rotational temperatures (Kelvin)      0.29405     0.02560     0.02548
 Rotational constants (GHZ):           6.12711     0.53334     0.53095
 Zero-point vibrational energy     414666.0 (Joules/Mol)
                                   99.10755 (Kcal/Mol)
 Warning -- explicit consideration of  14 degrees of freedom as
           vibrations may cause significant error
 Vibrational temperatures:     24.39    84.45   142.70   184.57   310.87
          (Kelvin)            371.49   431.45   470.87   565.44   627.10
                              671.44   749.13   761.26   847.96  1055.67
                             1161.03  1255.82  1309.61  1382.26  1425.16
                             1454.16  1506.02  1507.66  1546.86  1623.12
                             1664.99  1717.86  1744.40  1747.86  1777.09
                             1809.16  1848.82  1924.22  1949.97  1956.89
                             2041.54  2073.76  2116.10  2149.35  2157.13
                             3386.51  4273.50  4380.61  4392.37  4399.37
                             4399.76  4413.60  4488.36  4495.71  5474.54
                             5491.60

 Zero-point correction=                           0.157938 (Hartree/Particle)
 Thermal correction to Energy=                    0.167831
 Thermal correction to Enthalpy=                  0.168775
 Thermal correction to Gibbs Free Energy=         0.121140
 Sum of electronic and zero-point Energies=           -422.975686
 Sum of electronic and thermal Energies=              -422.965793
 Sum of electronic and thermal Enthalpies=            -422.964848
 Sum of electronic and thermal Free Energies=         -423.012483

                     E (Thermal)             CV                S
                      KCal/Mol        Cal/Mol-Kelvin    Cal/Mol-Kelvin
 Total                  105.316             35.272            100.256
 Electronic               0.000              0.000              0.000
 Translational            0.889              2.981             40.409
 Rotational               0.889              2.981             29.606
 Vibrational            103.538             29.310             30.241
 Vibration     1          0.593              1.986              6.963
 Vibration     2          0.596              1.974              4.500
 Vibration     3          0.604              1.950              3.470
 Vibration     4          0.611              1.925              2.972
 Vibration     5          0.645              1.817              1.992
 Vibration     6          0.667              1.749              1.674
 Vibration     7          0.692              1.674              1.418
 Vibration     8          0.711              1.621              1.274
 Vibration     9          0.760              1.485              0.989
 Vibration    10          0.796              1.392              0.840
 Vibration    11          0.824              1.324              0.747
 Vibration    12          0.876              1.204              0.608
 Vibration    13          0.884              1.186              0.589
 Vibration    14          0.947              1.054              0.468

 Optimization completed.
    -- Stationary point found.
 Normal termination of Gaussian 09 at Tue Jan 28 08:45:54 2020.
