 Gaussian 09, Revision D.01,
 Gaussian 09:  ES64L-G09RevD.01 24-Apr-2013

 -----------------------------
 # b3lyp 6-31G(2df,p) opt Freq
 -----------------------------

 -----
 titel
 -----
 Symbolic Z-matrix:
 Charge =  0 Multiplicity = 1

 SCF Done:  E(RB3LYP) =  -423.177014813     A.U. after   14 cycles
 Optimization completed.
    -- Stationary point found.
 Normal termination of Gaussian 09 at Mon Jan 27 22:04:56 2020.

 ----------------------------------------------------------------------
 #N Geom=AllCheck Guess=TCheck SCRF=Check GenChk RB3LYP/6-31G(2df,p) Fr
 eq
 ----------------------------------------------------------------------

 Structure from the checkpoint file:  "/scratch/puck/g09_ef2ff587-e1eb-4d2f-a058-a5571f42c981/Gau-62985.chk"
 -----
 titel
 -----
 Charge =  0 Multiplicity = 1

                         Standard orientation:
 ---------------------------------------------------------------------
 Center     Atomic      Atomic             Coordinates (Angstroms)
 Number     Number       Type             X           Y           Z
 ---------------------------------------------------------------------
      1          6           0       -0.911034    1.710979    0.874955
      2          6           0       -0.021873    0.811079    0.053913
      3          6           0        1.393472    1.172546   -0.240351
      4          6           0        2.207240    0.111832   -0.255262
      5          6           0        1.481760   -1.172175    0.085177
      6          6           0        0.028556   -0.719144    0.193564
      7          8           0       -0.850525   -1.427999    1.021278
      8          6           0       -0.642297   -0.116500   -1.009557
      9          8           0       -2.024101   -0.235729   -1.078547
     10          1           0       -0.591220    1.764789    1.922554
     11          1           0       -0.894619    2.731690    0.477218
     12          1           0       -1.947129    1.366059    0.839874
     13          1           0        1.694756    2.194924   -0.444208
     14          1           0        3.266980    0.138593   -0.480247
     15          1           0        1.613485   -1.951008   -0.675788
     16          1           0        1.831898   -1.604666    1.034581
     17          1           0       -0.759169   -1.106395    1.924519
     18          1           0       -0.156226   -0.167068   -1.981479
     19          1           0       -2.276700   -0.848801   -0.373512
 ---------------------------------------------------------------------

 SCF Done:  E(RB3LYP) =  -423.177014813     A.U. after    1 cycles

 The electronic state is 1-A.
 Alpha  occ. eigenvalues --  -19.16319 -19.13607 -10.23672 -10.22881 -10.19046
 Alpha  occ. eigenvalues --  -10.18890 -10.18183 -10.18089 -10.17839  -1.05292
 Alpha  occ. eigenvalues --   -1.01567  -0.87381  -0.76388  -0.72540  -0.68421
 Alpha  occ. eigenvalues --   -0.59993  -0.57800  -0.55514  -0.50264  -0.49527
 Alpha  occ. eigenvalues --   -0.46088  -0.43625  -0.42351  -0.41378  -0.40195
 Alpha  occ. eigenvalues --   -0.38349  -0.38107  -0.37065  -0.34627  -0.33628
 Alpha  occ. eigenvalues --   -0.30433  -0.27320  -0.25770  -0.21507
 Alpha virt. eigenvalues --    0.01710   0.05529   0.11198   0.11942   0.13082
 Alpha virt. eigenvalues --    0.13496   0.13993   0.15510   0.16734   0.17857
 Alpha virt. eigenvalues --    0.18365   0.19928   0.21010   0.21663   0.22636

 Mulliken charges:
               1
     1  C   -0.495757
     2  C    0.176592
     3  C   -0.130795
     4  C   -0.088667
     5  C   -0.337161
     6  C    0.280383
     7  O   -0.479268
     8  C    0.061607
     9  O   -0.437652
    10  H    0.106341
    11  H    0.124533
    12  H    0.128611
    13  H    0.094160
    14  H    0.095992
    15  H    0.116241
    16  H    0.100445
    17  H    0.293764
    18  H    0.096172
    19  H    0.294460
 Sum of Mulliken charges =   0.00000

 Dipole moment (field-independent basis, Debye):
    X=              1.3062    Y=              0.0766    Z=              1.8439  Tot=              2.2610
 Quadrupole moment (field-independent basis, Debye-Ang):
   XX=            -54.2767   YY=            -53.2646   ZZ=            -51.3779
   XY=             -0.1104   XZ=             -4.0642   YZ=             -0.4096

  Exact polarizability:  85.453  -4.307  79.479  -1.879  -0.175  64.421
 Approx polarizability: 123.269  -8.486 122.463   0.974  -2.315  99.085

                      1                      2                      3
                      A                      A                      A
 Frequencies --    128.0691               168.4412               213.0954
 Red. masses --      1.0433                 2.9577                 2.6730
 Frc consts  --      0.0101                 0.0494                 0.0715
 IR Inten    --      0.7928                 3.8369                 3.2042

                      4                      5                      6
                      A                      A                      A
 Frequencies --    226.0366               261.4127               265.9352
 Red. masses --      3.3404                 2.0733                 1.6912
 Frc consts  --      0.1006                 0.0835                 0.0705
 IR Inten    --      3.1293                17.9658                24.6383

                      7                      8                      9
                      A                      A                      A
 Frequencies --    310.0141               412.0801               436.9075
 Red. masses --      3.4740                 3.4898                 1.5158
 Frc consts  --      0.1967                 0.3491                 0.1705
 IR Inten    --     22.6641                 1.0088                43.8420

                     10                     11                     12
                      A                      A                      A
 Frequencies --    467.7696               504.0205               537.1043
 Red. masses --      1.5946                 2.5370                 4.8048
 Frc consts  --      0.2056                 0.3797                 0.8167
 IR Inten    --     42.0076                12.7596                 1.8250

                     13                     14                     15
                      A                      A                      A
 Frequencies --    641.0828               696.1716               726.3763
 Red. masses --      3.7973                 3.5086                 2.5110
 Frc consts  --      0.9195                 1.0019                 0.7806
 IR Inten    --     11.0046                14.3578                26.9391

                     16                     17                     18
                      A                      A                      A
 Frequencies --    754.2235               787.5850               899.0933
 Red. masses --      1.8333                 4.7705                 3.4488
 Frc consts  --      0.6144                 1.7435                 1.6426
 IR Inten    --     17.1810                 3.9635                13.5572

                     19                     20                     21
                      A                      A                      A
 Frequencies --    939.6392               954.5249               961.3720
 Red. masses --      1.7875                 2.1221                 1.2927
 Frc consts  --      0.9299                 1.1392                 0.7039
 IR Inten    --     14.6766                 4.5562                 0.3417

                     22                     23                     24
                      A                      A                      A
 Frequencies --    994.5678              1053.1724              1072.8255
 Red. masses --      1.8919                 1.3876                 1.6144
 Frc consts  --      1.1026                 0.9068                 1.0947
 IR Inten    --      2.8799                28.8765                12.5421

                     25                     26                     27
                      A                      A                      A
 Frequencies --   1104.1844              1139.9550              1157.4842
 Red. masses --      1.7496                 1.9293                 1.2943
 Frc consts  --      1.2568                 1.4771                 1.0217
 IR Inten    --      3.1530                56.4896                17.7973

                     28                     29                     30
                      A                      A                      A
 Frequencies --   1179.6601              1216.9159              1235.5400
 Red. masses --      1.9497                 2.3406                 2.0029
 Frc consts  --      1.5986                 2.0422                 1.8015
 IR Inten    --     57.2090                15.3093                28.4963

                     31                     32                     33
                      A                      A                      A
 Frequencies --   1287.8843              1303.6538              1330.1940
 Red. masses --      1.4350                 1.9965                 2.0767
 Frc consts  --      1.4024                 1.9992                 2.1650
 IR Inten    --     53.5333                 4.9776                14.0654

                     34                     35                     36
                      A                      A                      A
 Frequencies --   1381.5587              1394.3054              1412.1441
 Red. masses --      1.7786                 1.7889                 1.3220
 Frc consts  --      2.0002                 2.0490                 1.5532
 IR Inten    --      4.7035                17.3444                 7.0353

                     37                     38                     39
                      A                      A                      A
 Frequencies --   1438.5275              1481.3187              1490.8084
 Red. masses --      1.8633                 1.1156                 1.0576
 Frc consts  --      2.2718                 1.4424                 1.3848
 IR Inten    --     64.0269                 3.2856                 3.3360

                     40                     41                     42
                      A                      A                      A
 Frequencies --   1500.1407              1664.2028              2997.5472
 Red. masses --      1.0639                 6.3219                 1.0683
 Frc consts  --      1.4106                10.3159                 5.6555
 IR Inten    --     11.7072                 1.8301                46.2299

                     43                     44                     45
                      A                      A                      A
 Frequencies --   3024.7613              3047.3189              3080.0631
 Red. masses --      1.0395                 1.0924                 1.0989
 Frc consts  --      5.6033                 5.9768                 6.1422
 IR Inten    --     40.2328                20.9602                22.0836

                     46                     47                     48
                      A                      A                      A
 Frequencies --   3121.1795              3129.0292              3179.0246
 Red. masses --      1.0975                 1.0898                 1.0862
 Frc consts  --      6.2995                 6.2865                 6.4674
 IR Inten    --      8.4986                21.2520                 7.7788

                     49                     50                     51
                      A                      A                      A
 Frequencies --   3208.4163              3734.1202              3803.2628
 Red. masses --      1.1015                 1.0650                 1.0666
 Frc consts  --      6.6806                 8.7495                 9.0900
 IR Inten    --     20.3695                56.3945                26.5974

 - Thermochemistry -
 -------------------
 Temperature   298.150 Kelvin.  Pressure   1.00000 Atm.
 Atom     1 has atomic number  6 and mass  12.00000

 Molecular mass:   126.06808 amu.
 Principal axes and moments of inertia in atomic units:
                           1         2         3
     Eigenvalues --   766.186671085.266781330.93405
           X            0.99792  -0.05545  -0.03278
           Y            0.05692   0.99733   0.04582
           Z            0.03015  -0.04759   0.99841
 This molecule is an asymmetric top.
 Rotational symmetry number  1.
 Warning -- assumption of classical behavior for rotation
           may cause significant error
 Rotational temperatures (Kelvin)      0.11305     0.07981     0.06508
 Rotational constants (GHZ):           2.35549     1.66295     1.35600
 Zero-point vibrational energy     415431.5 (Joules/Mol)
                                   99.29051 (Kcal/Mol)
 Warning -- explicit consideration of  12 degrees of freedom as
           vibrations may cause significant error
 Vibrational temperatures:    184.26   242.35   306.60   325.22   376.11
          (Kelvin)            382.62   446.04   592.89   628.61   673.02
                              725.17   772.77   922.37  1001.63  1045.09
                             1085.16  1133.16  1293.59  1351.93  1373.35
                             1383.20  1430.96  1515.28  1543.55  1588.67
                             1640.14  1665.36  1697.27  1750.87  1777.66
                             1852.98  1875.66  1913.85  1987.75  2006.09
                             2031.76  2069.72  2131.28  2144.94  2158.37
                             2394.41  4312.80  4351.95  4384.41  4431.52
                             4490.68  4501.97  4573.90  4616.19  5372.56
                             5472.04

 Zero-point correction=                           0.158229 (Hartree/Particle)
 Thermal correction to Energy=                    0.167008
 Thermal correction to Enthalpy=                  0.167952
 Thermal correction to Gibbs Free Energy=         0.125548
 Sum of electronic and zero-point Energies=           -423.018785
 Sum of electronic and thermal Energies=              -423.010007
 Sum of electronic and thermal Enthalpies=            -423.009062
 Sum of electronic and thermal Free Energies=         -423.051467

                     E (Thermal)             CV                S
                      KCal/Mol        Cal/Mol-Kelvin    Cal/Mol-Kelvin
 Total                  104.799             34.339             89.248
 Electronic               0.000              0.000              0.000
 Translational            0.889              2.981             40.409
 Rotational               0.889              2.981             28.494
 Vibrational            103.022             28.378             20.345
 Vibration     1          0.611              1.925              2.975
 Vibration     2          0.625              1.881              2.453
 Vibration     3          0.644              1.821              2.017
 Vibration     4          0.650              1.801              1.910
 Vibration     5          0.669              1.743              1.652
 Vibration     6          0.672              1.736              1.622
 Vibration     7          0.699              1.655              1.362
 Vibration     8          0.776              1.444              0.919
 Vibration     9          0.797              1.390              0.836
 Vibration    10          0.825              1.322              0.744
 Vibration    11          0.859              1.241              0.648
 Vibration    12          0.892              1.168              0.572

 Optimization completed.
    -- Stationary point found.
 Normal termination of Gaussian 09 at Mon Jan 27 22:51:33 2020.
