 Gaussian 09, Revision D.01,
 Gaussian 09:  ES64L-G09RevD.01 24-Apr-2013

 -----------------------------
 # b3lyp 6-31G(2df,p) opt Freq
 -----------------------------

 -----
 titel
 -----
 Symbolic Z-matrix:
 Charge =  0 Multiplicity = 1

 SCF Done:  E(RB3LYP) =  -423.154300055     A.U. after   14 cycles
 SCF Done:  E(RB3LYP) =  -423.154300035     A.U. after    6 cycles
 SCF Done:  E(RB3LYP) =  -423.154300072     A.U. after    6 cycles
 Optimization completed.
    -- Stationary point found.
 Normal termination of Gaussian 09 at Tue Jan 28 08:22:36 2020.

 ----------------------------------------------------------------------
 #N Geom=AllCheck Guess=TCheck SCRF=Check GenChk RB3LYP/6-31G(2df,p) Fr
 eq
 ----------------------------------------------------------------------

 Structure from the checkpoint file:  "/scratch/puck/g09_8ab7e2ed-b4b8-473c-81a7-f81d4fea0078/Gau-14336.chk"
 -----
 titel
 -----
 Charge =  0 Multiplicity = 1

                         Standard orientation:
 ---------------------------------------------------------------------
 Center     Atomic      Atomic             Coordinates (Angstroms)
 Number     Number       Type             X           Y           Z
 ---------------------------------------------------------------------
      1          6           0        0.526692    1.954296    0.499325
      2          6           0        0.365973    0.474670    0.161785
      3          8           0       -0.139796   -0.201433    1.323797
      4          6           0       -0.610927   -1.488222    0.903258
      5          6           0       -1.014673   -1.339963   -0.587059
      6          6           0       -0.743360    0.148480   -0.884420
      7          8           0       -1.889176    0.953282   -0.683615
      8          6           0        1.651523   -0.101476   -0.267159
      9          6           0        2.692735   -0.580516   -0.630987
     10          1           0       -0.438238    2.386746    0.766051
     11          1           0        1.219712    2.068782    1.335636
     12          1           0        0.926194    2.493903   -0.362843
     13          1           0        0.180979   -2.236663    1.027557
     14          1           0       -1.443405   -1.755860    1.559433
     15          1           0       -0.403664   -1.982139   -1.224670
     16          1           0       -2.065025   -1.570755   -0.774621
     17          1           0       -0.416625    0.331911   -1.909218
     18          1           0       -2.153853    0.843097    0.237959
     19          1           0        3.617924   -0.997418   -0.945195
 ---------------------------------------------------------------------

 SCF Done:  E(RB3LYP) =  -423.154300072     A.U. after    1 cycles

 The electronic state is 1-A.
 Alpha  occ. eigenvalues --  -19.14695 -19.14142 -10.25892 -10.23848 -10.23060
 Alpha  occ. eigenvalues --  -10.18577 -10.18399 -10.18046 -10.17874  -1.05123
 Alpha  occ. eigenvalues --   -1.01708  -0.79814  -0.77085  -0.73235  -0.67865
 Alpha  occ. eigenvalues --   -0.60903  -0.60447  -0.53852  -0.51274  -0.49665
 Alpha  occ. eigenvalues --   -0.47765  -0.46255  -0.43195  -0.40591  -0.39360
 Alpha  occ. eigenvalues --   -0.38457  -0.36709  -0.35765  -0.33651  -0.32468
 Alpha  occ. eigenvalues --   -0.29866  -0.27819  -0.26716  -0.25346
 Alpha virt. eigenvalues --    0.03707   0.04536   0.07610   0.10868   0.11849
 Alpha virt. eigenvalues --    0.12203   0.12523   0.14775   0.15555   0.16164
 Alpha virt. eigenvalues --    0.16856   0.19120   0.20636   0.21433   0.22356

 Mulliken charges:
               1
     1  C   -0.432330
     2  C    0.092126
     3  O   -0.283531
     4  C   -0.088106
     5  C   -0.281433
     6  C    0.135871
     7  O   -0.436967
     8  C    0.357594
     9  C   -0.483756
    10  H    0.122145
    11  H    0.133537
    12  H    0.129151
    13  H    0.110419
    14  H    0.109747
    15  H    0.120362
    16  H    0.114395
    17  H    0.097238
    18  H    0.284719
    19  H    0.198818
 Sum of Mulliken charges =   0.00000

 Dipole moment (field-independent basis, Debye):
    X=              0.2377    Y=             -1.1618    Z=             -0.2092  Tot=              1.2042
 Quadrupole moment (field-independent basis, Debye-Ang):
   XX=            -50.2475   YY=            -51.3124   ZZ=            -55.2454
   XY=              0.9741   XZ=             -4.7005   YZ=              1.7361

  Exact polarizability:  89.123  -4.173  75.210  -6.867   1.951  64.256
 Approx polarizability: 132.627 -14.653 104.395 -14.543   4.459  99.419

                      1                      2                      3
                      A                      A                      A
 Frequencies --    104.1545               123.3226               140.5544
 Red. masses --      2.8405                 2.5762                 3.7221
 Frc consts  --      0.0182                 0.0231                 0.0433
 IR Inten    --      2.6052                 1.7044                 0.0698

                      4                      5                      6
                      A                      A                      A
 Frequencies --    184.5237               218.5826               278.0137
 Red. masses --      1.1112                 3.1896                 3.2297
 Frc consts  --      0.0223                 0.0898                 0.1471
 IR Inten    --      0.3502                10.1284                 4.2390

                      7                      8                      9
                      A                      A                      A
 Frequencies --    333.1766               387.8365               411.3064
 Red. masses --      2.7839                 2.0401                 1.7858
 Frc consts  --      0.1821                 0.1808                 0.1780
 IR Inten    --      9.1786                13.0331                42.2240

                     10                     11                     12
                      A                      A                      A
 Frequencies --    468.6528               510.0923               560.0229
 Red. masses --      2.7258                 4.6292                 6.1951
 Frc consts  --      0.3527                 0.7097                 1.1447
 IR Inten    --     42.7501                 4.1199                 7.7322

                     13                     14                     15
                      A                      A                      A
 Frequencies --    631.8785               635.5519               666.0697
 Red. masses --      2.4970                 1.5834                 1.2671
 Frc consts  --      0.5874                 0.3768                 0.3312
 IR Inten    --     12.1397                32.9825                34.3419

                     16                     17                     18
                      A                      A                      A
 Frequencies --    730.3046               801.0057               821.5088
 Red. masses --      4.3105                 1.5332                 4.5962
 Frc consts  --      1.3545                 0.5796                 1.8276
 IR Inten    --      7.5409                 3.6548                17.5446

                     19                     20                     21
                      A                      A                      A
 Frequencies --    877.5518               905.3061               907.3425
 Red. masses --      2.1363                 2.0413                 2.3005
 Frc consts  --      0.9693                 0.9857                 1.1159
 IR Inten    --     11.7903                 9.3429                 5.5067

                     22                     23                     24
                      A                      A                      A
 Frequencies --    980.6815              1032.2589              1044.3450
 Red. masses --      2.5175                 3.6324                 2.1876
 Frc consts  --      1.4265                 2.2805                 1.4058
 IR Inten    --      9.7726                21.8558                59.5438

                     25                     26                     27
                      A                      A                      A
 Frequencies --   1102.1950              1134.6510              1176.2332
 Red. masses --      2.5605                 2.6559                 2.0097
 Frc consts  --      1.8327                 2.0146                 1.6382
 IR Inten    --    102.1227                87.9286                 4.2472

                     28                     29                     30
                      A                      A                      A
 Frequencies --   1200.4413              1222.5193              1239.6169
 Red. masses --      2.3240                 1.4007                 1.3576
 Frc consts  --      1.9732                 1.2334                 1.2291
 IR Inten    --     21.6678                 9.7616                 3.3385

                     31                     32                     33
                      A                      A                      A
 Frequencies --   1264.7811              1297.0129              1318.2009
 Red. masses --      1.5136                 1.5574                 1.4120
 Frc consts  --      1.4266                 1.5436                 1.4456
 IR Inten    --      6.8873                 9.1265                 7.0663

                     34                     35                     36
                      A                      A                      A
 Frequencies --   1381.7719              1405.6115              1428.3188
 Red. masses --      1.3223                 1.2515                 1.2226
 Frc consts  --      1.4875                 1.4569                 1.4696
 IR Inten    --      3.5919                 9.1248                47.3748

                     37                     38                     39
                      A                      A                      A
 Frequencies --   1480.8139              1482.7248              1484.6285
 Red. masses --      1.0637                 1.0732                 1.0516
 Frc consts  --      1.3743                 1.3901                 1.3657
 IR Inten    --      6.8635                 5.6628                 2.1015

                     40                     41                     42
                      A                      A                      A
 Frequencies --   1522.4009              2225.3623              3029.1475
 Red. masses --      1.0896                 5.9040                 1.0650
 Frc consts  --      1.4880                17.2265                 5.7578
 IR Inten    --      1.0083                 0.5761                50.9888

                     43                     44                     45
                      A                      A                      A
 Frequencies --   3061.0857              3077.8697              3086.8629
 Red. masses --      1.0345                 1.0605                 1.1007
 Frc consts  --      5.7111                 5.9194                 6.1795
 IR Inten    --     11.4136                14.8784                24.6189

                     46                     47                     48
                      A                      A                      A
 Frequencies --   3109.8907              3129.4276              3136.2522
 Red. masses --      1.0878                 1.1061                 1.1022
 Frc consts  --      6.1988                 6.3824                 6.3876
 IR Inten    --     14.1562                23.1439                11.7778

                     49                     50                     51
                      A                      A                      A
 Frequencies --   3151.7822              3498.7322              3785.0938
 Red. masses --      1.1020                 1.1620                 1.0654
 Frc consts  --      6.4499                 8.3805                 8.9932
 IR Inten    --     13.1710                64.2681                19.6412

 - Thermochemistry -
 -------------------
 Temperature   298.150 Kelvin.  Pressure   1.00000 Atm.
 Atom     1 has atomic number  6 and mass  12.00000

 Molecular mass:   126.06808 amu.
 Principal axes and moments of inertia in atomic units:
                           1         2         3
     Eigenvalues --   818.856341119.134461363.73520
           X            0.99852   0.05286  -0.01281
           Y           -0.05231   0.99784   0.03964
           Z            0.01488  -0.03891   0.99913
 This molecule is an asymmetric top.
 Rotational symmetry number  1.
 Warning -- assumption of classical behavior for rotation
           may cause significant error
 Rotational temperatures (Kelvin)      0.10577     0.07739     0.06351
 Rotational constants (GHZ):           2.20398     1.61262     1.32338
 Zero-point vibrational energy     413833.0 (Joules/Mol)
                                   98.90846 (Kcal/Mol)
 Warning -- explicit consideration of  12 degrees of freedom as
           vibrations may cause significant error
 Vibrational temperatures:    149.85   177.43   202.23   265.49   314.49
          (Kelvin)            400.00   479.37   558.01   591.78   674.29
                              733.91   805.75   909.13   914.42   958.32
                             1050.74  1152.47  1181.97  1262.60  1302.53
                             1305.46  1410.98  1485.19  1502.58  1585.81
                             1632.51  1692.34  1727.17  1758.93  1783.53
                             1819.74  1866.11  1896.59  1988.06  2022.36
                             2055.03  2130.56  2133.31  2136.05  2190.39
                             3201.80  4358.26  4404.21  4428.36  4441.30
                             4474.43  4502.54  4512.36  4534.71  5033.89
                             5445.90

 Zero-point correction=                           0.157621 (Hartree/Particle)
 Thermal correction to Energy=                    0.166864
 Thermal correction to Enthalpy=                  0.167809
 Thermal correction to Gibbs Free Energy=         0.124062
 Sum of electronic and zero-point Energies=           -422.996679
 Sum of electronic and thermal Energies=              -422.987436
 Sum of electronic and thermal Enthalpies=            -422.986492
 Sum of electronic and thermal Free Energies=         -423.030238

                     E (Thermal)             CV                S
                      KCal/Mol        Cal/Mol-Kelvin    Cal/Mol-Kelvin
 Total                  104.709             35.205             92.072
 Electronic               0.000              0.000              0.000
 Translational            0.889              2.981             40.409
 Rotational               0.889              2.981             28.615
 Vibrational            102.932             29.243             23.049
 Vibration     1          0.605              1.946              3.375
 Vibration     2          0.610              1.930              3.048
 Vibration     3          0.615              1.913              2.796
 Vibration     4          0.631              1.861              2.282
 Vibration     5          0.646              1.813              1.971
 Vibration     6          0.679              1.714              1.546
 Vibration     7          0.715              1.609              1.245
 Vibration     8          0.756              1.496              1.008
 Vibration     9          0.775              1.446              0.922
 Vibration    10          0.826              1.320              0.741
 Vibration    11          0.865              1.228              0.633
 Vibration    12          0.916              1.118              0.524

 Optimization completed.
    -- Stationary point found.
 Normal termination of Gaussian 09 at Tue Jan 28 09:06:21 2020.
