 Gaussian 09, Revision D.01,
 Gaussian 09:  ES64L-G09RevD.01 24-Apr-2013

 -----------------------------
 # b3lyp 6-31G(2df,p) opt Freq
 -----------------------------

 -----
 titel
 -----
 Symbolic Z-matrix:
 Charge =  0 Multiplicity = 1

 SCF Done:  E(RB3LYP) =  -423.158129675     A.U. after   14 cycles
 Optimization completed.
    -- Stationary point found.
 Normal termination of Gaussian 09 at Mon Jan 27 16:02:31 2020.

 ----------------------------------------------------------------------
 #N Geom=AllCheck Guess=TCheck SCRF=Check GenChk RB3LYP/6-31G(2df,p) Fr
 eq
 ----------------------------------------------------------------------

 Structure from the checkpoint file:  "/scratch/puck/g09_cc4417c1-e9be-4bbe-ac79-2b80f65606fb/Gau-35577.chk"
 -----
 titel
 -----
 Charge =  0 Multiplicity = 1

                         Standard orientation:
 ---------------------------------------------------------------------
 Center     Atomic      Atomic             Coordinates (Angstroms)
 Number     Number       Type             X           Y           Z
 ---------------------------------------------------------------------
      1          6           0       -2.347518    0.316963    0.317957
      2          6           0       -0.951689   -0.125721   -0.111166
      3          8           0       -0.983085   -1.408444   -0.707088
      4          6           0       -0.171714    0.988782   -0.821145
      5          6           0        1.324189    0.768179   -0.687251
      6          6           0        1.827884   -0.623014   -0.315899
      7          8           0        1.159025   -0.948605    0.909188
      8          6           0        0.096814   -0.031212    1.058105
      9          6           0        0.561696    1.324037    0.475795
     10          1           0       -2.802218   -0.448220    0.954433
     11          1           0       -2.319645    1.261943    0.868162
     12          1           0       -2.994905    0.464573   -0.555896
     13          1           0       -1.653661   -1.400031   -1.398529
     14          1           0       -0.576997    1.675396   -1.557657
     15          1           0        1.961675    1.424651   -1.267965
     16          1           0        1.590466   -1.373041   -1.077255
     17          1           0        2.909205   -0.622586   -0.133069
     18          1           0       -0.289632   -0.100433    2.074847
     19          1           0        0.730218    2.266073    0.977755
 ---------------------------------------------------------------------

 SCF Done:  E(RB3LYP) =  -423.158129675     A.U. after    1 cycles

 The electronic state is 1-A.
 Alpha  occ. eigenvalues --  -19.13184 -19.12781 -10.23520 -10.22788 -10.21664
 Alpha  occ. eigenvalues --  -10.19459 -10.19121 -10.18973 -10.17914  -1.03890
 Alpha  occ. eigenvalues --   -1.00952  -0.88450  -0.76161  -0.71086  -0.63465
 Alpha  occ. eigenvalues --   -0.62724  -0.57718  -0.53777  -0.52535  -0.47954
 Alpha  occ. eigenvalues --   -0.46460  -0.43848  -0.42770  -0.41822  -0.39779
 Alpha  occ. eigenvalues --   -0.38538  -0.37958  -0.34651  -0.34066  -0.30793
 Alpha  occ. eigenvalues --   -0.29036  -0.27695  -0.25499  -0.23252
 Alpha virt. eigenvalues --    0.07330   0.09504   0.11492   0.12202   0.14005
 Alpha virt. eigenvalues --    0.14338   0.14671   0.15742   0.16099   0.17353
 Alpha virt. eigenvalues --    0.17481   0.17882   0.19207   0.21380   0.22660

 Mulliken charges:
               1
     1  C   -0.455583
     2  C    0.400918
     3  O   -0.468493
     4  C   -0.138679
     5  C   -0.099376
     6  C   -0.093789
     7  O   -0.255199
     8  C    0.029267
     9  C   -0.087330
    10  H    0.126468
    11  H    0.123055
    12  H    0.105225
    13  H    0.273305
    14  H    0.074767
    15  H    0.091667
    16  H    0.111421
    17  H    0.096275
    18  H    0.076425
    19  H    0.089657
 Sum of Mulliken charges =   0.00000

 Dipole moment (field-independent basis, Debye):
    X=             -1.1687    Y=              2.1810    Z=             -1.3542  Tot=              2.8208
 Quadrupole moment (field-independent basis, Debye-Ang):
   XX=            -49.2788   YY=            -55.2910   ZZ=            -50.8752
   XY=              1.9877   XZ=             -0.3952   YZ=              1.9352

  Exact polarizability:  83.707  -0.353  69.342  -1.472   1.221  68.579
 Approx polarizability: 111.727  -1.303 105.277   0.760   2.034 108.689

                      1                      2                      3
                      A                      A                      A
 Frequencies --    179.4130               214.9937               222.4286
 Red. masses --      3.2538                 1.2072                 2.4487
 Frc consts  --      0.0617                 0.0329                 0.0714
 IR Inten    --      1.5267                71.8888                21.4620

                      4                      5                      6
                      A                      A                      A
 Frequencies --    245.3175               287.8581               334.5819
 Red. masses --      1.0846                 3.0021                 3.0252
 Frc consts  --      0.0385                 0.1466                 0.1995
 IR Inten    --      1.1938                 2.0909                 1.1512

                      7                      8                      9
                      A                      A                      A
 Frequencies --    374.0399               519.6392               551.5472
 Red. masses --      3.1962                 3.1975                 3.7980
 Frc consts  --      0.2635                 0.5087                 0.6807
 IR Inten    --      5.5618                 9.1829                11.8195

                     10                     11                     12
                      A                      A                      A
 Frequencies --    605.3172               713.6738               761.1830
 Red. masses --      4.5496                 5.1725                 5.2265
 Frc consts  --      0.9822                 1.5522                 1.7842
 IR Inten    --      1.8664                 1.8498                 5.8859

                     13                     14                     15
                      A                      A                      A
 Frequencies --    781.5830               809.6515               842.3334
 Red. masses --      2.3578                 1.8328                 2.0769
 Frc consts  --      0.8486                 0.7079                 0.8682
 IR Inten    --      8.8721                18.0968                 2.7615

                     16                     17                     18
                      A                      A                      A
 Frequencies --    879.5026               919.5926               935.1628
 Red. masses --      1.9116                 1.6963                 2.2229
 Frc consts  --      0.8712                 0.8452                 1.1454
 IR Inten    --      2.1172                 4.8281                 7.3139

                     19                     20                     21
                      A                      A                      A
 Frequencies --    953.5068               978.4139              1003.6569
 Red. masses --      2.4939                 2.0361                 2.1217
 Frc consts  --      1.3359                 1.1484                 1.2592
 IR Inten    --     20.9084                28.8181                 0.5873

                     22                     23                     24
                      A                      A                      A
 Frequencies --   1036.8122              1046.0408              1061.7404
 Red. masses --      1.7781                 1.7430                 1.7212
 Frc consts  --      1.1262                 1.1237                 1.1432
 IR Inten    --      2.2789                 0.6610                37.6634

                     25                     26                     27
                      A                      A                      A
 Frequencies --   1084.1069              1107.3349              1126.5296
 Red. masses --      2.2867                 1.8910                 1.9894
 Frc consts  --      1.5835                 1.3661                 1.4875
 IR Inten    --     48.1085                39.7038                45.4827

                     28                     29                     30
                      A                      A                      A
 Frequencies --   1159.7847              1203.1059              1210.7313
 Red. masses --      2.8494                 1.5766                 2.5752
 Frc consts  --      2.2582                 1.3446                 2.2241
 IR Inten    --      4.8380                18.2445                72.6820

                     31                     32                     33
                      A                      A                      A
 Frequencies --   1228.5563              1252.3780              1303.5629
 Red. masses --      1.1636                 1.8885                 1.5380
 Frc consts  --      1.0347                 1.7452                 1.5398
 IR Inten    --      3.7346                 5.3282                18.1827

                     34                     35                     36
                      A                      A                      A
 Frequencies --   1318.5049              1359.1168              1386.1212
 Red. masses --      1.4066                 1.9472                 1.9740
 Frc consts  --      1.4407                 2.1192                 2.2346
 IR Inten    --     20.8540                 3.2683                 5.1100

                     37                     38                     39
                      A                      A                      A
 Frequencies --   1402.6241              1404.6646              1491.8374
 Red. masses --      1.3228                 1.6882                 1.0593
 Frc consts  --      1.5333                 1.9625                 1.3890
 IR Inten    --      8.7684                 1.3387                 5.4989

                     40                     41                     42
                      A                      A                      A
 Frequencies --   1494.4486              1513.3680              3022.5328
 Red. masses --      1.0621                 1.0921                 1.0396
 Frc consts  --      1.3976                 1.4737                 5.5955
 IR Inten    --      1.5377                 0.0888                34.2591

                     43                     44                     45
                      A                      A                      A
 Frequencies --   3027.8693              3074.0192              3089.7397
 Red. masses --      1.0591                 1.1056                 1.0955
 Frc consts  --      5.7206                 6.1556                 6.1619
 IR Inten    --     67.7118                27.3509                18.9426

                     46                     47                     48
                      A                      A                      A
 Frequencies --   3116.8687              3120.8197              3158.5867
 Red. masses --      1.1016                 1.0909                 1.0909
 Frc consts  --      6.3053                 6.2602                 6.4126
 IR Inten    --     22.4090                28.2024                20.0815

                     49                     50                     51
                      A                      A                      A
 Frequencies --   3186.3292              3216.1255              3805.0690
 Red. masses --      1.0900                 1.0972                 1.0660
 Frc consts  --      6.5204                 6.6865                 9.0937
 IR Inten    --     12.1347                10.0941                15.3795

 - Thermochemistry -
 -------------------
 Temperature   298.150 Kelvin.  Pressure   1.00000 Atm.
 Atom     1 has atomic number  6 and mass  12.00000

 Molecular mass:   126.06808 amu.
 Principal axes and moments of inertia in atomic units:
                           1         2         3
     Eigenvalues --   629.846051030.028671174.06435
           X            0.99956  -0.01021  -0.02797
           Y            0.01126   0.99923   0.03765
           Z            0.02756  -0.03795   0.99890
 This molecule is an asymmetric top.
 Rotational symmetry number  1.
 Warning -- assumption of classical behavior for rotation
           may cause significant error
 Rotational temperatures (Kelvin)      0.13752     0.08409     0.07377
 Rotational constants (GHZ):           2.86537     1.75213     1.53717
 Zero-point vibrational energy     419427.0 (Joules/Mol)
                                  100.24547 (Kcal/Mol)
 Warning -- explicit consideration of  10 degrees of freedom as
           vibrations may cause significant error
 Vibrational temperatures:    258.13   309.33   320.02   352.96   414.16
          (Kelvin)            481.39   538.16   747.64   793.55   870.92
                             1026.82  1095.17  1124.52  1164.91  1211.93
                             1265.41  1323.09  1345.49  1371.88  1407.72
                             1444.04  1491.74  1505.02  1527.61  1559.79
                             1593.21  1620.82  1668.67  1731.00  1741.97
                             1767.62  1801.89  1875.53  1897.03  1955.46
                             1994.32  2018.06  2021.00  2146.42  2150.18
                             2177.40  4348.75  4356.42  4422.82  4445.44
                             4484.47  4490.16  4544.50  4584.41  4627.28
                             5474.64

 Zero-point correction=                           0.159751 (Hartree/Particle)
 Thermal correction to Energy=                    0.167454
 Thermal correction to Enthalpy=                  0.168398
 Thermal correction to Gibbs Free Energy=         0.128218
 Sum of electronic and zero-point Energies=           -422.998378
 Sum of electronic and thermal Energies=              -422.990676
 Sum of electronic and thermal Enthalpies=            -422.989732
 Sum of electronic and thermal Free Energies=         -423.029911

                     E (Thermal)             CV                S
                      KCal/Mol        Cal/Mol-Kelvin    Cal/Mol-Kelvin
 Total                  105.079             31.253             84.565
 Electronic               0.000              0.000              0.000
 Translational            0.889              2.981             40.409
 Rotational               0.889              2.981             28.123
 Vibrational            103.301             25.291             16.034
 Vibration     1          0.629              1.868              2.335
 Vibration     2          0.645              1.818              2.001
 Vibration     3          0.648              1.807              1.939
 Vibration     4          0.660              1.771              1.764
 Vibration     5          0.685              1.696              1.487
 Vibration     6          0.716              1.606              1.238
 Vibration     7          0.745              1.525              1.063
 Vibration     8          0.875              1.207              0.611
 Vibration     9          0.907              1.136              0.541
 Vibration    10          0.964              1.021              0.441

 Optimization completed.
    -- Stationary point found.
 Normal termination of Gaussian 09 at Mon Jan 27 16:53:02 2020.
 Normal termination of Gaussian 09 at Mon Jan 27 15:53:24 2020.
