 Gaussian 09, Revision D.01,
 Gaussian 09:  ES64L-G09RevD.01 24-Apr-2013

 -----------------------------
 # b3lyp 6-31G(2df,p) opt Freq
 -----------------------------

 -----
 titel
 -----
 Symbolic Z-matrix:
 Charge =  0 Multiplicity = 1

 SCF Done:  E(RB3LYP) =  -423.098776396     A.U. after   13 cycles
 Optimization completed.
    -- Stationary point found.
 Normal termination of Gaussian 09 at Tue Jan 28 12:11:10 2020.

 ----------------------------------------------------------------------
 #N Geom=AllCheck Guess=TCheck SCRF=Check GenChk RB3LYP/6-31G(2df,p) Fr
 eq
 ----------------------------------------------------------------------

 Structure from the checkpoint file:  "/scratch/puck/g09_9447f356-8402-4f6c-af38-c85ee7313949/Gau-117632.chk"
 -----
 titel
 -----
 Charge =  0 Multiplicity = 1

                         Standard orientation:
 ---------------------------------------------------------------------
 Center     Atomic      Atomic             Coordinates (Angstroms)
 Number     Number       Type             X           Y           Z
 ---------------------------------------------------------------------
      1          6           0       -3.396224    0.119698   -0.124381
      2          8           0       -2.024991    0.427343   -0.046957
      3          6           0       -1.210820   -0.727271    0.045757
      4          6           0        0.214802   -0.316592    0.078446
      5          6           0        1.072346    0.407671    1.118884
      6          6           0        1.550816    1.424206    0.082467
      7          6           0        1.225960    0.321685   -0.955781
      8          8           0        2.205949   -0.721273   -0.673419
      9          6           0        1.483992   -0.954328    0.533474
     10          1           0       -3.746422   -0.419438    0.770701
     11          1           0       -3.939860    1.064314   -0.201534
     12          1           0       -3.629280   -0.498100   -1.006552
     13          1           0       -1.451370   -1.298867    0.959893
     14          1           0       -1.404205   -1.396981   -0.810373
     15          1           0        0.858136    0.550877    2.170325
     16          1           0        0.857750    2.264887    0.005328
     17          1           0        2.588572    1.770561    0.111540
     18          1           0        1.087569    0.512712   -2.017656
     19          1           0        1.686211   -1.848941    1.108136
 ---------------------------------------------------------------------

 SCF Done:  E(RB3LYP) =  -423.098776396     A.U. after    1 cycles

 The electronic state is 1-A.
 Alpha  occ. eigenvalues --  -19.14186 -19.13279 -10.23956 -10.23813 -10.23741
 Alpha  occ. eigenvalues --  -10.22620 -10.19623 -10.19326 -10.18389  -1.05858
 Alpha  occ. eigenvalues --   -1.03451  -0.85770  -0.74478  -0.71937  -0.65864
 Alpha  occ. eigenvalues --   -0.62655  -0.56130  -0.53532  -0.51615  -0.48906
 Alpha  occ. eigenvalues --   -0.47950  -0.45718  -0.44535  -0.42673  -0.40237
 Alpha  occ. eigenvalues --   -0.39224  -0.38611  -0.35837  -0.33323  -0.32034
 Alpha  occ. eigenvalues --   -0.28919  -0.26174  -0.25553  -0.22968
 Alpha virt. eigenvalues --    0.07796   0.08691   0.10251   0.11738   0.13091
 Alpha virt. eigenvalues --    0.14308   0.14579   0.14943   0.15787   0.16122
 Alpha virt. eigenvalues --    0.17105   0.17458   0.17810   0.20576   0.20727

 Mulliken charges:
               1
     1  C   -0.218968
     2  O   -0.234858
     3  C   -0.250692
     4  C    0.327898
     5  C   -0.158534
     6  C   -0.229538
     7  C    0.021926
     8  O   -0.296532
     9  C    0.019288
    10  H    0.102932
    11  H    0.127987
    12  H    0.103885
    13  H    0.089932
    14  H    0.095263
    15  H    0.091973
    16  H    0.114178
    17  H    0.098435
    18  H    0.088481
    19  H    0.106947
 Sum of Mulliken charges =   0.00000

 Dipole moment (field-independent basis, Debye):
    X=             -1.9602    Y=             -0.3093    Z=              0.7412  Tot=              2.1183
 Quadrupole moment (field-independent basis, Debye-Ang):
   XX=            -54.2101   YY=            -52.3391   ZZ=            -51.2853
   XY=              3.1037   XZ=              2.2567   YZ=             -2.3260

  Exact polarizability:  86.594   1.131  72.257   1.220  -1.828  69.345
 Approx polarizability: 110.998  -1.900 108.501   0.652  -1.100 106.591

                      1                      2                      3
                      A                      A                      A
 Frequencies --     72.4512                93.9599               100.5685
 Red. masses --      3.1982                 2.3868                 3.3689
 Frc consts  --      0.0099                 0.0124                 0.0201
 IR Inten    --      0.3293                 4.0105                 2.1049

                      4                      5                      6
                      A                      A                      A
 Frequencies --    228.3245               282.2967               321.4785
 Red. masses --      1.3398                 2.0890                 2.8737
 Frc consts  --      0.0412                 0.0981                 0.1750
 IR Inten    --      2.8551                 0.1928                 1.4517

                      7                      8                      9
                      A                      A                      A
 Frequencies --    356.3605               458.2720               561.6387
 Red. masses --      4.5380                 2.1934                 4.0761
 Frc consts  --      0.3395                 0.2714                 0.7575
 IR Inten    --      0.5073                 1.2942                 7.1781

                     10                     11                     12
                      A                      A                      A
 Frequencies --    681.3309               742.4517               786.0517
 Red. masses --      2.8548                 4.0906                 4.4991
 Frc consts  --      0.7808                 1.3285                 1.6379
 IR Inten    --      0.2954                13.3228                 2.5308

                     13                     14                     15
                      A                      A                      A
 Frequencies --    820.7498               881.3253               916.4063
 Red. masses --      2.4765                 2.1337                 1.5689
 Frc consts  --      0.9829                 0.9765                 0.7763
 IR Inten    --      7.0923                 8.6014                 9.8872

                     16                     17                     18
                      A                      A                      A
 Frequencies --    922.6525               940.4834               967.5382
 Red. masses --      2.7919                 2.3895                 1.9715
 Frc consts  --      1.4003                 1.2453                 1.0874
 IR Inten    --     24.9474                18.6333                15.1162

                     19                     20                     21
                      A                      A                      A
 Frequencies --    993.4705              1005.8135              1027.2165
 Red. masses --      2.2953                 2.4226                 1.9774
 Frc consts  --      1.3348                 1.4440                 1.2294
 IR Inten    --     16.4927                17.5894                 5.5895

                     22                     23                     24
                      A                      A                      A
 Frequencies --   1054.7185              1083.6161              1134.7065
 Red. masses --      2.3383                 2.6825                 1.5232
 Frc consts  --      1.5326                 1.8558                 1.1555
 IR Inten    --     13.7726                 4.4969                20.7215

                     25                     26                     27
                      A                      A                      A
 Frequencies --   1137.1511              1154.0254              1164.7393
 Red. masses --      1.9078                 3.4062                 1.9690
 Frc consts  --      1.4535                 2.6727                 1.5738
 IR Inten    --     27.3344               129.2352                 7.2853

                     28                     29                     30
                      A                      A                      A
 Frequencies --   1186.4958              1220.2384              1223.9164
 Red. masses --      1.3359                 1.3743                 1.5829
 Frc consts  --      1.1080                 1.2056                 1.3971
 IR Inten    --      3.3008                11.5915                28.7944

                     31                     32                     33
                      A                      A                      A
 Frequencies --   1236.1787              1259.1192              1289.4044
 Red. masses --      1.9490                 1.3234                 1.4363
 Frc consts  --      1.7548                 1.2362                 1.4069
 IR Inten    --     10.4121                 6.3773                 0.4192

                     34                     35                     36
                      A                      A                      A
 Frequencies --   1315.4100              1395.8879              1466.4890
 Red. masses --      1.6457                 1.3739                 1.7894
 Frc consts  --      1.6777                 1.5773                 2.2674
 IR Inten    --      6.7471                33.6868                27.7353

                     37                     38                     39
                      A                      A                      A
 Frequencies --   1482.4025              1485.4372              1488.9715
 Red. masses --      1.1875                 1.0600                 1.5177
 Frc consts  --      1.5375                 1.3781                 1.9825
 IR Inten    --      2.0235                 4.2498                13.7463

                     40                     41                     42
                      A                      A                      A
 Frequencies --   1499.3901              1518.6716              2940.9396
 Red. masses --      1.1364                 1.0911                 1.0535
 Frc consts  --      1.5053                 1.4826                 5.3684
 IR Inten    --      1.6339                 2.3544                35.8080

                     43                     44                     45
                      A                      A                      A
 Frequencies --   2966.6980              2968.1233              3009.5650
 Red. masses --      1.0945                 1.0468                 1.1030
 Frc consts  --      5.6758                 5.4333                 5.8861
 IR Inten    --     52.9449                82.8613                55.8957

                     46                     47                     48
                      A                      A                      A
 Frequencies --   3051.8056              3114.9698              3121.3000
 Red. masses --      1.0583                 1.0956                 1.1066
 Frc consts  --      5.8070                 6.2632                 6.3519
 IR Inten    --     46.4182                27.7964                19.4953

                     49                     50                     51
                      A                      A                      A
 Frequencies --   3148.6328              3198.1006              3208.5001
 Red. masses --      1.0928                 1.0915                 1.0967
 Frc consts  --      6.3834                 6.5776                 6.6516
 IR Inten    --     31.3810                 6.4423                18.5483

 - Thermochemistry -
 -------------------
 Temperature   298.150 Kelvin.  Pressure   1.00000 Atm.
 Atom     1 has atomic number  6 and mass  12.00000

 Molecular mass:   126.06808 amu.
 Principal axes and moments of inertia in atomic units:
                           1         2         3
     Eigenvalues --   447.362311773.388951861.86196
           X            0.99977   0.02036   0.00635
           Y           -0.01986   0.99729  -0.07079
           Z           -0.00777   0.07065   0.99747
 This molecule is an asymmetric top.
 Rotational symmetry number  1.
 Warning -- assumption of classical behavior for rotation
           may cause significant error
 Rotational temperatures (Kelvin)      0.19361     0.04884     0.04652
 Rotational constants (GHZ):           4.03418     1.01768     0.96932
 Zero-point vibrational energy     416817.5 (Joules/Mol)
                                   99.62177 (Kcal/Mol)
 Warning -- explicit consideration of   9 degrees of freedom as
           vibrations may cause significant error
 Vibrational temperatures:    104.24   135.19   144.70   328.51   406.16
          (Kelvin)            462.54   512.72   659.35   808.07   980.28
                             1068.22  1130.95  1180.87  1268.03  1318.50
                             1327.49  1353.14  1392.07  1429.38  1447.14
                             1477.93  1517.50  1559.08  1632.59  1636.10
                             1660.38  1675.80  1707.10  1755.65  1760.94
                             1778.58  1811.59  1855.16  1892.58  2008.37
                             2109.95  2132.84  2137.21  2142.30  2157.29
                             2185.03  4231.35  4268.41  4270.46  4330.09
                             4390.86  4481.74  4490.85  4530.17  4601.35
                             4616.31

 Zero-point correction=                           0.158757 (Hartree/Particle)
 Thermal correction to Energy=                    0.167008
 Thermal correction to Enthalpy=                  0.167952
 Thermal correction to Gibbs Free Energy=         0.125179
 Sum of electronic and zero-point Energies=           -422.940019
 Sum of electronic and thermal Energies=              -422.931769
 Sum of electronic and thermal Enthalpies=            -422.930825
 Sum of electronic and thermal Free Energies=         -422.973598

                     E (Thermal)             CV                S
                      KCal/Mol        Cal/Mol-Kelvin    Cal/Mol-Kelvin
 Total                  104.799             30.731             90.023
 Electronic               0.000              0.000              0.000
 Translational            0.889              2.981             40.409
 Rotational               0.889              2.981             28.781
 Vibrational            103.021             24.769             20.833
 Vibration     1          0.599              1.967              4.086
 Vibration     2          0.603              1.954              3.576
 Vibration     3          0.604              1.949              3.443
 Vibration     4          0.651              1.798              1.892
 Vibration     5          0.681              1.706              1.520
 Vibration     6          0.707              1.632              1.303
 Vibration     7          0.732              1.562              1.138
 Vibration     8          0.816              1.343              0.771
 Vibration     9          0.917              1.114              0.521

 Optimization completed.
    -- Stationary point found.
 Normal termination of Gaussian 09 at Tue Jan 28 12:54:26 2020.
