 Gaussian 09, Revision D.01,
 Gaussian 09:  ES64L-G09RevD.01 24-Apr-2013

 -----------------------------
 # b3lyp 6-31G(2df,p) opt Freq
 -----------------------------

 -----
 titel
 -----
 Symbolic Z-matrix:
 Charge =  0 Multiplicity = 1

 SCF Done:  E(RB3LYP) =  -423.108013494     A.U. after   13 cycles
 Optimization completed.
    -- Stationary point found.
 Normal termination of Gaussian 09 at Mon Jan 27 22:00:09 2020.

 ----------------------------------------------------------------------
 #N Geom=AllCheck Guess=TCheck SCRF=Check GenChk RB3LYP/6-31G(2df,p) Fr
 eq
 ----------------------------------------------------------------------

 Structure from the checkpoint file:  "/scratch/puck/g09_9fa2cbed-8b03-4802-9f71-47792352a093/Gau-125543.chk"
 -----
 titel
 -----
 Charge =  0 Multiplicity = 1

                         Standard orientation:
 ---------------------------------------------------------------------
 Center     Atomic      Atomic             Coordinates (Angstroms)
 Number     Number       Type             X           Y           Z
 ---------------------------------------------------------------------
      1          8           0        0.218599    1.924938   -0.443029
      2          6           0        0.138826    0.711939    0.271788
      3          6           0       -1.279834    0.628434    0.844611
      4          8           0       -1.978071   -0.358593    0.045722
      5          6           0       -1.155670   -0.871346   -1.023955
      6          6           0        0.221834   -0.654794   -0.470943
      7          6           0        0.709733   -1.277219    0.876906
      8          6           0        1.477828    0.059040    0.750563
      9          6           0        1.717210   -0.342149   -0.765955
     10          1           0        1.131715    2.083155   -0.698488
     11          1           0       -1.338005    0.322735    1.893241
     12          1           0       -1.769756    1.599716    0.732573
     13          1           0       -1.450943   -1.912100   -1.183977
     14          1           0       -1.314853   -0.303755   -1.952502
     15          1           0       -0.010507   -1.375073    1.687969
     16          1           0        1.315710   -2.180304    0.777263
     17          1           0        2.222198    0.465170    1.439752
     18          1           0        1.935792    0.445854   -1.489138
     19          1           0        2.374870   -1.199580   -0.926326
 ---------------------------------------------------------------------

 SCF Done:  E(RB3LYP) =  -423.108013494     A.U. after    1 cycles

 The electronic state is 1-A.
 Alpha  occ. eigenvalues --  -19.14346 -19.12740 -10.23949 -10.22526 -10.22078
 Alpha  occ. eigenvalues --  -10.21374 -10.20506 -10.20044 -10.19094  -1.03789
 Alpha  occ. eigenvalues --   -1.00968  -0.90799  -0.73453  -0.70258  -0.67014
 Alpha  occ. eigenvalues --   -0.62615  -0.58688  -0.55442  -0.50537  -0.49209
 Alpha  occ. eigenvalues --   -0.47017  -0.45853  -0.41793  -0.40790  -0.39732
 Alpha  occ. eigenvalues --   -0.38836  -0.35943  -0.34840  -0.33457  -0.32083
 Alpha  occ. eigenvalues --   -0.31276  -0.29530  -0.24503  -0.24125
 Alpha virt. eigenvalues --    0.06864   0.10477   0.11137   0.11338   0.12262
 Alpha virt. eigenvalues --    0.12760   0.14398   0.15015   0.15311   0.16247
 Alpha virt. eigenvalues --    0.17364   0.17785   0.19105   0.20755   0.21654

 Mulliken charges:
               1
     1  O   -0.493330
     2  C    0.442246
     3  C   -0.155643
     4  O   -0.283046
     5  C   -0.208210
     6  C    0.273596
     7  C   -0.251487
     8  C   -0.162281
     9  C   -0.346659
    10  H    0.282253
    11  H    0.105674
    12  H    0.114967
    13  H    0.107388
    14  H    0.101652
    15  H    0.111276
    16  H    0.094430
    17  H    0.073849
    18  H    0.091194
    19  H    0.102129
 Sum of Mulliken charges =   0.00000

 Dipole moment (field-independent basis, Debye):
    X=              2.5822    Y=             -0.3824    Z=             -0.0290  Tot=              2.6106
 Quadrupole moment (field-independent basis, Debye-Ang):
   XX=            -55.3113   YY=            -53.5210   ZZ=            -51.3103
   XY=              1.2502   XZ=             -0.9532   YZ=              0.7007

  Exact polarizability:  79.823  -1.043  74.059  -1.158   0.268  70.942
 Approx polarizability: 115.347   0.047 112.776  -2.180   0.141 107.978

                      1                      2                      3
                      A                      A                      A
 Frequencies --    139.3351               211.2952               248.5281
 Red. masses --      3.6988                 1.9859                 1.7269
 Frc consts  --      0.0423                 0.0522                 0.0628
 IR Inten    --      5.0263                11.9965                62.1603

                      4                      5                      6
                      A                      A                      A
 Frequencies --    321.4635               351.3499               431.5339
 Red. masses --      2.5692                 2.3526                 2.6664
 Frc consts  --      0.1564                 0.1711                 0.2926
 IR Inten    --      0.9011                 7.7009                 8.1665

                      7                      8                      9
                      A                      A                      A
 Frequencies --    484.6117               529.0237               562.7731
 Red. masses --      3.1270                 3.5159                 2.6403
 Frc consts  --      0.4327                 0.5797                 0.4927
 IR Inten    --      2.1431                 1.7756                 1.8714

                     10                     11                     12
                      A                      A                      A
 Frequencies --    625.2652               714.9715               775.4141
 Red. masses --      2.9589                 3.5239                 3.5859
 Frc consts  --      0.6816                 1.0613                 1.2703
 IR Inten    --      1.3186                 1.2740                 9.1780

                     13                     14                     15
                      A                      A                      A
 Frequencies --    798.9904               851.1931               878.5020
 Red. masses --      3.4542                 3.2212                 4.5872
 Frc consts  --      1.2992                 1.3751                 2.0858
 IR Inten    --      5.9328                 7.3367                20.7926

                     16                     17                     18
                      A                      A                      A
 Frequencies --    893.1464               944.1241               957.6034
 Red. masses --      2.6093                 2.2581                 2.6987
 Frc consts  --      1.2264                 1.1859                 1.4581
 IR Inten    --      5.7267                 8.5119                 9.4516

                     19                     20                     21
                      A                      A                      A
 Frequencies --    966.8177               995.8714              1007.7746
 Red. masses --      1.6848                 1.5014                 1.2424
 Frc consts  --      0.9279                 0.8773                 0.7434
 IR Inten    --     21.3432                15.1234                10.1709

                     22                     23                     24
                      A                      A                      A
 Frequencies --   1030.1258              1067.7339              1090.1836
 Red. masses --      4.9292                 1.4529                 1.6284
 Frc consts  --      3.0818                 0.9759                 1.1403
 IR Inten    --     62.0948                25.5179                10.0703

                     25                     26                     27
                      A                      A                      A
 Frequencies --   1100.8762              1144.1289              1149.0696
 Red. masses --      1.8111                 1.5824                 1.7504
 Frc consts  --      1.2932                 1.2205                 1.3617
 IR Inten    --     18.5511                 1.8175                 6.9495

                     28                     29                     30
                      A                      A                      A
 Frequencies --   1172.5315              1196.5330              1202.4991
 Red. masses --      1.8116                 1.4962                 1.4842
 Frc consts  --      1.4674                 1.2621                 1.2644
 IR Inten    --     36.5343                18.2033                 2.4614

                     31                     32                     33
                      A                      A                      A
 Frequencies --   1216.4338              1232.2105              1267.6610
 Red. masses --      1.3310                 1.4629                 1.8853
 Frc consts  --      1.1604                 1.3087                 1.7850
 IR Inten    --      4.1064                 7.2559                23.7290

                     34                     35                     36
                      A                      A                      A
 Frequencies --   1299.3336              1344.7627              1366.1128
 Red. masses --      1.8708                 1.7950                 1.7464
 Frc consts  --      1.8609                 1.9125                 1.9203
 IR Inten    --      7.6918                40.2031                31.3343

                     37                     38                     39
                      A                      A                      A
 Frequencies --   1387.2991              1500.4729              1508.7558
 Red. masses --      1.6858                 1.0918                 1.0987
 Frc consts  --      1.9115                 1.4483                 1.4736
 IR Inten    --      8.9204                 1.2262                 1.4481

                     40                     41                     42
                      A                      A                      A
 Frequencies --   1517.8108              1550.2395              2997.4972
 Red. masses --      1.0913                 1.1428                 1.0671
 Frc consts  --      1.4813                 1.6181                 5.6488
 IR Inten    --      2.5148                 2.0015                66.1411

                     43                     44                     45
                      A                      A                      A
 Frequencies --   3048.0952              3064.6325              3073.8016
 Red. masses --      1.0581                 1.0571                 1.0641
 Frc consts  --      5.7921                 5.8494                 5.9234
 IR Inten    --     40.9690                39.4768                35.9711

                     46                     47                     48
                      A                      A                      A
 Frequencies --   3083.6696              3087.0717              3092.3424
 Red. masses --      1.0964                 1.0836                 1.1089
 Frc consts  --      6.1426                 6.0842                 6.2474
 IR Inten    --     38.5624                52.0226                29.8057

                     49                     50                     51
                      A                      A                      A
 Frequencies --   3124.9054              3149.7857              3835.7448
 Red. masses --      1.1101                 1.1064                 1.0656
 Frc consts  --      6.3870                 6.4672                 9.2369
 IR Inten    --     37.0865                25.6710                15.7681

 - Thermochemistry -
 -------------------
 Temperature   298.150 Kelvin.  Pressure   1.00000 Atm.
 Atom     1 has atomic number  8 and mass  15.99491

 Molecular mass:   126.06808 amu.
 Principal axes and moments of inertia in atomic units:
                           1         2         3
     Eigenvalues --   700.65196 939.937201144.59480
           X            0.99968  -0.02334  -0.00970
           Y            0.02339   0.99971   0.00506
           Z            0.00958  -0.00529   0.99994
 This molecule is an asymmetric top.
 Rotational symmetry number  1.
 Warning -- assumption of classical behavior for rotation
           may cause significant error
 Rotational temperatures (Kelvin)      0.12362     0.09215     0.07567
 Rotational constants (GHZ):           2.57580     1.92007     1.57675
 Zero-point vibrational energy     422233.4 (Joules/Mol)
                                  100.91620 (Kcal/Mol)
 Warning -- explicit consideration of   9 degrees of freedom as
           vibrations may cause significant error
 Vibrational temperatures:    200.47   304.01   357.58   462.51   505.51
          (Kelvin)            620.88   697.25   761.15   809.70   899.62
                             1028.68  1115.65  1149.57  1224.68  1263.97
                             1285.04  1358.38  1377.78  1391.03  1432.84
                             1449.96  1482.12  1536.23  1568.53  1583.91
                             1646.14  1653.25  1687.01  1721.54  1730.13
                             1750.17  1772.87  1823.88  1869.45  1934.81
                             1965.53  1996.01  2158.84  2170.76  2183.79
                             2230.45  4312.72  4385.52  4409.32  4422.51
                             4436.71  4441.60  4449.19  4496.04  4531.83
                             5518.77

 Zero-point correction=                           0.160820 (Hartree/Particle)
 Thermal correction to Energy=                    0.168106
 Thermal correction to Enthalpy=                  0.169050
 Thermal correction to Gibbs Free Energy=         0.129566
 Sum of electronic and zero-point Energies=           -422.947193
 Sum of electronic and thermal Energies=              -422.939908
 Sum of electronic and thermal Enthalpies=            -422.938963
 Sum of electronic and thermal Free Energies=         -422.978448

                     E (Thermal)             CV                S
                      KCal/Mol        Cal/Mol-Kelvin    Cal/Mol-Kelvin
 Total                  105.488             30.092             83.101
 Electronic               0.000              0.000              0.000
 Translational            0.889              2.981             40.409
 Rotational               0.889              2.981             28.113
 Vibrational            103.711             24.130             14.580
 Vibration     1          0.615              1.914              2.813
 Vibration     2          0.643              1.824              2.032
 Vibration     3          0.662              1.765              1.741
 Vibration     4          0.707              1.632              1.303
 Vibration     5          0.728              1.572              1.160
 Vibration     6          0.793              1.402              0.854
 Vibration     7          0.841              1.284              0.698
 Vibration     8          0.884              1.186              0.589
 Vibration     9          0.919              1.112              0.518

 Optimization completed.
    -- Stationary point found.
 Normal termination of Gaussian 09 at Mon Jan 27 22:46:00 2020.
