 Gaussian 09, Revision D.01,
 Gaussian 09:  ES64L-G09RevD.01 24-Apr-2013

 -----------------------------
 # b3lyp 6-31G(2df,p) opt Freq
 -----------------------------

 -----
 titel
 -----
 Symbolic Z-matrix:
 Charge =  0 Multiplicity = 1

 SCF Done:  E(RB3LYP) =  -423.113396520     A.U. after   13 cycles
 Optimization completed.
    -- Stationary point found.
 Normal termination of Gaussian 09 at Mon Jan 27 11:13:49 2020.

 ----------------------------------------------------------------------
 #N Geom=AllCheck Guess=TCheck SCRF=Check GenChk RB3LYP/6-31G(2df,p) Fr
 eq
 ----------------------------------------------------------------------

 Structure from the checkpoint file:  "/scratch/puck/g09_80b0ff65-a7ab-487b-845a-d55217782c5f/Gau-15875.chk"
 -----
 titel
 -----
 Charge =  0 Multiplicity = 1

                         Standard orientation:
 ---------------------------------------------------------------------
 Center     Atomic      Atomic             Coordinates (Angstroms)
 Number     Number       Type             X           Y           Z
 ---------------------------------------------------------------------
      1          6           0       -0.685706    0.601560   -0.497495
      2          6           0       -1.846939   -0.332687   -0.257598
      3          6           0       -3.240016    0.124673   -0.296576
      4          8           0       -2.588824   -0.121553    0.950518
      5          6           0        0.531693    0.205986    0.324628
      6          8           0        1.044124   -1.098048   -0.103244
      7          6           0        2.249227   -0.482922   -0.563099
      8          6           0        2.999009    0.140190    0.570841
      9          6           0        1.842903    0.884306   -0.067359
     10          1           0       -0.416764    0.592678   -1.561032
     11          1           0       -0.981290    1.623963   -0.231277
     12          1           0       -1.643057   -1.381403   -0.472799
     13          1           0       -3.454621    1.170923   -0.513488
     14          1           0       -4.034981   -0.573023   -0.556553
     15          1           0        0.284918    0.197804    1.393430
     16          1           0        2.681354   -0.839002   -1.491092
     17          1           0        2.904740   -0.279250    1.568829
     18          1           0        3.980382    0.534507    0.324868
     19          1           0        1.935894    1.862975   -0.519132
 ---------------------------------------------------------------------

 SCF Done:  E(RB3LYP) =  -423.113396519     A.U. after    1 cycles

 The electronic state is 1-A.
 Alpha  occ. eigenvalues --  -19.14604 -19.13696 -10.24060 -10.23889 -10.23495
 Alpha  occ. eigenvalues --  -10.23103 -10.19710 -10.19082 -10.18955  -1.06580
 Alpha  occ. eigenvalues --   -1.05006  -0.83224  -0.77804  -0.68043  -0.64891
 Alpha  occ. eigenvalues --   -0.60640  -0.59055  -0.53990  -0.52084  -0.50257
 Alpha  occ. eigenvalues --   -0.48758  -0.46646  -0.45021  -0.41489  -0.39107
 Alpha  occ. eigenvalues --   -0.38424  -0.37529  -0.36113  -0.34437  -0.32014
 Alpha  occ. eigenvalues --   -0.30245  -0.27565  -0.26296  -0.23627
 Alpha virt. eigenvalues --    0.07832   0.10056   0.11231   0.11278   0.11910
 Alpha virt. eigenvalues --    0.12476   0.12972   0.13670   0.14557   0.15461
 Alpha virt. eigenvalues --    0.16263   0.17413   0.19025   0.19993   0.21311

 Mulliken charges:
               1
     1  C   -0.246251
     2  C    0.096034
     3  C   -0.180164
     4  O   -0.239738
     5  C    0.134840
     6  O   -0.306980
     7  C    0.110433
     8  C   -0.306043
     9  C   -0.137658
    10  H    0.105322
    11  H    0.102664
    12  H    0.111197
    13  H    0.109395
    14  H    0.114352
    15  H    0.097708
    16  H    0.102909
    17  H    0.118549
    18  H    0.115210
    19  H    0.098220
 Sum of Mulliken charges =   0.00000

 Dipole moment (field-independent basis, Debye):
    X=              0.8263    Y=              1.5790    Z=             -1.9114  Tot=              2.6133
 Quadrupole moment (field-independent basis, Debye-Ang):
   XX=            -48.4955   YY=            -53.8045   ZZ=            -53.8764
   XY=              0.9363   XZ=              3.4142   YZ=              0.1135

  Exact polarizability:  99.709  -1.768  65.370   1.712   0.416  62.934
 Approx polarizability: 119.390  -3.982 103.889  -0.325   2.228 100.901

                      1                      2                      3
                      A                      A                      A
 Frequencies --     68.5358                78.0340               128.3209
 Red. masses --      3.8324                 4.4453                 3.3175
 Frc consts  --      0.0106                 0.0159                 0.0322
 IR Inten    --      2.4882                 1.2056                 2.5899

                      4                      5                      6
                      A                      A                      A
 Frequencies --    197.6452               312.5424               326.2261
 Red. masses --      3.5065                 3.1691                 3.0652
 Frc consts  --      0.0807                 0.1824                 0.1922
 IR Inten    --      1.2292                 0.7461                 1.0423

                      7                      8                      9
                      A                      A                      A
 Frequencies --    451.6939               467.0520               534.5684
 Red. masses --      2.2101                 2.5704                 2.9444
 Frc consts  --      0.2657                 0.3304                 0.4957
 IR Inten    --      7.1636                 2.7090                 6.7413

                     10                     11                     12
                      A                      A                      A
 Frequencies --    754.1232               762.7274               796.1216
 Red. masses --      2.0994                 1.9127                 3.0163
 Frc consts  --      0.7034                 0.6556                 1.1264
 IR Inten    --      4.1928                12.0330                11.6819

                     13                     14                     15
                      A                      A                      A
 Frequencies --    846.8935               851.2559               891.1757
 Red. masses --      1.7902                 3.2431                 2.7675
 Frc consts  --      0.7565                 1.3846                 1.2950
 IR Inten    --      6.2536                24.5183                17.5019

                     16                     17                     18
                      A                      A                      A
 Frequencies --    925.5129               961.7305               966.9489
 Red. masses --      2.2971                 2.8004                 2.5748
 Frc consts  --      1.1593                 1.5261                 1.4184
 IR Inten    --     12.2104                17.6769                14.7609

                     19                     20                     21
                      A                      A                      A
 Frequencies --    980.1430               990.7457              1039.7733
 Red. masses --      1.7744                 2.1251                 1.4061
 Frc consts  --      1.0043                 1.2290                 0.8957
 IR Inten    --     10.2731                37.1648                19.1495

                     22                     23                     24
                      A                      A                      A
 Frequencies --   1054.1577              1060.8468              1088.3568
 Red. masses --      1.6300                 1.5927                 1.7812
 Frc consts  --      1.0672                 1.0561                 1.2431
 IR Inten    --     13.9097                 5.4953                34.5800

                     25                     26                     27
                      A                      A                      A
 Frequencies --   1093.2700              1113.0313              1137.5509
 Red. masses --      1.3401                 1.9570                 2.1780
 Frc consts  --      0.9437                 1.4284                 1.6605
 IR Inten    --      3.9246                 0.7844                23.2013

                     28                     29                     30
                      A                      A                      A
 Frequencies --   1159.8338              1175.1901              1206.3677
 Red. masses --      1.3738                 1.3544                 2.0146
 Frc consts  --      1.0888                 1.1021                 1.7274
 IR Inten    --      0.9562                 2.1856                 1.5576

                     31                     32                     33
                      A                      A                      A
 Frequencies --   1237.0323              1242.3481              1284.1598
 Red. masses --      1.2639                 1.3618                 1.5592
 Frc consts  --      1.1395                 1.2384                 1.5149
 IR Inten    --      0.9117                 0.1957                14.0489

                     34                     35                     36
                      A                      A                      A
 Frequencies --   1297.7621              1313.5799              1361.8648
 Red. masses --      1.3781                 1.6728                 1.7534
 Frc consts  --      1.3675                 1.7007                 1.9160
 IR Inten    --      5.7231                 1.2352                 8.3181

                     37                     38                     39
                      A                      A                      A
 Frequencies --   1398.1432              1444.5153              1458.4844
 Red. masses --      1.5872                 1.6778                 1.1496
 Frc consts  --      1.8281                 2.0626                 1.4407
 IR Inten    --      7.4965                10.2316                 5.9912

                     40                     41                     42
                      A                      A                      A
 Frequencies --   1472.9499              1532.0041              3026.1896
 Red. masses --      1.2752                 1.3578                 1.0596
 Frc consts  --      1.6300                 1.8777                 5.7173
 IR Inten    --      5.1862                 2.8907                 9.8169

                     43                     44                     45
                      A                      A                      A
 Frequencies --   3036.4192              3075.1622              3079.3522
 Red. masses --      1.0840                 1.1016                 1.0509
 Frc consts  --      5.8887                 6.1375                 5.8710
 IR Inten    --     28.7501                23.0888                32.7037

                     46                     47                     48
                      A                      A                      A
 Frequencies --   3114.6747              3121.6125              3165.0416
 Red. masses --      1.0539                 1.0891                 1.1187
 Frc consts  --      6.0238                 6.2531                 6.6030
 IR Inten    --     13.6362                13.6381                31.1630

                     49                     50                     51
                      A                      A                      A
 Frequencies --   3178.0030              3198.2106              3209.7562
 Red. masses --      1.0915                 1.1022                 1.1105
 Frc consts  --      6.4953                 6.6422                 6.7410
 IR Inten    --     23.3574                 3.2200                15.2343

 - Thermochemistry -
 -------------------
 Temperature   298.150 Kelvin.  Pressure   1.00000 Atm.
 Atom     1 has atomic number  6 and mass  12.00000

 Molecular mass:   126.06808 amu.
 Principal axes and moments of inertia in atomic units:
                           1         2         3
     Eigenvalues --   315.056382201.965872240.71312
           X            0.99992   0.00350   0.01248
           Y           -0.00274   0.99815  -0.06078
           Z           -0.01267   0.06074   0.99807
 This molecule is an asymmetric top.
 Rotational symmetry number  1.
 Rotational temperatures (Kelvin)      0.27492     0.03933     0.03865
 Rotational constants (GHZ):           5.72831     0.81960     0.80543
 Zero-point vibrational energy     416705.0 (Joules/Mol)
                                   99.59489 (Kcal/Mol)
 Warning -- explicit consideration of   9 degrees of freedom as
           vibrations may cause significant error
 Vibrational temperatures:     98.61   112.27   184.62   284.37   449.68
          (Kelvin)            469.37   649.89   671.98   769.12  1085.01
                             1097.39  1145.44  1218.49  1224.77  1282.20
                             1331.60  1383.71  1391.22  1410.21  1425.46
                             1496.00  1516.70  1526.32  1565.90  1572.97
                             1601.40  1636.68  1668.74  1690.83  1735.69
                             1779.81  1787.46  1847.62  1867.19  1889.95
                             1959.42  2011.61  2078.33  2098.43  2119.24
                             2204.21  4354.01  4368.72  4424.47  4430.50
                             4481.32  4491.30  4553.78  4572.43  4601.51
                             4618.12

 Zero-point correction=                           0.158715 (Hartree/Particle)
 Thermal correction to Energy=                    0.166875
 Thermal correction to Enthalpy=                  0.167819
 Thermal correction to Gibbs Free Energy=         0.125144
 Sum of electronic and zero-point Energies=           -422.954682
 Sum of electronic and thermal Energies=              -422.946522
 Sum of electronic and thermal Enthalpies=            -422.945577
 Sum of electronic and thermal Free Energies=         -422.988252

                     E (Thermal)             CV                S
                      KCal/Mol        Cal/Mol-Kelvin    Cal/Mol-Kelvin
 Total                  104.716             30.722             89.817
 Electronic               0.000              0.000              0.000
 Translational            0.889              2.981             40.409
 Rotational               0.889              2.981             28.832
 Vibrational            102.938             24.760             20.576
 Vibration     1          0.598              1.969              4.195
 Vibration     2          0.599              1.964              3.940
 Vibration     3          0.611              1.925              2.971
 Vibration     4          0.637              1.843              2.155
 Vibration     5          0.701              1.650              1.349
 Vibration     6          0.710              1.623              1.279
 Vibration     7          0.810              1.357              0.791
 Vibration     8          0.824              1.323              0.746
 Vibration     9          0.890              1.174              0.577

 Optimization completed.
    -- Stationary point found.
 Normal termination of Gaussian 09 at Mon Jan 27 11:56:37 2020.
