 Gaussian 09, Revision D.01,
 Gaussian 09:  ES64L-G09RevD.01 24-Apr-2013

 -----------------------------
 # b3lyp 6-31G(2df,p) opt Freq
 -----------------------------

 -----
 titel
 -----
 Symbolic Z-matrix:
 Charge =  0 Multiplicity = 1

 SCF Done:  E(RB3LYP) =  -423.162951519     A.U. after   14 cycles
 Optimization completed.
    -- Stationary point found.
 Normal termination of Gaussian 09 at Tue Jan 28 12:47:20 2020.

 ----------------------------------------------------------------------
 #N Geom=AllCheck Guess=TCheck SCRF=Check GenChk RB3LYP/6-31G(2df,p) Fr
 eq
 ----------------------------------------------------------------------

 Structure from the checkpoint file:  "/scratch/puck/g09_58246877-58a5-4562-a389-8bca11f044e8/Gau-10492.chk"
 -----
 titel
 -----
 Charge =  0 Multiplicity = 1

                         Standard orientation:
 ---------------------------------------------------------------------
 Center     Atomic      Atomic             Coordinates (Angstroms)
 Number     Number       Type             X           Y           Z
 ---------------------------------------------------------------------
      1          6           0        2.399266   -1.533200   -0.042482
      2          8           0        1.688242   -0.408670   -0.519408
      3          6           0        0.890254    0.198793    0.452075
      4          6           0       -0.462937   -0.440456    0.824605
      5          6           0       -1.323640   -0.527880   -0.384622
      6          6           0       -2.657045   -1.238802   -0.298200
      7          6           0       -1.217032    0.826135    0.323150
      8          6           0        0.092711    1.457713   -0.017866
      9          8           0        0.436574    2.554249   -0.354149
     10          1           0        1.724085   -2.334546    0.291820
     11          1           0        3.007085   -1.905465   -0.870057
     12          1           0        3.060741   -1.263647    0.795018
     13          1           0        1.477045    0.459589    1.348546
     14          1           0       -0.674846   -0.981051    1.738410
     15          1           0       -0.818648   -0.630035   -1.341567
     16          1           0       -3.356126   -0.856732   -1.048703
     17          1           0       -2.532328   -2.312769   -0.472028
     18          1           0       -3.117329   -1.109292    0.686698
     19          1           0       -2.097682    1.315496    0.720359
 ---------------------------------------------------------------------

 SCF Done:  E(RB3LYP) =  -423.162951519     A.U. after    1 cycles

 The electronic state is 1-A.
 Alpha  occ. eigenvalues --  -19.15107 -19.12882 -10.26538 -10.24283 -10.23115
 Alpha  occ. eigenvalues --  -10.21446 -10.20913 -10.20610 -10.19249  -1.04975
 Alpha  occ. eigenvalues --   -1.03450  -0.90770  -0.76214  -0.71079  -0.65667
 Alpha  occ. eigenvalues --   -0.63856  -0.57964  -0.54027  -0.49615  -0.48962
 Alpha  occ. eigenvalues --   -0.47512  -0.45378  -0.44155  -0.42259  -0.40297
 Alpha  occ. eigenvalues --   -0.40071  -0.38876  -0.38147  -0.37111  -0.32950
 Alpha  occ. eigenvalues --   -0.30535  -0.28704  -0.26422  -0.23756
 Alpha virt. eigenvalues --   -0.01326   0.07243   0.09755   0.10246   0.12269
 Alpha virt. eigenvalues --    0.13737   0.14343   0.14578   0.15367   0.16531
 Alpha virt. eigenvalues --    0.16625   0.17316   0.17948   0.19387   0.19899

 Mulliken charges:
               1
     1  C   -0.238445
     2  O   -0.235755
     3  C   -0.016682
     4  C   -0.096725
     5  C   -0.004706
     6  C   -0.427897
     7  C   -0.195713
     8  C    0.387722
     9  O   -0.315330
    10  H    0.110019
    11  H    0.133692
    12  H    0.109647
    13  H    0.090715
    14  H    0.099217
    15  H    0.113558
    16  H    0.130563
    17  H    0.126881
    18  H    0.119749
    19  H    0.109487
 Sum of Mulliken charges =   0.00000

 Dipole moment (field-independent basis, Debye):
    X=             -1.2675    Y=             -3.5461    Z=              1.7618  Tot=              4.1576
 Quadrupole moment (field-independent basis, Debye-Ang):
   XX=            -49.0746   YY=            -59.8739   ZZ=            -52.1699
   XY=             -3.6533   XZ=              1.6542   YZ=              2.1005

  Exact polarizability:  88.145   1.832  83.012   1.198  -0.453  62.348
 Approx polarizability: 113.530   4.813 127.001  -0.259  -5.563  99.231

                      1                      2                      3
                      A                      A                      A
 Frequencies --     68.8135               120.4178               159.7459
 Red. masses --      2.9321                 3.1552                 2.8443
 Frc consts  --      0.0082                 0.0270                 0.0428
 IR Inten    --      1.5212                 1.0284                 2.0688

                      4                      5                      6
                      A                      A                      A
 Frequencies --    176.5931               223.9010               226.1635
 Red. masses --      1.7756                 1.7441                 1.2284
 Frc consts  --      0.0326                 0.0515                 0.0370
 IR Inten    --      0.2316                 2.2207                 0.2054

                      7                      8                      9
                      A                      A                      A
 Frequencies --    248.4483               322.9597               361.3370
 Red. masses --      2.6094                 3.8552                 3.2045
 Frc consts  --      0.0949                 0.2369                 0.2465
 IR Inten    --      0.9253                 1.4124                 2.3926

                     10                     11                     12
                      A                      A                      A
 Frequencies --    527.8474               555.5811               642.0038
 Red. masses --      5.2277                 3.7548                 4.0567
 Frc consts  --      0.8582                 0.6829                 0.9851
 IR Inten    --      7.7995                 2.0539                 9.4126

                     13                     14                     15
                      A                      A                      A
 Frequencies --    700.7593               762.5250               847.0828
 Red. masses --      5.4970                 2.9279                 4.1152
 Frc consts  --      1.5904                 1.0030                 1.7398
 IR Inten    --     12.6639                12.1417                14.7256

                     16                     17                     18
                      A                      A                      A
 Frequencies --    866.2261               908.6920               958.5189
 Red. masses --      1.3983                 2.1002                 1.8198
 Frc consts  --      0.6182                 1.0218                 0.9851
 IR Inten    --      7.6672                 3.3787                 4.9446

                     19                     20                     21
                      A                      A                      A
 Frequencies --    982.6980              1003.6932              1036.6094
 Red. masses --      1.8039                 1.7392                 3.6220
 Frc consts  --      1.0264                 1.0323                 2.2931
 IR Inten    --     20.9322                23.1811                22.9321

                     22                     23                     24
                      A                      A                      A
 Frequencies --   1064.3191              1085.4519              1118.1386
 Red. masses --      1.4079                 2.3277                 2.0493
 Frc consts  --      0.9397                 1.6158                 1.5095
 IR Inten    --      5.7431                15.4720                49.6371

                     25                     26                     27
                      A                      A                      A
 Frequencies --   1148.6481              1155.2337              1179.4602
 Red. masses --      1.4521                 2.2683                 1.3326
 Frc consts  --      1.1288                 1.7835                 1.0923
 IR Inten    --     10.9057                90.0837                 5.1971

                     28                     29                     30
                      A                      A                      A
 Frequencies --   1194.8667              1207.9746              1237.6245
 Red. masses --      1.9188                 1.9714                 1.9577
 Frc consts  --      1.6140                 1.6949                 1.7667
 IR Inten    --     16.2398                20.5952                55.8979

                     31                     32                     33
                      A                      A                      A
 Frequencies --   1266.7781              1302.9287              1363.9382
 Red. masses --      1.8887                 1.5118                 1.3207
 Frc consts  --      1.7857                 1.5121                 1.4476
 IR Inten    --      4.1419                 0.8557                35.3041

                     34                     35                     36
                      A                      A                      A
 Frequencies --   1416.6336              1421.6142              1480.3617
 Red. masses --      1.3278                 1.9417                 1.1413
 Frc consts  --      1.5700                 2.3121                 1.4736
 IR Inten    --      5.3424                 5.7088                 1.1204

                     37                     38                     39
                      A                      A                      A
 Frequencies --   1488.1146              1493.3971              1501.8058
 Red. masses --      1.0647                 1.0464                 1.0694
 Frc consts  --      1.3891                 1.3750                 1.4210
 IR Inten    --      3.8387                 2.3181                 4.9264

                     40                     41                     42
                      A                      A                      A
 Frequencies --   1506.3625              1887.3372              2973.7920
 Red. masses --      1.0562                12.4724                 1.0731
 Frc consts  --      1.4121                26.1757                 5.5913
 IR Inten    --      6.0701               351.3361                36.1739

                     43                     44                     45
                      A                      A                      A
 Frequencies --   2982.3320              3031.4933              3033.6864
 Red. masses --      1.0448                 1.1033                 1.0350
 Frc consts  --      5.4749                 5.9740                 5.6124
 IR Inten    --     60.1087                46.2728                28.5917

                     46                     47                     48
                      A                      A                      A
 Frequencies --   3100.0945              3103.6899              3121.3895
 Red. masses --      1.1009                 1.1010                 1.0970
 Frc consts  --      6.2337                 6.2486                 6.2973
 IR Inten    --     16.0418                16.2197                26.0617

                     49                     50                     51
                      A                      A                      A
 Frequencies --   3144.0885              3192.3173              3201.2378
 Red. masses --      1.0893                 1.0901                 1.0965
 Frc consts  --      6.3442                 6.5455                 6.6206
 IR Inten    --     12.8178                 7.3332                 5.6287

 - Thermochemistry -
 -------------------
 Temperature   298.150 Kelvin.  Pressure   1.00000 Atm.
 Atom     1 has atomic number  6 and mass  12.00000

 Molecular mass:   126.06808 amu.
 Principal axes and moments of inertia in atomic units:
                           1         2         3
     Eigenvalues --   877.328721220.674461873.14382
           X            0.99970  -0.02181   0.01148
           Y            0.02170   0.99972   0.00945
           Z           -0.01169  -0.00920   0.99989
 This molecule is an asymmetric top.
 Rotational symmetry number  1.
 Warning -- assumption of classical behavior for rotation
           may cause significant error
 Rotational temperatures (Kelvin)      0.09872     0.07096     0.04624
 Rotational constants (GHZ):           2.05709     1.47848     0.96348
 Zero-point vibrational energy     413344.0 (Joules/Mol)
                                   98.79160 (Kcal/Mol)
 Warning -- explicit consideration of  11 degrees of freedom as
           vibrations may cause significant error
 Vibrational temperatures:     99.01   173.25   229.84   254.08   322.14
          (Kelvin)            325.40   357.46   464.67   519.88   759.45
                              799.36   923.70  1008.24  1097.10  1218.76
                             1246.30  1307.40  1379.09  1413.88  1444.09
                             1491.45  1531.32  1561.72  1608.75  1652.65
                             1662.12  1696.98  1719.14  1738.00  1780.66
                             1822.61  1874.62  1962.40  2038.22  2045.38
                             2129.91  2141.06  2148.66  2160.76  2167.32
                             2715.45  4278.62  4290.91  4361.64  4364.79
                             4460.34  4465.51  4490.98  4523.64  4593.03
                             4605.86

 Zero-point correction=                           0.157434 (Hartree/Particle)
 Thermal correction to Energy=                    0.166578
 Thermal correction to Enthalpy=                  0.167522
 Thermal correction to Gibbs Free Energy=         0.123231
 Sum of electronic and zero-point Energies=           -423.005517
 Sum of electronic and thermal Energies=              -422.996374
 Sum of electronic and thermal Enthalpies=            -422.995430
 Sum of electronic and thermal Free Energies=         -423.039721

                     E (Thermal)             CV                S
                      KCal/Mol        Cal/Mol-Kelvin    Cal/Mol-Kelvin
 Total                  104.529             33.313             93.219
 Electronic               0.000              0.000              0.000
 Translational            0.889              2.981             40.409
 Rotational               0.889              2.981             29.085
 Vibrational            102.752             27.351             23.725
 Vibration     1          0.598              1.969              4.187
 Vibration     2          0.609              1.932              3.094
 Vibration     3          0.622              1.892              2.553
 Vibration     4          0.628              1.871              2.364
 Vibration     5          0.649              1.805              1.927
 Vibration     6          0.650              1.801              1.909
 Vibration     7          0.662              1.765              1.742
 Vibration     8          0.708              1.629              1.295
 Vibration     9          0.736              1.552              1.116
 Vibration    10          0.883              1.188              0.592
 Vibration    11          0.911              1.127              0.533

 Optimization completed.
    -- Stationary point found.
 Normal termination of Gaussian 09 at Tue Jan 28 14:43:21 2020.
