 Gaussian 09, Revision D.01,
 Gaussian 09:  ES64L-G09RevD.01 24-Apr-2013

 -----------------------------
 # b3lyp 6-31G(2df,p) opt Freq
 -----------------------------

 -----
 titel
 -----
 Symbolic Z-matrix:
 Charge =  0 Multiplicity = 1

 SCF Done:  E(RB3LYP) =  -423.159173116     A.U. after   12 cycles
 Optimization completed.
    -- Stationary point found.
 Normal termination of Gaussian 09 at Mon Jan 27 18:24:55 2020.

 ----------------------------------------------------------------------
 #N Geom=AllCheck Guess=TCheck SCRF=Check GenChk RB3LYP/6-31G(2df,p) Fr
 eq
 ----------------------------------------------------------------------

 Structure from the checkpoint file:  "/scratch/puck/g09_314c19dd-1921-4d3d-bf91-eeed2c93784d/Gau-42092.chk"
 -----
 titel
 -----
 Charge =  0 Multiplicity = 1

                         Standard orientation:
 ---------------------------------------------------------------------
 Center     Atomic      Atomic             Coordinates (Angstroms)
 Number     Number       Type             X           Y           Z
 ---------------------------------------------------------------------
      1          6           0        1.001247    2.097333    0.067857
      2          6           0        0.313642    0.767005    0.074293
      3          6           0       -0.073120   -0.081056   -1.115464
      4          6           0       -1.571623   -0.349569   -1.064202
      5          8           0       -1.988948    0.097263    0.231690
      6          6           0       -0.810766    0.244375    1.010616
      7          6           0       -0.031065   -1.105349    1.172944
      8          6           0        0.818337   -0.658270   -0.015753
      9          8           0        2.124879   -1.038116   -0.263052
     10          1           0        1.826014    2.102074   -0.651593
     11          1           0        0.310082    2.902550   -0.206101
     12          1           0        1.420681    2.337223    1.051350
     13          1           0        0.417025    0.109094   -2.063645
     14          1           0       -2.116548    0.221927   -1.825135
     15          1           0       -1.820991   -1.412172   -1.195319
     16          1           0       -1.059647    0.795632    1.916657
     17          1           0        0.564210   -1.121689    2.090458
     18          1           0       -0.624201   -2.023663    1.100234
     19          1           0        2.116011   -1.870955   -0.747756
 ---------------------------------------------------------------------

 SCF Done:  E(RB3LYP) =  -423.159173116     A.U. after    1 cycles

 The electronic state is 1-A.
 Alpha  occ. eigenvalues --  -19.15003 -19.13111 -10.23937 -10.23115 -10.22457
 Alpha  occ. eigenvalues --  -10.19010 -10.18896 -10.18061 -10.17831  -1.04103
 Alpha  occ. eigenvalues --   -1.02837  -0.88086  -0.75066  -0.72668  -0.66331
 Alpha  occ. eigenvalues --   -0.62063  -0.56897  -0.55112  -0.50417  -0.47823
 Alpha  occ. eigenvalues --   -0.45322  -0.43724  -0.42120  -0.41704  -0.40328
 Alpha  occ. eigenvalues --   -0.39508  -0.39255  -0.36663  -0.34058  -0.32545
 Alpha  occ. eigenvalues --   -0.30591  -0.25330  -0.25079  -0.23489
 Alpha virt. eigenvalues --    0.07714   0.09766   0.10414   0.12006   0.13153
 Alpha virt. eigenvalues --    0.13635   0.14936   0.15200   0.16037   0.16973
 Alpha virt. eigenvalues --    0.18394   0.19273   0.19629   0.19906   0.22533

 Mulliken charges:
               1
     1  C   -0.524843
     2  C    0.289089
     3  C   -0.207277
     4  C   -0.103342
     5  O   -0.264814
     6  C    0.031678
     7  C   -0.322202
     8  C    0.336259
     9  O   -0.464927
    10  H    0.129689
    11  H    0.124448
    12  H    0.121432
    13  H    0.090884
    14  H    0.104625
    15  H    0.092804
    16  H    0.084892
    17  H    0.105825
    18  H    0.090653
    19  H    0.285129
 Sum of Mulliken charges =   0.00000

 Dipole moment (field-independent basis, Debye):
    X=              0.7578    Y=             -0.7116    Z=             -0.9751  Tot=              1.4253
 Quadrupole moment (field-independent basis, Debye-Ang):
   XX=            -60.2821   YY=            -48.8713   ZZ=            -49.3492
   XY=             -0.6832   XZ=              0.0703   YZ=              2.1537

  Exact polarizability:  74.214   1.024  76.178   2.463   0.833  73.562
 Approx polarizability: 108.272  -2.092 108.670   2.623   3.614 109.311

                      1                      2                      3
                      A                      A                      A
 Frequencies --    167.1987               183.9673               209.2947
 Red. masses --      2.2400                 1.1823                 2.9671
 Frc consts  --      0.0369                 0.0236                 0.0766
 IR Inten    --      1.3343                 1.7259                 8.7054

                      4                      5                      6
                      A                      A                      A
 Frequencies --    224.4648               254.1808               311.0959
 Red. masses --      2.1892                 1.3271                 2.0891
 Frc consts  --      0.0650                 0.0505                 0.1191
 IR Inten    --      1.4908                56.3420                14.2129

                      7                      8                      9
                      A                      A                      A
 Frequencies --    353.3036               446.0695               506.1193
 Red. masses --      4.9257                 2.1839                 3.9480
 Frc consts  --      0.3623                 0.2560                 0.5958
 IR Inten    --     28.1430                 0.2260                 2.8773

                     10                     11                     12
                      A                      A                      A
 Frequencies --    583.4551               640.8985               697.5732
 Red. masses --      4.3162                 3.3035                 3.5741
 Frc consts  --      0.8657                 0.7995                 1.0247
 IR Inten    --      1.7626                 1.3877                 9.4269

                     13                     14                     15
                      A                      A                      A
 Frequencies --    746.4404               769.8236               839.3895
 Red. masses --      3.8598                 3.5995                 2.8196
 Frc consts  --      1.2671                 1.2568                 1.1705
 IR Inten    --      2.9537                 2.0749                21.0404

                     16                     17                     18
                      A                      A                      A
 Frequencies --    878.9652               914.5568               941.8330
 Red. masses --      3.0292                 2.4576                 1.3245
 Frc consts  --      1.3789                 1.2111                 0.6922
 IR Inten    --      1.2037                 4.0649                 9.9116

                     19                     20                     21
                      A                      A                      A
 Frequencies --    946.9060               989.8269              1028.5209
 Red. masses --      2.3631                 1.7970                 2.7442
 Frc consts  --      1.2484                 1.0373                 1.7104
 IR Inten    --     26.7455                17.5784                29.6756

                     22                     23                     24
                      A                      A                      A
 Frequencies --   1062.3398              1073.1219              1112.4419
 Red. masses --      2.1211                 1.9734                 1.7514
 Frc consts  --      1.4104                 1.3389                 1.2770
 IR Inten    --     21.4095                 3.9770                11.7194

                     25                     26                     27
                      A                      A                      A
 Frequencies --   1139.9005              1164.6467              1169.4476
 Red. masses --      1.8902                 2.2401                 1.4635
 Frc consts  --      1.4471                 1.7902                 1.1792
 IR Inten    --     41.7950                 5.8917                 6.8306

                     28                     29                     30
                      A                      A                      A
 Frequencies --   1215.7688              1219.0575              1231.5801
 Red. masses --      1.6217                 1.7294                 1.9230
 Frc consts  --      1.4123                 1.5142                 1.7186
 IR Inten    --      3.4425                12.1418                30.8360

                     31                     32                     33
                      A                      A                      A
 Frequencies --   1248.9675              1294.5604              1321.3724
 Red. masses --      1.5904                 1.5171                 1.3835
 Frc consts  --      1.4617                 1.4980                 1.4233
 IR Inten    --     26.5639                94.2549                13.5237

                     34                     35                     36
                      A                      A                      A
 Frequencies --   1342.1126              1377.6576              1413.3186
 Red. masses --      2.8734                 1.4159                 1.2680
 Frc consts  --      3.0495                 1.5833                 1.4923
 IR Inten    --     36.4500                 8.7602                 0.2120

                     37                     38                     39
                      A                      A                      A
 Frequencies --   1471.3762              1486.9714              1495.8893
 Red. masses --      1.6189                 1.0478                 1.0687
 Frc consts  --      2.0650                 1.3651                 1.4090
 IR Inten    --      2.1524                 4.0240                 3.1304

                     40                     41                     42
                      A                      A                      A
 Frequencies --   1513.2652              1526.4897              2997.3079
 Red. masses --      1.8938                 1.1204                 1.0648
 Frc consts  --      2.5551                 1.5382                 5.6360
 IR Inten    --     11.3151                 1.5426                70.3951

                     43                     44                     45
                      A                      A                      A
 Frequencies --   3025.4418              3036.9117              3045.8410
 Red. masses --      1.0357                 1.0591                 1.0990
 Frc consts  --      5.5855                 5.7551                 6.0069
 IR Inten    --     42.6485                37.6829                52.3382

                     46                     47                     48
                      A                      A                      A
 Frequencies --   3084.4733              3097.5771              3101.4040
 Red. masses --      1.1012                 1.1059                 1.1000
 Frc consts  --      6.1725                 6.2520                 6.2337
 IR Inten    --     21.2819                20.0965                14.6302

                     49                     50                     51
                      A                      A                      A
 Frequencies --   3126.8796              3185.1761              3792.6379
 Red. masses --      1.0905                 1.0903                 1.0661
 Frc consts  --      6.2822                 6.5170                 9.0348
 IR Inten    --     33.3253                 6.9042                22.0247

 - Thermochemistry -
 -------------------
 Temperature   298.150 Kelvin.  Pressure   1.00000 Atm.
 Atom     1 has atomic number  6 and mass  12.00000

 Molecular mass:   126.06808 amu.
 Principal axes and moments of inertia in atomic units:
                           1         2         3
     Eigenvalues --   745.945501051.950831227.23864
           X            0.99740   0.07010   0.01690
           Y           -0.07010   0.99754  -0.00010
           Z           -0.01687  -0.00108   0.99986
 This molecule is an asymmetric top.
 Rotational symmetry number  1.
 Warning -- assumption of classical behavior for rotation
           may cause significant error
 Rotational temperatures (Kelvin)      0.11611     0.08234     0.07058
 Rotational constants (GHZ):           2.41940     1.71561     1.47057
 Zero-point vibrational energy     418739.7 (Joules/Mol)
                                  100.08120 (Kcal/Mol)
 Warning -- explicit consideration of  10 degrees of freedom as
           vibrations may cause significant error
 Vibrational temperatures:    240.56   264.69   301.13   322.95   365.71
          (Kelvin)            447.60   508.32   641.79   728.19   839.46
                              922.11  1003.65  1073.96  1107.60  1207.69
                             1264.63  1315.84  1355.09  1362.38  1424.14
                             1479.81  1528.47  1543.98  1600.55  1640.06
                             1675.66  1682.57  1749.22  1753.95  1771.97
                             1796.98  1862.58  1901.16  1931.00  1982.14
                             2033.45  2116.98  2139.42  2152.25  2177.25
                             2196.28  4312.45  4352.93  4369.43  4382.28
                             4437.86  4456.72  4462.22  4498.88  4582.75
                             5456.75

 Zero-point correction=                           0.159490 (Hartree/Particle)
 Thermal correction to Energy=                    0.167539
 Thermal correction to Enthalpy=                  0.168483
 Thermal correction to Gibbs Free Energy=         0.127452
 Sum of electronic and zero-point Energies=           -422.999684
 Sum of electronic and thermal Energies=              -422.991634
 Sum of electronic and thermal Enthalpies=            -422.990690
 Sum of electronic and thermal Free Energies=         -423.031721

                     E (Thermal)             CV                S
                      KCal/Mol        Cal/Mol-Kelvin    Cal/Mol-Kelvin
 Total                  105.132             31.777             86.357
 Electronic               0.000              0.000              0.000
 Translational            0.889              2.981             40.409
 Rotational               0.889              2.981             28.356
 Vibrational            103.355             25.816             17.593
 Vibration     1          0.624              1.883              2.467
 Vibration     2          0.631              1.862              2.288
 Vibration     3          0.642              1.827              2.050
 Vibration     4          0.649              1.804              1.923
 Vibration     5          0.665              1.756              1.701
 Vibration     6          0.700              1.653              1.356
 Vibration     7          0.730              1.568              1.151
 Vibration     8          0.805              1.370              0.808
 Vibration     9          0.861              1.236              0.643
 Vibration    10          0.940              1.067              0.479

 Normal termination of Gaussian 09 at Mon Jan 27 19:35:37 2020.
