 Gaussian 09, Revision D.01,
 Gaussian 09:  ES64L-G09RevD.01 24-Apr-2013

 -----------------------------
 # b3lyp 6-31G(2df,p) opt Freq
 -----------------------------

 -----
 titel
 -----
 Symbolic Z-matrix:
 Charge =  0 Multiplicity = 1

 SCF Done:  E(RB3LYP) =  -423.210611043     A.U. after   14 cycles
 Optimization completed.
    -- Stationary point found.
 Normal termination of Gaussian 09 at Mon Jan 27 22:04:20 2020.

 ----------------------------------------------------------------------
 #N Geom=AllCheck Guess=TCheck SCRF=Check GenChk RB3LYP/6-31G(2df,p) Fr
 eq
 ----------------------------------------------------------------------

 Structure from the checkpoint file:  "/scratch/puck/g09_9281bc1a-9b5f-4a3d-9f1b-3cbfe44b919f/Gau-15069.chk"
 -----
 titel
 -----
 Charge =  0 Multiplicity = 1

                         Standard orientation:
 ---------------------------------------------------------------------
 Center     Atomic      Atomic             Coordinates (Angstroms)
 Number     Number       Type             X           Y           Z
 ---------------------------------------------------------------------
      1          6           0       -2.569367   -0.504529   -0.894119
      2          6           0       -1.240609   -0.473597   -0.206511
      3          6           0       -0.620911   -1.459760    0.445133
      4          6           0        0.718433   -1.067560    1.011473
      5          6           0        0.910277    0.382232    0.516376
      6          6           0        2.045144    0.538466   -0.477233
      7          8           0        2.777280   -0.340098   -0.853738
      8          6           0       -0.445917    0.815419   -0.142309
      9          8           0       -1.133021    1.844232    0.565937
     10          1           0       -2.458747   -0.331707   -1.972360
     11          1           0       -3.076268   -1.462895   -0.754896
     12          1           0       -3.218347    0.293504   -0.516602
     13          1           0       -1.021381   -2.462359    0.560801
     14          1           0        0.739610   -1.144935    2.105569
     15          1           0        1.527537   -1.702281    0.634529
     16          1           0        1.118385    1.094542    1.323863
     17          1           0        2.155014    1.576340   -0.867705
     18          1           0       -0.286798    1.252075   -1.136737
     19          1           0       -1.415374    1.470621    1.409076
 ---------------------------------------------------------------------

 SCF Done:  E(RB3LYP) =  -423.210611043     A.U. after    1 cycles

 The electronic state is 1-A.
 Alpha  occ. eigenvalues --  -19.14464 -19.14286 -10.27224 -10.24447 -10.19834
 Alpha  occ. eigenvalues --  -10.19010 -10.18788 -10.18670 -10.18538  -1.04958
 Alpha  occ. eigenvalues --   -1.02612  -0.84834  -0.76488  -0.71968  -0.67495
 Alpha  occ. eigenvalues --   -0.62294  -0.56847  -0.53629  -0.49815  -0.49161
 Alpha  occ. eigenvalues --   -0.46005  -0.44283  -0.42768  -0.41926  -0.40849
 Alpha  occ. eigenvalues --   -0.39319  -0.38443  -0.37108  -0.35920  -0.34759
 Alpha  occ. eigenvalues --   -0.32718  -0.27888  -0.25500  -0.24597
 Alpha virt. eigenvalues --   -0.02198   0.01356   0.08105   0.10023   0.11240
 Alpha virt. eigenvalues --    0.12648   0.13003   0.13751   0.16600   0.17284
 Alpha virt. eigenvalues --    0.17730   0.18256   0.19508   0.19748   0.23365

 Mulliken charges:
               1
     1  C   -0.493974
     2  C    0.294523
     3  C   -0.163774
     4  C   -0.285484
     5  C   -0.122808
     6  C    0.144087
     7  O   -0.239884
     8  C    0.014602
     9  O   -0.425949
    10  H    0.130022
    11  H    0.123330
    12  H    0.134343
    13  H    0.094270
    14  H    0.104129
    15  H    0.139276
    16  H    0.101249
    17  H    0.085441
    18  H    0.088874
    19  H    0.277729
 Sum of Mulliken charges =   0.00000

 Dipole moment (field-independent basis, Debye):
    X=             -1.8191    Y=             -0.0492    Z=              1.4687  Tot=              2.3385
 Quadrupole moment (field-independent basis, Debye-Ang):
   XX=            -58.7701   YY=            -55.4659   ZZ=            -50.5996
   XY=              5.2465   XZ=              2.5905   YZ=             -1.0553

  Exact polarizability:  87.101  -3.412  79.925   3.840  -6.044  67.332
 Approx polarizability: 118.376 -17.146 128.032   3.678  -9.904 104.883

                      1                      2                      3
                      A                      A                      A
 Frequencies --     33.5937                81.3615               163.6512
 Red. masses --      4.2606                 4.4407                 1.2082
 Frc consts  --      0.0028                 0.0173                 0.0191
 IR Inten    --      1.0548                 6.1416                 0.8925

                      4                      5                      6
                      A                      A                      A
 Frequencies --    203.4360               237.1536               249.1755
 Red. masses --      2.4641                 2.8785                 2.7398
 Frc consts  --      0.0601                 0.0954                 0.1002
 IR Inten    --      2.5875                 0.0547                 1.7210

                      7                      8                      9
                      A                      A                      A
 Frequencies --    293.2863               350.9710               385.8780
 Red. masses --      2.5252                 1.3627                 3.8671
 Frc consts  --      0.1280                 0.0989                 0.3393
 IR Inten    --      6.5164                48.3879                 3.2214

                     10                     11                     12
                      A                      A                      A
 Frequencies --    405.1277               579.9689               599.1706
 Red. masses --      1.9821                 4.0176                 3.3761
 Frc consts  --      0.1917                 0.7962                 0.7141
 IR Inten    --     48.1653                 1.3721                 4.3318

                     13                     14                     15
                      A                      A                      A
 Frequencies --    682.2453               711.9583               820.4799
 Red. masses --      4.4404                 3.2411                 2.6522
 Frc consts  --      1.2177                 0.9679                 1.0519
 IR Inten    --     14.8377                 0.2520                 9.1067

                     16                     17                     18
                      A                      A                      A
 Frequencies --    832.8274               895.9571               918.3848
 Red. masses --      1.5376                 2.3165                 1.9517
 Frc consts  --      0.6283                 1.0956                 0.9699
 IR Inten    --     10.6197                14.4071                 6.5552

                     19                     20                     21
                      A                      A                      A
 Frequencies --    971.4128               997.0136              1023.9587
 Red. masses --      1.6449                 2.3492                 2.1802
 Frc consts  --      0.9145                 1.3758                 1.3468
 IR Inten    --      1.0572                39.2502                40.3041

                     22                     23                     24
                      A                      A                      A
 Frequencies --   1041.6025              1064.0470              1070.1765
 Red. masses --      1.8689                 1.7625                 2.1787
 Frc consts  --      1.1947                 1.1757                 1.4701
 IR Inten    --      5.6605                18.0963                54.9181

                     25                     26                     27
                      A                      A                      A
 Frequencies --   1088.6904              1173.8846              1192.3531
 Red. masses --      2.0453                 1.5929                 1.1714
 Frc consts  --      1.4283                 1.2933                 0.9812
 IR Inten    --     28.2611                10.2268                11.6150

                     28                     29                     30
                      A                      A                      A
 Frequencies --   1205.5257              1271.5692              1286.5573
 Red. masses --      1.8880                 1.3811                 1.3873
 Frc consts  --      1.6166                 1.3157                 1.3529
 IR Inten    --     15.2195                 2.2708                11.0158

                     31                     32                     33
                      A                      A                      A
 Frequencies --   1317.8266              1329.8238              1359.3650
 Red. masses --      1.5165                 1.9674                 1.8916
 Frc consts  --      1.5517                 2.0499                 2.0594
 IR Inten    --      1.9378                 8.6195                 8.3782

                     34                     35                     36
                      A                      A                      A
 Frequencies --   1410.6785              1422.6660              1433.4862
 Red. masses --      1.2860                 1.2046                 1.1730
 Frc consts  --      1.5078                 1.4365                 1.4202
 IR Inten    --      2.5637                 8.9772                50.0411

                     37                     38                     39
                      A                      A                      A
 Frequencies --   1476.7419              1486.6063              1492.7426
 Red. masses --      1.0448                 1.0960                 1.0544
 Frc consts  --      1.3424                 1.4271                 1.3843
 IR Inten    --      7.3548                 2.7250                10.4901

                     40                     41                     42
                      A                      A                      A
 Frequencies --   1727.4493              1827.6828              2869.5821
 Red. masses --      7.0347                10.3988                 1.0828
 Frc consts  --     12.3681                20.4660                 5.2531
 IR Inten    --      1.2750               159.3586               104.2524

                     43                     44                     45
                      A                      A                      A
 Frequencies --   3022.5221              3026.0583              3027.3506
 Red. masses --      1.0523                 1.0680                 1.0704
 Frc consts  --      5.6642                 5.7621                 5.7799
 IR Inten    --     13.5603                68.8222                 6.9799

                     46                     47                     48
                      A                      A                      A
 Frequencies --   3044.8289              3073.8463              3076.1913
 Red. masses --      1.0807                 1.0954                 1.0954
 Frc consts  --      5.9033                 6.0981                 6.1073
 IR Inten    --     13.2916                 5.6114                14.1369

                     49                     50                     51
                      A                      A                      A
 Frequencies --   3116.5272              3179.8977              3789.4162
 Red. masses --      1.1008                 1.0933                 1.0659
 Frc consts  --      6.2993                 6.5134                 9.0184
 IR Inten    --     16.2452                17.3425                15.9088

 - Thermochemistry -
 -------------------
 Temperature   298.150 Kelvin.  Pressure   1.00000 Atm.
 Atom     1 has atomic number  6 and mass  12.00000

 Molecular mass:   126.06808 amu.
 Principal axes and moments of inertia in atomic units:
                           1         2         3
     Eigenvalues --   706.033271486.615671741.53962
           X            0.99921   0.02703   0.02907
           Y           -0.02607   0.99912  -0.03290
           Z           -0.02993   0.03211   0.99904
 This molecule is an asymmetric top.
 Rotational symmetry number  1.
 Warning -- assumption of classical behavior for rotation
           may cause significant error
 Rotational temperatures (Kelvin)      0.12268     0.05826     0.04973
 Rotational constants (GHZ):           2.55617     1.21399     1.03629
 Zero-point vibrational energy     414761.5 (Joules/Mol)
                                   99.13038 (Kcal/Mol)
 Warning -- explicit consideration of  12 degrees of freedom as
           vibrations may cause significant error
 Vibrational temperatures:     48.33   117.06   235.46   292.70   341.21
          (Kelvin)            358.51   421.97   504.97   555.19   582.89
                              834.44   862.07   981.60  1024.35  1180.49
                             1198.25  1289.08  1321.35  1397.64  1434.48
                             1473.25  1498.63  1530.92  1539.74  1566.38
                             1688.96  1715.53  1734.48  1829.50  1851.07
                             1896.06  1913.32  1955.82  2029.65  2046.90
                             2062.46  2124.70  2138.89  2147.72  2485.41
                             2629.62  4128.68  4348.73  4353.82  4355.68
                             4380.82  4422.57  4425.95  4483.98  4575.16
                             5452.12

 Zero-point correction=                           0.157974 (Hartree/Particle)
 Thermal correction to Energy=                    0.167210
 Thermal correction to Enthalpy=                  0.168154
 Thermal correction to Gibbs Free Energy=         0.123141
 Sum of electronic and zero-point Energies=           -423.052637
 Sum of electronic and thermal Energies=              -423.043401
 Sum of electronic and thermal Enthalpies=            -423.042457
 Sum of electronic and thermal Free Energies=         -423.087470

                     E (Thermal)             CV                S
                      KCal/Mol        Cal/Mol-Kelvin    Cal/Mol-Kelvin
 Total                  104.926             33.689             94.737
 Electronic               0.000              0.000              0.000
 Translational            0.889              2.981             40.409
 Rotational               0.889              2.981             28.993
 Vibrational            103.148             27.727             25.336
 Vibration     1          0.594              1.983              5.605
 Vibration     2          0.600              1.962              3.858
 Vibration     3          0.623              1.887              2.507
 Vibration     4          0.639              1.835              2.102
 Vibration     5          0.656              1.784              1.824
 Vibration     6          0.662              1.764              1.736
 Vibration     7          0.688              1.686              1.455
 Vibration     8          0.728              1.573              1.162
 Vibration     9          0.755              1.500              1.016
 Vibration    10          0.770              1.459              0.944
 Vibration    11          0.937              1.075              0.485
 Vibration    12          0.957              1.034              0.451

 Optimization completed.
    -- Stationary point found.
 Normal termination of Gaussian 09 at Mon Jan 27 22:50:55 2020.
