 Gaussian 09, Revision D.01,
 Gaussian 09:  ES64L-G09RevD.01 24-Apr-2013

 -----------------------------
 # b3lyp 6-31G(2df,p) opt Freq
 -----------------------------

 -----
 titel
 -----
 Symbolic Z-matrix:
 Charge =  0 Multiplicity = 1

 SCF Done:  E(RB3LYP) =  -423.248454282     A.U. after   14 cycles
 Optimization completed.
    -- Stationary point found.
 Normal termination of Gaussian 09 at Mon Jan 27 15:34:59 2020.

 ----------------------------------------------------------------------
 #N Geom=AllCheck Guess=TCheck SCRF=Check GenChk RB3LYP/6-31G(2df,p) Fr
 eq
 ----------------------------------------------------------------------

 Structure from the checkpoint file:  "/scratch/puck/g09_1398fec3-bf0e-420d-a9ff-0d06fe9a8965/Gau-175591.chk"
 -----
 titel
 -----
 Charge =  0 Multiplicity = 1

                         Standard orientation:
 ---------------------------------------------------------------------
 Center     Atomic      Atomic             Coordinates (Angstroms)
 Number     Number       Type             X           Y           Z
 ---------------------------------------------------------------------
      1          6           0        2.397506   -1.117685   -0.457022
      2          6           0        1.502771    0.115425   -0.296080
      3          6           0        1.994475    1.028431    0.846491
      4          6           0        0.057448   -0.239641   -0.097320
      5          6           0       -0.544462   -1.400369    0.172839
      6          6           0       -2.024807   -1.188378    0.273799
      7          8           0       -2.219531    0.202936    0.031608
      8          6           0       -1.007382    0.801076   -0.197548
      9          8           0       -0.901372    1.972336   -0.438101
     10          1           0        2.405386   -1.723751    0.456360
     11          1           0        2.063818   -1.753846   -1.282931
     12          1           0        3.429580   -0.816057   -0.658712
     13          1           0        1.550570    0.709124   -1.219213
     14          1           0        1.971723    0.497288    1.804454
     15          1           0        3.024735    1.346409    0.659210
     16          1           0        1.367473    1.918883    0.926080
     17          1           0       -0.084155   -2.370999    0.302650
     18          1           0       -2.589592   -1.763319   -0.471376
     19          1           0       -2.425616   -1.439061    1.264482
 ---------------------------------------------------------------------

 SCF Done:  E(RB3LYP) =  -423.248454282     A.U. after    1 cycles

 The electronic state is 1-A.
 Alpha  occ. eigenvalues --  -19.17983 -19.11902 -10.29885 -10.25712 -10.21279
 Alpha  occ. eigenvalues --  -10.20686 -10.20337 -10.18334 -10.17650  -1.09832
 Alpha  occ. eigenvalues --   -1.01847  -0.83898  -0.78051  -0.72496  -0.69031
 Alpha  occ. eigenvalues --   -0.62431  -0.58530  -0.55009  -0.50095  -0.49477
 Alpha  occ. eigenvalues --   -0.46727  -0.44533  -0.43732  -0.41608  -0.40781
 Alpha  occ. eigenvalues --   -0.39544  -0.38918  -0.36413  -0.35189  -0.34848
 Alpha  occ. eigenvalues --   -0.34019  -0.30001  -0.27190  -0.26628
 Alpha virt. eigenvalues --   -0.03557   0.07388   0.09078   0.10397   0.12041
 Alpha virt. eigenvalues --    0.12680   0.13938   0.14624   0.15431   0.16406
 Alpha virt. eigenvalues --    0.17338   0.18338   0.18697   0.19659   0.21896

 Mulliken charges:
               1
     1  C   -0.401589
     2  C   -0.069993
     3  C   -0.396337
     4  C    0.179862
     5  C   -0.228085
     6  C   -0.130358
     7  O   -0.226694
     8  C    0.406763
     9  O   -0.355300
    10  H    0.115440
    11  H    0.116053
    12  H    0.118857
    13  H    0.103428
    14  H    0.111832
    15  H    0.114322
    16  H    0.149412
    17  H    0.122877
    18  H    0.134810
    19  H    0.134698
 Sum of Mulliken charges =   0.00000

 Dipole moment (field-independent basis, Debye):
    X=              1.2040    Y=             -4.0712    Z=              0.6713  Tot=              4.2983
 Quadrupole moment (field-independent basis, Debye-Ang):
   XX=            -52.9993   YY=            -56.0592   ZZ=            -52.6729
   XY=              6.3569   XZ=             -1.4463   YZ=              0.6694

  Exact polarizability:  88.427   9.678  88.082  -2.556  -3.494  57.802
 Approx polarizability: 116.186  18.650 148.825  -5.222 -12.813  89.028

                      1                      2                      3
                      A                      A                      A
 Frequencies --     55.1443               142.1781               179.2978
 Red. masses --      3.1402                 3.9499                 3.7545
 Frc consts  --      0.0056                 0.0470                 0.0711
 IR Inten    --      2.7800                 0.1024                 4.8581

                      4                      5                      6
                      A                      A                      A
 Frequencies --    212.7636               245.5064               271.9043
 Red. masses --      3.1440                 1.0307                 1.1583
 Frc consts  --      0.0839                 0.0366                 0.0505
 IR Inten    --      0.4950                 0.0210                 0.6439

                      7                      8                      9
                      A                      A                      A
 Frequencies --    303.2581               324.8765               397.2025
 Red. masses --      2.5195                 2.4000                 2.7542
 Frc consts  --      0.1365                 0.1492                 0.2560
 IR Inten    --      1.0441                 3.6045                 1.1999

                     10                     11                     12
                      A                      A                      A
 Frequencies --    488.6220               581.9725               598.0649
 Red. masses --      3.7428                 6.4305                 3.1274
 Frc consts  --      0.5265                 1.2832                 0.6591
 IR Inten    --      0.5949                 1.1220                 1.6869

                     13                     14                     15
                      A                      A                      A
 Frequencies --    756.5369               795.6140               799.8866
 Red. masses --      6.0542                 4.3094                 6.7428
 Frc consts  --      2.0416                 1.6072                 2.5418
 IR Inten    --      1.9844                 4.1726                 0.2404

                     16                     17                     18
                      A                      A                      A
 Frequencies --    850.4308               882.8170               930.9183
 Red. masses --      1.3674                 2.6655                 1.1734
 Frc consts  --      0.5827                 1.2240                 0.5991
 IR Inten    --     17.5751                 2.7513                 1.1086

                     19                     20                     21
                      A                      A                      A
 Frequencies --    957.8733               971.7495              1028.6139
 Red. masses --      2.0499                 1.5068                 1.7623
 Frc consts  --      1.1082                 0.8383                 1.0986
 IR Inten    --      5.7700                 0.2191                 7.0143

                     22                     23                     24
                      A                      A                      A
 Frequencies --   1035.3136              1085.3226              1112.4838
 Red. masses --      3.5063                 3.8749                 1.7648
 Frc consts  --      2.2143                 2.6892                 1.2869
 IR Inten    --    106.9044                49.3602                22.5429

                     25                     26                     27
                      A                      A                      A
 Frequencies --   1131.1936              1175.2627              1201.0997
 Red. masses --      2.3427                 2.2880                 1.0905
 Frc consts  --      1.7662                 1.8620                 0.9269
 IR Inten    --      4.5531                20.3265                 0.0012

                     28                     29                     30
                      A                      A                      A
 Frequencies --   1223.7203              1296.9482              1327.8703
 Red. masses --      1.9919                 1.9288                 1.3472
 Frc consts  --      1.7574                 1.9115                 1.3996
 IR Inten    --     16.7632                 3.7499                 0.6919

                     31                     32                     33
                      A                      A                      A
 Frequencies --   1371.1638              1381.8040              1397.2103
 Red. masses --      1.6506                 1.6725                 1.3136
 Frc consts  --      1.8284                 1.8816                 1.5109
 IR Inten    --     36.0246                 4.6304                 7.9939

                     34                     35                     36
                      A                      A                      A
 Frequencies --   1417.9835              1491.0016              1491.3546
 Red. masses --      1.2292                 1.0477                 1.0498
 Frc consts  --      1.4562                 1.3722                 1.3757
 IR Inten    --      2.8816                 0.7935                 4.2583

                     37                     38                     39
                      A                      A                      A
 Frequencies --   1494.7522              1504.3906              1515.4572
 Red. masses --      1.0883                 1.0476                 1.0572
 Frc consts  --      1.4326                 1.3969                 1.4306
 IR Inten    --      4.2589                 6.0263                 6.3350

                     40                     41                     42
                      A                      A                      A
 Frequencies --   1706.4163              1856.2818              3015.6231
 Red. masses --      7.7505                12.8850                 1.0809
 Frc consts  --     13.2969                26.1590                 5.7915
 IR Inten    --      4.1057               344.3036                 4.6848

                     43                     44                     45
                      A                      A                      A
 Frequencies --   3021.9106              3029.8338              3037.0894
 Red. masses --      1.0570                 1.0362                 1.0372
 Frc consts  --      5.6869                 5.6043                 5.6369
 IR Inten    --     34.4757                18.2491                27.4932

                     46                     47                     48
                      A                      A                      A
 Frequencies --   3052.6306              3095.4335              3103.7379
 Red. masses --      1.1059                 1.1002                 1.1015
 Frc consts  --      6.0717                 6.2111                 6.2520
 IR Inten    --     15.8872                16.0693                31.5033

                     49                     50                     51
                      A                      A                      A
 Frequencies --   3109.4621              3135.1839              3223.8290
 Red. masses --      1.1013                 1.1005                 1.0957
 Frc consts  --      6.2740                 6.3733                 6.7091
 IR Inten    --     34.5902                 9.8823                 3.2640

 - Thermochemistry -
 -------------------
 Temperature   298.150 Kelvin.  Pressure   1.00000 Atm.
 Atom     1 has atomic number  6 and mass  12.00000

 Molecular mass:   126.06808 amu.
 Principal axes and moments of inertia in atomic units:
                           1         2         3
     Eigenvalues --   680.274851354.514841839.72597
           X            0.99950   0.03162  -0.00145
           Y           -0.03159   0.99928   0.02118
           Z            0.00212  -0.02112   0.99977
 This molecule is an asymmetric top.
 Rotational symmetry number  1.
 Warning -- assumption of classical behavior for rotation
           may cause significant error
 Rotational temperatures (Kelvin)      0.12732     0.06394     0.04708
 Rotational constants (GHZ):           2.65296     1.33239     0.98098
 Zero-point vibrational energy     417598.4 (Joules/Mol)
                                   99.80841 (Kcal/Mol)
 Warning -- explicit consideration of  12 degrees of freedom as
           vibrations may cause significant error
 Vibrational temperatures:     79.34   204.56   257.97   306.12   353.23
          (Kelvin)            391.21   436.32   467.42   571.49   703.02
                              837.33   860.48  1088.49  1144.71  1150.86
                             1223.58  1270.18  1339.38  1378.16  1398.13
                             1479.94  1489.58  1561.54  1600.61  1627.53
                             1690.94  1728.11  1760.66  1866.02  1910.51
                             1972.80  1988.11  2010.27  2040.16  2145.22
                             2145.72  2150.61  2164.48  2180.40  2455.15
                             2670.77  4338.80  4347.85  4359.25  4369.69
                             4392.05  4453.63  4465.58  4473.82  4510.82
                             4638.37

 Zero-point correction=                           0.159055 (Hartree/Particle)
 Thermal correction to Energy=                    0.167908
 Thermal correction to Enthalpy=                  0.168852
 Thermal correction to Gibbs Free Energy=         0.125286
 Sum of electronic and zero-point Energies=           -423.089399
 Sum of electronic and thermal Energies=              -423.080547
 Sum of electronic and thermal Enthalpies=            -423.079603
 Sum of electronic and thermal Free Energies=         -423.123168

                     E (Thermal)             CV                S
                      KCal/Mol        Cal/Mol-Kelvin    Cal/Mol-Kelvin
 Total                  105.364             32.879             91.691
 Electronic               0.000              0.000              0.000
 Translational            0.889              2.981             40.409
 Rotational               0.889              2.981             28.918
 Vibrational            103.586             26.918             22.364
 Vibration     1          0.596              1.976              4.624
 Vibration     2          0.616              1.911              2.774
 Vibration     3          0.629              1.868              2.336
 Vibration     4          0.644              1.821              2.020
 Vibration     5          0.660              1.770              1.763
 Vibration     6          0.675              1.725              1.584
 Vibration     7          0.695              1.668              1.399
 Vibration     8          0.709              1.626              1.285
 Vibration     9          0.764              1.476              0.973
 Vibration    10          0.845              1.275              0.687
 Vibration    11          0.939              1.070              0.482
 Vibration    12          0.956              1.036              0.453

 Optimization completed.
    -- Stationary point found.
 Normal termination of Gaussian 09 at Mon Jan 27 16:16:09 2020.
