 Gaussian 09, Revision D.01,
 Gaussian 09:  ES64L-G09RevD.01 24-Apr-2013

 -----------------------------
 # b3lyp 6-31G(2df,p) opt Freq
 -----------------------------

 -----
 titel
 -----
 Symbolic Z-matrix:
 Charge =  0 Multiplicity = 1

 SCF Done:  E(RB3LYP) =  -423.117230755     A.U. after   13 cycles
 Optimization completed.
    -- Stationary point found.
 Normal termination of Gaussian 09 at Mon Jan 27 15:42:25 2020.

 ----------------------------------------------------------------------
 #N Geom=AllCheck Guess=TCheck SCRF=Check GenChk RB3LYP/6-31G(2df,p) Fr
 eq
 ----------------------------------------------------------------------

 Structure from the checkpoint file:  "/scratch/puck/g09_de1bbeb6-4543-4833-9e32-4555ba0cfa1c/Gau-8843.chk"
 -----
 titel
 -----
 Charge =  0 Multiplicity = 1

                         Standard orientation:
 ---------------------------------------------------------------------
 Center     Atomic      Atomic             Coordinates (Angstroms)
 Number     Number       Type             X           Y           Z
 ---------------------------------------------------------------------
      1          6           0        2.115273    1.227824   -0.406017
      2          6           0        1.508383    0.094140    0.428834
      3          8           0        2.148791   -1.148130    0.159644
      4          6           0        0.035062   -0.028145    0.198863
      5          8           0       -0.383648   -0.426341   -1.119115
      6          6           0       -1.693396   -0.681378   -0.529302
      7          6           0       -2.228780    0.740589   -0.222090
      8          6           0       -1.108632    0.792321    0.818945
      9          6           0       -1.065369   -0.735688    0.911304
     10          1           0        1.711571    2.199268   -0.103119
     11          1           0        3.200276    1.238756   -0.277595
     12          1           0        1.889238    1.080755   -1.466675
     13          1           0        1.674674    0.292297    1.494837
     14          1           0        1.771397   -1.473069   -0.666836
     15          1           0       -2.266072   -1.442243   -1.054797
     16          1           0       -2.223209    1.452291   -1.053456
     17          1           0       -3.211932    0.708619    0.254303
     18          1           0       -0.947803    1.514171    1.609640
     19          1           0       -1.094532   -1.433057    1.736242
 ---------------------------------------------------------------------

 SCF Done:  E(RB3LYP) =  -423.117230755     A.U. after    1 cycles

 The electronic state is 1-A.
 Alpha  occ. eigenvalues --  -19.14107 -19.12658 -10.24867 -10.24089 -10.23632
 Alpha  occ. eigenvalues --  -10.20124 -10.19556 -10.19191 -10.17111  -1.06590
 Alpha  occ. eigenvalues --   -1.00980  -0.86126  -0.76688  -0.71811  -0.65339
 Alpha  occ. eigenvalues --   -0.62610  -0.56147  -0.54295  -0.53436  -0.48121
 Alpha  occ. eigenvalues --   -0.45796  -0.44383  -0.42764  -0.41919  -0.40984
 Alpha  occ. eigenvalues --   -0.38606  -0.36848  -0.36509  -0.34221  -0.31865
 Alpha  occ. eigenvalues --   -0.29457  -0.27533  -0.25879  -0.23716
 Alpha virt. eigenvalues --    0.07414   0.09137   0.10133   0.11088   0.12323
 Alpha virt. eigenvalues --    0.14019   0.14725   0.14838   0.15380   0.16724
 Alpha virt. eigenvalues --    0.17323   0.18201   0.19029   0.19713   0.20925

 Mulliken charges:
               1
     1  C   -0.396984
     2  C   -0.004318
     3  O   -0.432828
     4  C    0.499708
     5  O   -0.348358
     6  C    0.064305
     7  C   -0.234933
     8  C   -0.170951
     9  C   -0.215271
    10  H    0.113188
    11  H    0.121023
    12  H    0.128580
    13  H    0.090132
    14  H    0.287407
    15  H    0.089475
    16  H    0.102887
    17  H    0.107284
    18  H    0.093964
    19  H    0.105691
 Sum of Mulliken charges =   0.00000

 Dipole moment (field-independent basis, Debye):
    X=             -1.8136    Y=              0.6900    Z=              0.6540  Tot=              2.0477
 Quadrupole moment (field-independent basis, Debye-Ang):
   XX=            -53.8384   YY=            -52.4806   ZZ=            -52.6384
   XY=              3.4781   XZ=             -1.0978   YZ=              1.9076

  Exact polarizability:  84.670   0.750  71.222   1.074   0.989  67.096
 Approx polarizability: 111.349  -0.963 107.974   0.410   3.457 106.218

                      1                      2                      3
                      A                      A                      A
 Frequencies --     73.1850               132.3863               177.6439
 Red. masses --      3.8669                 3.4226                 2.7272
 Frc consts  --      0.0122                 0.0353                 0.0507
 IR Inten    --      3.2987                 0.5775                 5.0795

                      4                      5                      6
                      A                      A                      A
 Frequencies --    244.1793               318.1371               335.5812
 Red. masses --      1.1436                 2.0498                 1.6748
 Frc consts  --      0.0402                 0.1222                 0.1111
 IR Inten    --      1.3627                15.9565                52.5226

                      7                      8                      9
                      A                      A                      A
 Frequencies --    382.5573               469.0078               484.7978
 Red. masses --      2.3616                 2.3912                 2.9202
 Frc consts  --      0.2036                 0.3099                 0.4044
 IR Inten    --     47.5431                 2.7662                 7.8672

                     10                     11                     12
                      A                      A                      A
 Frequencies --    580.4796               659.1854               783.3393
 Red. masses --      3.9658                 2.9565                 3.2523
 Frc consts  --      0.7873                 0.7569                 1.1758
 IR Inten    --      1.1835                11.2538                12.8058

                     13                     14                     15
                      A                      A                      A
 Frequencies --    799.0740               805.0803               830.4188
 Red. masses --      2.1122                 3.0941                 1.8273
 Frc consts  --      0.7946                 1.1816                 0.7424
 IR Inten    --      8.8836                 4.1943                 2.5916

                     16                     17                     18
                      A                      A                      A
 Frequencies --    877.3891               904.8171               929.5527
 Red. masses --      2.3588                 2.0421                 3.1973
 Frc consts  --      1.0698                 0.9850                 1.6277
 IR Inten    --      5.2985                32.9091                24.6716

                     19                     20                     21
                      A                      A                      A
 Frequencies --    939.7165               952.5731               987.1769
 Red. masses --      1.8244                 1.9315                 2.0725
 Frc consts  --      0.9492                 1.0326                 1.1900
 IR Inten    --     15.6678                13.6326                35.1309

                     22                     23                     24
                      A                      A                      A
 Frequencies --   1003.8046              1038.5568              1067.5315
 Red. masses --      2.0260                 2.6874                 1.6316
 Frc consts  --      1.2028                 1.7078                 1.0955
 IR Inten    --      4.3889                22.8818                12.9205

                     25                     26                     27
                      A                      A                      A
 Frequencies --   1088.6255              1100.0893              1108.1264
 Red. masses --      2.1040                 3.0889                 1.6435
 Frc consts  --      1.4691                 2.2025                 1.1891
 IR Inten    --      1.9765                53.9603                28.8290

                     28                     29                     30
                      A                      A                      A
 Frequencies --   1147.4889              1162.6404              1179.2359
 Red. masses --      1.8569                 1.5973                 1.7366
 Frc consts  --      1.4406                 1.2721                 1.4229
 IR Inten    --     12.5752                 8.7752                 5.1222

                     31                     32                     33
                      A                      A                      A
 Frequencies --   1244.1215              1268.4160              1282.3595
 Red. masses --      1.7258                 1.5230                 1.6481
 Frc consts  --      1.5738                 1.4437                 1.5969
 IR Inten    --      8.3669                 6.5756                 6.1493

                     34                     35                     36
                      A                      A                      A
 Frequencies --   1312.8420              1336.6557              1398.8185
 Red. masses --      1.6404                 1.3934                 1.2627
 Frc consts  --      1.6658                 1.4667                 1.4557
 IR Inten    --     15.9488                 9.1024                 9.2594

                     37                     38                     39
                      A                      A                      A
 Frequencies --   1408.4039              1461.4578              1487.5995
 Red. masses --      1.4395                 1.9602                 1.1195
 Frc consts  --      1.6823                 2.4667                 1.4597
 IR Inten    --     53.3854                14.2968                 0.8729

                     40                     41                     42
                      A                      A                      A
 Frequencies --   1490.3705              1502.5085              3040.1618
 Red. masses --      1.0690                 1.2584                 1.0379
 Frc consts  --      1.3990                 1.6738                 5.6520
 IR Inten    --      9.4263                 4.6447                12.0813

                     43                     44                     45
                      A                      A                      A
 Frequencies --   3040.9926              3050.5886              3112.8469
 Red. masses --      1.0811                 1.0571                 1.1011
 Frc consts  --      5.8902                 5.7962                 6.2864
 IR Inten    --     19.6902                44.8851                22.8438

                     46                     47                     48
                      A                      A                      A
 Frequencies --   3114.0965              3127.7987              3148.2754
 Red. masses --      1.1078                 1.1027                 1.0927
 Frc consts  --      6.3296                 6.3559                 6.3813
 IR Inten    --     21.5197                21.8263                37.1402

                     49                     50                     51
                      A                      A                      A
 Frequencies --   3197.8011              3219.1885              3787.9147
 Red. masses --      1.0914                 1.0998                 1.0658
 Frc consts  --      6.5754                 6.7152                 9.0098
 IR Inten    --     11.3000                 5.1369                25.0268

 - Thermochemistry -
 -------------------
 Temperature   298.150 Kelvin.  Pressure   1.00000 Atm.
 Atom     1 has atomic number  6 and mass  12.00000

 Molecular mass:   126.06808 amu.
 Principal axes and moments of inertia in atomic units:
                           1         2         3
     Eigenvalues --   525.160081375.647201472.66428
           X            0.99970   0.02293  -0.00804
           Y           -0.02312   0.99946  -0.02341
           Z            0.00749   0.02359   0.99969
 This molecule is an asymmetric top.
 Rotational symmetry number  1.
 Warning -- assumption of classical behavior for rotation
           may cause significant error
 Rotational temperatures (Kelvin)      0.16493     0.06296     0.05881
 Rotational constants (GHZ):           3.43655     1.31192     1.22549
 Zero-point vibrational energy     416274.1 (Joules/Mol)
                                   99.49190 (Kcal/Mol)
 Warning -- explicit consideration of  10 degrees of freedom as
           vibrations may cause significant error
 Vibrational temperatures:    105.30   190.47   255.59   351.32   457.73
          (Kelvin)            482.83   550.41   674.80   697.51   835.18
                              948.42  1127.05  1149.69  1158.33  1194.79
                             1262.37  1301.83  1337.42  1352.04  1370.54
                             1420.33  1444.25  1494.25  1535.94  1566.29
                             1582.78  1594.34  1650.98  1672.78  1696.66
                             1790.01  1824.97  1845.03  1888.88  1923.15
                             2012.59  2026.38  2102.71  2140.32  2144.31
                             2161.77  4374.11  4375.30  4389.11  4478.69
                             4480.48  4500.20  4529.66  4600.92  4631.69
                             5449.96

 Zero-point correction=                           0.158550 (Hartree/Particle)
 Thermal correction to Energy=                    0.166746
 Thermal correction to Enthalpy=                  0.167690
 Thermal correction to Gibbs Free Energy=         0.125786
 Sum of electronic and zero-point Energies=           -422.958680
 Sum of electronic and thermal Energies=              -422.950485
 Sum of electronic and thermal Enthalpies=            -422.949540
 Sum of electronic and thermal Free Energies=         -422.991445

                     E (Thermal)             CV                S
                      KCal/Mol        Cal/Mol-Kelvin    Cal/Mol-Kelvin
 Total                  104.635             32.011             88.195
 Electronic               0.000              0.000              0.000
 Translational            0.889              2.981             40.409
 Rotational               0.889              2.981             28.455
 Vibrational            102.857             26.050             19.331
 Vibration     1          0.599              1.967              4.066
 Vibration     2          0.613              1.921              2.911
 Vibration     3          0.628              1.870              2.353
 Vibration     4          0.660              1.772              1.772
 Vibration     5          0.705              1.639              1.320
 Vibration     6          0.717              1.604              1.233
 Vibration     7          0.752              1.507              1.029
 Vibration     8          0.826              1.319              0.740
 Vibration     9          0.841              1.284              0.697
 Vibration    10          0.937              1.074              0.484

 Optimization completed.
    -- Stationary point found.
 Normal termination of Gaussian 09 at Mon Jan 27 17:35:16 2020.
