 Gaussian 09, Revision D.01,
 Gaussian 09:  ES64L-G09RevD.01 24-Apr-2013

 -----------------------------
 # b3lyp 6-31G(2df,p) opt Freq
 -----------------------------

 -----
 titel
 -----
 Symbolic Z-matrix:
 Charge =  0 Multiplicity = 1

 SCF Done:  E(RB3LYP) =  -423.154837212     A.U. after   14 cycles
 Optimization completed.
    -- Stationary point found.
 Normal termination of Gaussian 09 at Mon Jan 27 22:00:23 2020.

 ----------------------------------------------------------------------
 #N Geom=AllCheck Guess=TCheck SCRF=Check GenChk RB3LYP/6-31G(2df,p) Fr
 eq
 ----------------------------------------------------------------------

 Structure from the checkpoint file:  "/scratch/puck/g09_709c2adb-2bdc-4bc7-9b9b-53225c8e224e/Gau-125553.chk"
 -----
 titel
 -----
 Charge =  0 Multiplicity = 1

                         Standard orientation:
 ---------------------------------------------------------------------
 Center     Atomic      Atomic             Coordinates (Angstroms)
 Number     Number       Type             X           Y           Z
 ---------------------------------------------------------------------
      1          6           0        0.866915    1.938370   -0.542238
      2          6           0        0.177622    0.718472    0.047554
      3          6           0       -1.212094    0.986269    0.651628
      4          6           0       -1.988049   -0.318539    0.418022
      5          8           0       -1.474465   -0.852715   -0.800851
      6          6           0       -0.100449   -0.550474   -0.872098
      7          6           0        0.796128   -1.375292    0.071929
      8          8           0        2.077966   -0.736902    0.072837
      9          6           0        1.055013   -0.202785    0.922254
     10          1           0        1.016550    2.714859    0.217170
     11          1           0        1.844176    1.666254   -0.948739
     12          1           0        0.266507    2.374363   -1.348150
     13          1           0       -1.171252    1.264661    1.709263
     14          1           0       -1.687359    1.809765    0.109002
     15          1           0       -1.836082   -1.025057    1.247126
     16          1           0       -3.063424   -0.172827    0.288395
     17          1           0        0.201447   -0.527675   -1.921380
     18          1           0        0.752467   -2.432747    0.307250
     19          1           0        1.278444   -0.130772    1.981878
 ---------------------------------------------------------------------

 SCF Done:  E(RB3LYP) =  -423.154837212     A.U. after    1 cycles

 The electronic state is 1-A.
 Alpha  occ. eigenvalues --  -19.15477 -19.14328 -10.23656 -10.23367 -10.23314
 Alpha  occ. eigenvalues --  -10.23068 -10.20165 -10.18977 -10.17514  -1.08186
 Alpha  occ. eigenvalues --   -1.03933  -0.81679  -0.75640  -0.70883  -0.65071
 Alpha  occ. eigenvalues --   -0.63313  -0.59110  -0.54443  -0.50171  -0.49098
 Alpha  occ. eigenvalues --   -0.48698  -0.44396  -0.42536  -0.41925  -0.41111
 Alpha  occ. eigenvalues --   -0.39415  -0.37336  -0.35414  -0.34722  -0.32893
 Alpha  occ. eigenvalues --   -0.31316  -0.29082  -0.27092  -0.23986
 Alpha virt. eigenvalues --    0.08034   0.08823   0.10409   0.11602   0.12142
 Alpha virt. eigenvalues --    0.13549   0.14697   0.14890   0.15380   0.16149
 Alpha virt. eigenvalues --    0.16963   0.18673   0.19168   0.19972   0.21816

 Mulliken charges:
               1
     1  C   -0.483864
     2  C    0.280443
     3  C   -0.287003
     4  C   -0.094067
     5  O   -0.258257
     6  C    0.040299
     7  C   -0.014173
     8  O   -0.247681
     9  C   -0.020552
    10  H    0.113734
    11  H    0.136256
    12  H    0.117048
    13  H    0.102623
    14  H    0.110183
    15  H    0.097243
    16  H    0.112509
    17  H    0.088940
    18  H    0.107541
    19  H    0.098779
 Sum of Mulliken charges =   0.00000

 Dipole moment (field-independent basis, Debye):
    X=             -1.1035    Y=              0.8921    Z=              1.5128  Tot=              2.0741
 Quadrupole moment (field-independent basis, Debye-Ang):
   XX=            -58.0986   YY=            -51.9955   ZZ=            -51.4567
   XY=             -0.7231   XZ=             -1.5541   YZ=             -1.0465

  Exact polarizability:  76.336  -0.494  75.833  -1.145   0.410  67.540
 Approx polarizability: 110.938  -0.482 108.031  -0.251   5.514 105.421

                      1                      2                      3
                      A                      A                      A
 Frequencies --    144.9105               198.3424               230.1160
 Red. masses --      2.8574                 2.6851                 1.0407
 Frc consts  --      0.0354                 0.0622                 0.0325
 IR Inten    --      0.7542                 0.1846                 0.0148

                      4                      5                      6
                      A                      A                      A
 Frequencies --    253.4090               289.3199               342.2063
 Red. masses --      2.7284                 3.3279                 2.2274
 Frc consts  --      0.1032                 0.1641                 0.1537
 IR Inten    --      1.4007                 8.5988                 0.9861

                      7                      8                      9
                      A                      A                      A
 Frequencies --    411.8850               502.8451               606.9550
 Red. masses --      3.7456                 6.4382                 3.4108
 Frc consts  --      0.3744                 0.9591                 0.7403
 IR Inten    --      4.1463                 3.3040                 2.6825

                     10                     11                     12
                      A                      A                      A
 Frequencies --    642.9209               665.4751               816.6268
 Red. masses --      3.5095                 3.3908                 2.1062
 Frc consts  --      0.8547                 0.8847                 0.8275
 IR Inten    --      2.5573                 3.9590                 7.0390

                     13                     14                     15
                      A                      A                      A
 Frequencies --    845.1162               860.8351               885.7260
 Red. masses --      2.6356                 2.9655                 2.6385
 Frc consts  --      1.1091                 1.2947                 1.2196
 IR Inten    --     19.3098                10.8217                14.5436

                     16                     17                     18
                      A                      A                      A
 Frequencies --    894.6696               928.9253               968.0368
 Red. masses --      1.8772                 2.2298                 2.6322
 Frc consts  --      0.8853                 1.1336                 1.4533
 IR Inten    --      5.1391                 4.1332                 8.9018

                     19                     20                     21
                      A                      A                      A
 Frequencies --    979.3710               986.8026              1007.9267
 Red. masses --      2.0592                 2.0607                 2.2524
 Frc consts  --      1.1637                 1.1823                 1.3482
 IR Inten    --     11.1479                10.7411                 7.0870

                     22                     23                     24
                      A                      A                      A
 Frequencies --   1047.2260              1068.6126              1112.8115
 Red. masses --      1.6290                 1.4311                 5.3772
 Frc consts  --      1.0526                 0.9629                 3.9233
 IR Inten    --      1.5966                 1.0009                89.6386

                     25                     26                     27
                      A                      A                      A
 Frequencies --   1145.8172              1166.4254              1188.2975
 Red. masses --      2.1766                 1.9142                 1.7416
 Frc consts  --      1.6837                 1.5345                 1.4489
 IR Inten    --     14.5431                 4.9384                 7.0585

                     28                     29                     30
                      A                      A                      A
 Frequencies --   1228.7498              1234.8612              1239.8900
 Red. masses --      1.4254                 1.4987                 1.8064
 Frc consts  --      1.2680                 1.3465                 1.6362
 IR Inten    --      8.4718                 3.8927                 5.8916

                     31                     32                     33
                      A                      A                      A
 Frequencies --   1255.2706              1283.8682              1330.3652
 Red. masses --      1.3829                 1.8453                 1.4290
 Frc consts  --      1.2838                 1.7920                 1.4902
 IR Inten    --      2.5554                 0.7378                 5.3624

                     34                     35                     36
                      A                      A                      A
 Frequencies --   1355.7304              1375.0717              1392.4460
 Red. masses --      1.6211                 3.2832                 1.3825
 Frc consts  --      1.7556                 3.6576                 1.5794
 IR Inten    --      5.0134                14.8527                 6.7074

                     37                     38                     39
                      A                      A                      A
 Frequencies --   1406.7329              1484.4945              1490.3698
 Red. masses --      1.3224                 1.0899                 1.0533
 Frc consts  --      1.5418                 1.4151                 1.3784
 IR Inten    --      2.6393                 1.7755                 4.5515

                     40                     41                     42
                      A                      A                      A
 Frequencies --   1502.9575              1517.8811              2995.3235
 Red. masses --      1.0519                 1.0924                 1.0707
 Frc consts  --      1.4000                 1.4828                 5.6597
 IR Inten    --      5.0867                 0.4806                52.5810

                     43                     44                     45
                      A                      A                      A
 Frequencies --   3027.2618              3048.2429              3087.1737
 Red. masses --      1.0373                 1.0600                 1.0984
 Frc consts  --      5.6011                 5.8029                 6.1680
 IR Inten    --     24.1613                25.9703                14.8272

                     46                     47                     48
                      A                      A                      A
 Frequencies --   3089.3099              3093.6412              3099.7609
 Red. masses --      1.0965                 1.0908                 1.1011
 Frc consts  --      6.1658                 6.1509                 6.2337
 IR Inten    --     35.7870                15.9307                45.2634

                     49                     50                     51
                      A                      A                      A
 Frequencies --   3119.9915              3165.7415              3187.2422
 Red. masses --      1.0998                 1.0885                 1.0997
 Frc consts  --      6.3077                 6.4271                 6.5819
 IR Inten    --     14.1631                18.4981                17.1108

 - Thermochemistry -
 -------------------
 Temperature   298.150 Kelvin.  Pressure   1.00000 Atm.
 Atom     1 has atomic number  6 and mass  12.00000

 Molecular mass:   126.06808 amu.
 Principal axes and moments of inertia in atomic units:
                           1         2         3
     Eigenvalues --   695.26025 995.637021295.38266
           X            0.99930   0.02300  -0.02936
           Y           -0.02408   0.99902  -0.03713
           Z            0.02848   0.03781   0.99888
 This molecule is an asymmetric top.
 Rotational symmetry number  1.
 Warning -- assumption of classical behavior for rotation
           may cause significant error
 Rotational temperatures (Kelvin)      0.12458     0.08699     0.06686
 Rotational constants (GHZ):           2.59578     1.81265     1.39321
 Zero-point vibrational energy     419913.1 (Joules/Mol)
                                  100.36164 (Kcal/Mol)
 Warning -- explicit consideration of   9 degrees of freedom as
           vibrations may cause significant error
 Vibrational temperatures:    208.49   285.37   331.09   364.60   416.27
          (Kelvin)            492.36   592.61   723.48   873.27   925.02
                              957.47  1174.94  1215.93  1238.55  1274.36
                             1287.23  1336.51  1392.79  1409.09  1419.79
                             1450.18  1506.72  1537.49  1601.09  1648.57
                             1678.22  1709.69  1767.89  1776.69  1783.92
                             1806.05  1847.20  1914.10  1950.59  1978.42
                             2003.42  2023.97  2135.85  2144.31  2162.42
                             2183.89  4309.60  4355.55  4385.74  4441.75
                             4444.82  4451.05  4459.86  4488.97  4554.79
                             4585.72

 Zero-point correction=                           0.159936 (Hartree/Particle)
 Thermal correction to Energy=                    0.167516
 Thermal correction to Enthalpy=                  0.168461
 Thermal correction to Gibbs Free Energy=         0.128266
 Sum of electronic and zero-point Energies=           -422.994901
 Sum of electronic and thermal Energies=              -422.987321
 Sum of electronic and thermal Enthalpies=            -422.986377
 Sum of electronic and thermal Free Energies=         -423.026571

                     E (Thermal)             CV                S
                      KCal/Mol        Cal/Mol-Kelvin    Cal/Mol-Kelvin
 Total                  105.118             30.268             84.597
 Electronic               0.000              0.000              0.000
 Translational            0.889              2.981             40.409
 Rotational               0.889              2.981             28.285
 Vibrational            103.341             24.307             15.903
 Vibration     1          0.616              1.908              2.738
 Vibration     2          0.637              1.842              2.148
 Vibration     3          0.652              1.795              1.878
 Vibration     4          0.665              1.757              1.707
 Vibration     5          0.686              1.694              1.478
 Vibration     6          0.721              1.591              1.202
 Vibration     7          0.776              1.444              0.920
 Vibration     8          0.858              1.244              0.651
 Vibration     9          0.966              1.017              0.438

 Optimization completed.
    -- Stationary point found.
 Normal termination of Gaussian 09 at Mon Jan 27 22:44:48 2020.
