 Gaussian 09, Revision D.01,
 Gaussian 09:  ES64L-G09RevD.01 24-Apr-2013

 -----------------------------
 # b3lyp 6-31G(2df,p) opt Freq
 -----------------------------

 -----
 titel
 -----
 Symbolic Z-matrix:
 Charge =  0 Multiplicity = 1

 SCF Done:  E(RB3LYP) =  -423.207290980     A.U. after   14 cycles
 Optimization completed.
    -- Stationary point found.
 Normal termination of Gaussian 09 at Tue Jan 28 02:15:38 2020.

 ----------------------------------------------------------------------
 #N Geom=AllCheck Guess=TCheck SCRF=Check GenChk RB3LYP/6-31G(2df,p) Fr
 eq
 ----------------------------------------------------------------------

 Structure from the checkpoint file:  "/scratch/puck/g09_0dc09835-da28-46fe-a16a-07b6d7b976a5/Gau-112168.chk"
 -----
 titel
 -----
 Charge =  0 Multiplicity = 1

                         Standard orientation:
 ---------------------------------------------------------------------
 Center     Atomic      Atomic             Coordinates (Angstroms)
 Number     Number       Type             X           Y           Z
 ---------------------------------------------------------------------
      1          6           0       -3.239021   -0.881807   -0.393875
      2          6           0       -2.193159   -0.096153    0.364718
      3          6           0       -1.846926    1.315730   -0.026719
      4          6           0       -0.851569    0.204044   -0.268321
      5          6           0        0.390958    0.120575    0.555024
      6          6           0        1.290612   -1.124895    0.415682
      7          6           0        2.319392   -0.127376   -0.115778
      8          8           0        3.439593   -0.141548   -0.513166
      9          8           0        1.488563    0.954584    0.011937
     10          1           0       -3.074821   -1.960991   -0.301602
     11          1           0       -4.244619   -0.663157   -0.018721
     12          1           0       -3.221876   -0.631982   -1.459850
     13          1           0       -2.165285   -0.301415    1.432717
     14          1           0       -2.339589    1.741325   -0.894311
     15          1           0       -1.626072    2.033766    0.756014
     16          1           0       -0.723005   -0.114200   -1.300301
     17          1           0        0.202044    0.423881    1.589157
     18          1           0        1.582694   -1.626927    1.339214
     19          1           0        0.963554   -1.865290   -0.316863
 ---------------------------------------------------------------------

 SCF Done:  E(RB3LYP) =  -423.207290980     A.U. after    1 cycles

 The electronic state is 1-A.
 Alpha  occ. eigenvalues --  -19.17466 -19.12925 -10.30503 -10.25956 -10.20894
 Alpha  occ. eigenvalues --  -10.20756 -10.20450 -10.19578 -10.18942  -1.09984
 Alpha  occ. eigenvalues --   -1.02712  -0.87873  -0.77415  -0.72798  -0.68139
 Alpha  occ. eigenvalues --   -0.59806  -0.58511  -0.53851  -0.51156  -0.51124
 Alpha  occ. eigenvalues --   -0.47845  -0.45980  -0.44668  -0.41987  -0.40009
 Alpha  occ. eigenvalues --   -0.39588  -0.38796  -0.37593  -0.36682  -0.35618
 Alpha  occ. eigenvalues --   -0.30513  -0.29692  -0.28696  -0.26802
 Alpha virt. eigenvalues --    0.01536   0.08172   0.08598   0.08893   0.09876
 Alpha virt. eigenvalues --    0.11828   0.12907   0.14007   0.15527   0.15988
 Alpha virt. eigenvalues --    0.16250   0.17883   0.18177   0.19246   0.22720

 Mulliken charges:
               1
     1  C   -0.409821
     2  C    0.001656
     3  C   -0.293612
     4  C   -0.007408
     5  C    0.118953
     6  C   -0.440276
     7  C    0.444963
     8  O   -0.317295
     9  O   -0.250970
    10  H    0.120079
    11  H    0.123552
    12  H    0.119027
    13  H    0.086203
    14  H    0.118638
    15  H    0.119178
    16  H    0.089159
    17  H    0.093265
    18  H    0.142751
    19  H    0.141958
 Sum of Mulliken charges =   0.00000

 Dipole moment (field-independent basis, Debye):
    X=             -4.0808    Y=             -1.4928    Z=              1.3385  Tot=              4.5468
 Quadrupole moment (field-independent basis, Debye-Ang):
   XX=            -66.1697   YY=            -53.2315   ZZ=            -50.5480
   XY=             -2.2678   XZ=              4.0954   YZ=              0.1035

  Exact polarizability:  97.784  -1.706  70.685  -2.724  -0.280  62.937
 Approx polarizability: 126.822  -3.464 105.766  -9.136  -0.451  97.516

                      1                      2                      3
                      A                      A                      A
 Frequencies --     59.9719                85.2573               135.9117
 Red. masses --      3.6535                 5.0523                 3.4104
 Frc consts  --      0.0077                 0.0216                 0.0371
 IR Inten    --      1.8592                 3.0197                 1.2390

                      4                      5                      6
                      A                      A                      A
 Frequencies --    205.3650               238.9157               307.9032
 Red. masses --      1.1573                 2.4944                 3.5641
 Frc consts  --      0.0288                 0.0839                 0.1991
 IR Inten    --      0.0170                 0.3222                 1.7171

                      7                      8                      9
                      A                      A                      A
 Frequencies --    345.3042               413.8041               437.2969
 Red. masses --      2.8809                 2.5917                 3.1606
 Frc consts  --      0.2024                 0.2615                 0.3561
 IR Inten    --      0.4292                 1.0549                 1.5836

                     10                     11                     12
                      A                      A                      A
 Frequencies --    521.6735               538.6410               757.2792
 Red. masses --      2.2734                 3.5377                 3.5604
 Frc consts  --      0.3645                 0.6047                 1.2030
 IR Inten    --      2.7877                 4.9478                 1.5368

                     13                     14                     15
                      A                      A                      A
 Frequencies --    793.7070               805.0948               864.4999
 Red. masses --      2.5930                 1.9118                 2.0813
 Frc consts  --      0.9624                 0.7301                 0.9165
 IR Inten    --     10.4347                 2.5474                35.6577

                     16                     17                     18
                      A                      A                      A
 Frequencies --    896.0923               913.3079               929.3900
 Red. masses --      2.8693                 1.9428                 1.8107
 Frc consts  --      1.3575                 0.9548                 0.9215
 IR Inten    --     27.5982                47.6726                 4.6158

                     19                     20                     21
                      A                      A                      A
 Frequencies --    955.8000              1011.0230              1020.8496
 Red. masses --      3.2882                 1.8973                 2.5215
 Frc consts  --      1.7699                 1.1426                 1.5482
 IR Inten    --     41.5421                 9.0782                12.3821

                     22                     23                     24
                      A                      A                      A
 Frequencies --   1066.4317              1077.8319              1105.3913
 Red. masses --      1.3713                 1.8309                 1.2908
 Frc consts  --      0.9188                 1.2532                 0.9293
 IR Inten    --     15.2205                13.3325                 3.9847

                     25                     26                     27
                      A                      A                      A
 Frequencies --   1110.6859              1139.8721              1140.2578
 Red. masses --      1.6164                 2.1248                 1.5912
 Frc consts  --      1.1748                 1.6266                 1.2190
 IR Inten    --      9.6378                78.3131                25.2266

                     28                     29                     30
                      A                      A                      A
 Frequencies --   1201.6114              1219.2287              1229.2525
 Red. masses --      1.7558                 1.6333                 1.5464
 Frc consts  --      1.4936                 1.4305                 1.3768
 IR Inten    --      0.7166                 3.2380                 5.6971

                     31                     32                     33
                      A                      A                      A
 Frequencies --   1236.0252              1298.7124              1305.8958
 Red. masses --      2.1820                 1.6256                 1.3158
 Frc consts  --      1.9641                 1.6155                 1.3221
 IR Inten    --     10.5381                46.0821                 7.4767

                     34                     35                     36
                      A                      A                      A
 Frequencies --   1387.6840              1419.0672              1450.3168
 Red. masses --      1.3630                 1.2613                 1.3291
 Frc consts  --      1.5464                 1.4964                 1.6472
 IR Inten    --      6.6073                 6.8586                13.3910

                     37                     38                     39
                      A                      A                      A
 Frequencies --   1459.6831              1492.6247              1495.1510
 Red. masses --      1.2394                 1.0719                 1.2040
 Frc consts  --      1.5558                 1.4071                 1.5859
 IR Inten    --     19.4576                 2.1868                 8.5733

                     40                     41                     42
                      A                      A                      A
 Frequencies --   1506.1987              1938.1218              3029.3328
 Red. masses --      1.3257                12.8178                 1.0352
 Frc consts  --      1.7720                28.3677                 5.5971
 IR Inten    --      5.9845               507.7176                31.3891

                     43                     44                     45
                      A                      A                      A
 Frequencies --   3065.6970              3088.2632              3092.8617
 Red. masses --      1.0865                 1.0602                 1.1013
 Frc consts  --      6.0163                 5.9575                 6.2069
 IR Inten    --     19.0682                 3.7322                24.1665

                     46                     47                     48
                      A                      A                      A
 Frequencies --   3097.6010              3129.9479              3133.7830
 Red. masses --      1.0992                 1.0758                 1.0687
 Frc consts  --      6.2141                 6.2096                 6.1839
 IR Inten    --     13.4063                15.3025                 9.4848

                     49                     50                     51
                      A                      A                      A
 Frequencies --   3138.0687              3146.3533              3217.6646
 Red. masses --      1.0880                 1.1058                 1.1164
 Frc consts  --      6.3124                 6.4499                 6.8102
 IR Inten    --     16.8166                 8.0558                 8.6501

 - Thermochemistry -
 -------------------
 Temperature   298.150 Kelvin.  Pressure   1.00000 Atm.
 Atom     1 has atomic number  6 and mass  12.00000

 Molecular mass:   126.06808 amu.
 Principal axes and moments of inertia in atomic units:
                           1         2         3
     Eigenvalues --   377.637652228.461222418.64695
           X            0.99994   0.00049   0.01119
           Y           -0.00056   0.99998   0.00547
           Z           -0.01119  -0.00548   0.99992
 This molecule is an asymmetric top.
 Rotational symmetry number  1.
 Rotational temperatures (Kelvin)      0.22936     0.03887     0.03581
 Rotational constants (GHZ):           4.77903     0.80986     0.74618
 Zero-point vibrational energy     416639.6 (Joules/Mol)
                                   99.57926 (Kcal/Mol)
 Warning -- explicit consideration of  11 degrees of freedom as
           vibrations may cause significant error
 Vibrational temperatures:     86.29   122.67   195.55   295.47   343.75
          (Kelvin)            443.00   496.82   595.37   629.17   750.57
                              774.98  1089.55  1141.97  1158.35  1243.82
                             1289.28  1314.04  1337.18  1375.18  1454.63
                             1468.77  1534.36  1550.76  1590.41  1598.03
                             1640.02  1640.57  1728.85  1754.20  1768.62
                             1778.36  1868.56  1878.89  1996.57  2041.72
                             2086.68  2100.16  2147.55  2151.19  2167.08
                             2788.52  4358.53  4410.85  4443.32  4449.93
                             4456.75  4503.29  4508.81  4514.98  4526.89
                             4629.50

 Zero-point correction=                           0.158690 (Hartree/Particle)
 Thermal correction to Energy=                    0.167426
 Thermal correction to Enthalpy=                  0.168370
 Thermal correction to Gibbs Free Energy=         0.124586
 Sum of electronic and zero-point Energies=           -423.048601
 Sum of electronic and thermal Energies=              -423.039865
 Sum of electronic and thermal Enthalpies=            -423.038921
 Sum of electronic and thermal Free Energies=         -423.082705

                     E (Thermal)             CV                S
                      KCal/Mol        Cal/Mol-Kelvin    Cal/Mol-Kelvin
 Total                  105.062             32.377             92.153
 Electronic               0.000              0.000              0.000
 Translational            0.889              2.981             40.409
 Rotational               0.889              2.981             29.100
 Vibrational            103.284             26.415             22.645
 Vibration     1          0.597              1.973              4.458
 Vibration     2          0.601              1.959              3.766
 Vibration     3          0.614              1.917              2.861
 Vibration     4          0.640              1.832              2.084
 Vibration     5          0.657              1.781              1.811
 Vibration     6          0.698              1.659              1.374
 Vibration     7          0.724              1.585              1.188
 Vibration     8          0.777              1.440              0.913
 Vibration     9          0.798              1.389              0.835
 Vibration    10          0.877              1.202              0.606
 Vibration    11          0.894              1.165              0.568

 Optimization completed.
    -- Stationary point found.
 Normal termination of Gaussian 09 at Tue Jan 28 02:54:05 2020.
