 Gaussian 09, Revision D.01,
 Gaussian 09:  ES64L-G09RevD.01 24-Apr-2013

 -----------------------------
 # b3lyp 6-31G(2df,p) opt Freq
 -----------------------------

 -----
 titel
 -----
 Symbolic Z-matrix:
 Charge =  0 Multiplicity = 1

 SCF Done:  E(RB3LYP) =  -423.158317229     A.U. after   12 cycles
 Optimization completed.
    -- Stationary point found.
 Normal termination of Gaussian 09 at Mon Jan 27 18:48:47 2020.

 ----------------------------------------------------------------------
 #N Geom=AllCheck Guess=TCheck SCRF=Check GenChk RB3LYP/6-31G(2df,p) Fr
 eq
 ----------------------------------------------------------------------

 Structure from the checkpoint file:  "/scratch/puck/g09_8cd6d4c7-f111-481f-8fd6-28295334bcaf/Gau-183253.chk"
 -----
 titel
 -----
 Charge =  0 Multiplicity = 1

                         Standard orientation:
 ---------------------------------------------------------------------
 Center     Atomic      Atomic             Coordinates (Angstroms)
 Number     Number       Type             X           Y           Z
 ---------------------------------------------------------------------
      1          6           0        2.613484   -0.002400   -0.407584
      2          6           0        1.156648   -0.001681   -0.044622
      3          8           0        0.745340    1.212341    0.573283
      4          6           0       -0.625486    1.423024    0.241913
      5          6           0       -1.138823    0.034258   -0.134328
      6          8           0       -2.406190    0.105897   -0.708081
      7          6           0       -0.874617   -0.960119    1.042675
      8          6           0        0.481575   -1.283320    0.412774
      9          6           0        0.082498   -0.585695   -0.895963
     10          1           0        2.900729   -0.957931   -0.855288
     11          1           0        2.835266    0.797629   -1.120405
     12          1           0        3.228552    0.157123    0.483949
     13          1           0       -1.139895    1.843462    1.111733
     14          1           0       -0.729217    2.114696   -0.607512
     15          1           0       -2.718465   -0.789910   -0.870914
     16          1           0       -0.896208   -0.556383    2.060674
     17          1           0       -1.554125   -1.816898    0.977785
     18          1           0        1.041277   -2.202865    0.545681
     19          1           0        0.147212   -0.879231   -1.936505
 ---------------------------------------------------------------------

 SCF Done:  E(RB3LYP) =  -423.158317229     A.U. after    1 cycles

 The electronic state is 1-A.
 Alpha  occ. eigenvalues --  -19.14883 -19.13417 -10.24370 -10.23790 -10.21994
 Alpha  occ. eigenvalues --  -10.19121 -10.18539 -10.18440 -10.17960  -1.04628
 Alpha  occ. eigenvalues --   -1.02710  -0.87932  -0.77036  -0.69545  -0.68336
 Alpha  occ. eigenvalues --   -0.61646  -0.57159  -0.53858  -0.52046  -0.47969
 Alpha  occ. eigenvalues --   -0.45885  -0.45360  -0.43220  -0.41460  -0.39121
 Alpha  occ. eigenvalues --   -0.38674  -0.37917  -0.37301  -0.34740  -0.32029
 Alpha  occ. eigenvalues --   -0.29575  -0.27859  -0.25739  -0.22598
 Alpha virt. eigenvalues --    0.06783   0.09471   0.10335   0.11574   0.13284
 Alpha virt. eigenvalues --    0.14640   0.15444   0.15663   0.15875   0.16821
 Alpha virt. eigenvalues --    0.17583   0.18717   0.20054   0.21790   0.22061

 Mulliken charges:
               1
     1  C   -0.477013
     2  C    0.475607
     3  O   -0.309259
     4  C   -0.105859
     5  C    0.368723
     6  O   -0.487625
     7  C   -0.299753
     8  C   -0.131414
     9  C   -0.257190
    10  H    0.118724
    11  H    0.126172
    12  H    0.130914
    13  H    0.108601
    14  H    0.096042
    15  H    0.281440
    16  H    0.102343
    17  H    0.090663
    18  H    0.081740
    19  H    0.087144
 Sum of Mulliken charges =   0.00000

 Dipole moment (field-independent basis, Debye):
    X=             -0.1810    Y=             -2.1087    Z=             -0.6622  Tot=              2.2176
 Quadrupole moment (field-independent basis, Debye-Ang):
   XX=            -52.4964   YY=            -52.1486   ZZ=            -53.0332
   XY=              1.5931   XZ=             -1.5653   YZ=              0.5957

  Exact polarizability:  83.382  -0.729  73.010  -1.773  -1.292  66.981
 Approx polarizability: 111.738  -0.472 108.840   2.236  -1.020 104.456

                      1                      2                      3
                      A                      A                      A
 Frequencies --    202.9353               206.5766               226.6276
 Red. masses --      2.3348                 1.3004                 2.2429
 Frc consts  --      0.0567                 0.0327                 0.0679
 IR Inten    --      5.6846                 0.3300                 2.1002

                      4                      5                      6
                      A                      A                      A
 Frequencies --    271.9388               296.4818               333.0075
 Red. masses --      1.8437                 1.4639                 2.3072
 Frc consts  --      0.0803                 0.0758                 0.1507
 IR Inten    --     24.9200                49.8822                13.4691

                      7                      8                      9
                      A                      A                      A
 Frequencies --    396.0995               428.3075               498.6979
 Red. masses --      2.9081                 2.9977                 3.4082
 Frc consts  --      0.2688                 0.3240                 0.4994
 IR Inten    --      2.7739                 8.0030                 1.3693

                     10                     11                     12
                      A                      A                      A
 Frequencies --    571.4807               623.1574               650.6246
 Red. masses --      3.2972                 4.0800                 4.1757
 Frc consts  --      0.6344                 0.9335                 1.0415
 IR Inten    --      1.2808                 2.8072                 5.0377

                     13                     14                     15
                      A                      A                      A
 Frequencies --    724.1043               820.3593               834.7549
 Red. masses --      4.0920                 3.2967                 1.6142
 Frc consts  --      1.2641                 1.3072                 0.6627
 IR Inten    --      4.1464                15.6362                 1.7874

                     16                     17                     18
                      A                      A                      A
 Frequencies --    860.6818               904.0512               926.3853
 Red. masses --      2.2838                 2.2871                 1.7079
 Frc consts  --      0.9968                 1.1014                 0.8636
 IR Inten    --      3.1736                 7.0512                22.5590

                     19                     20                     21
                      A                      A                      A
 Frequencies --    957.5119               981.5952              1002.1039
 Red. masses --      1.6806                 1.5112                 1.8889
 Frc consts  --      0.9078                 0.8579                 1.1176
 IR Inten    --      5.5166                 2.1690                 3.5099

                     22                     23                     24
                      A                      A                      A
 Frequencies --   1034.1658              1070.3698              1084.2989
 Red. masses --      1.8467                 4.0610                 2.5907
 Frc consts  --      1.1637                 2.7413                 1.7946
 IR Inten    --      6.0801               113.0970                17.2526

                     25                     26                     27
                      A                      A                      A
 Frequencies --   1097.8373              1113.4079              1129.3286
 Red. masses --      1.6892                 1.5128                 2.1482
 Frc consts  --      1.1995                 1.1049                 1.6142
 IR Inten    --      7.5981                16.5537                13.4929

                     28                     29                     30
                      A                      A                      A
 Frequencies --   1165.4562              1211.7956              1223.0695
 Red. masses --      1.6476                 1.3500                 1.8256
 Frc consts  --      1.3186                 1.1680                 1.6090
 IR Inten    --      3.8870                15.2857                27.9034

                     31                     32                     33
                      A                      A                      A
 Frequencies --   1241.5264              1253.4738              1288.6432
 Red. masses --      2.0133                 2.2246                 2.4153
 Frc consts  --      1.8284                 2.0593                 2.3632
 IR Inten    --     14.2806                59.5656                59.4707

                     34                     35                     36
                      A                      A                      A
 Frequencies --   1369.4238              1404.8691              1410.4549
 Red. masses --      1.5195                 1.4985                 2.0366
 Frc consts  --      1.6789                 1.7425                 2.3871
 IR Inten    --     61.5961                 7.2015                 8.2390

                     37                     38                     39
                      A                      A                      A
 Frequencies --   1433.1300              1478.9725              1483.7885
 Red. masses --      2.7128                 1.0498                 1.1185
 Frc consts  --      3.2828                 1.3530                 1.4509
 IR Inten    --     11.3642                 2.8138                 1.6108

                     40                     41                     42
                      A                      A                      A
 Frequencies --   1503.7740              1518.5585              2994.3601
 Red. masses --      1.1015                 1.1034                 1.0667
 Frc consts  --      1.4676                 1.4991                 5.6352
 IR Inten    --      1.3879                 1.1192                69.5681

                     43                     44                     45
                      A                      A                      A
 Frequencies --   3031.3026              3038.9497              3078.9634
 Red. masses --      1.0565                 1.0351                 1.0986
 Frc consts  --      5.7200                 5.6325                 6.1362
 IR Inten    --     49.5047                22.1607                18.3922

                     46                     47                     48
                      A                      A                      A
 Frequencies --   3084.9791              3105.1892              3118.0570
 Red. masses --      1.1068                 1.1015                 1.1012
 Frc consts  --      6.2060                 6.2576                 6.3082
 IR Inten    --     42.3826                17.2685                16.8460

                     49                     50                     51
                      A                      A                      A
 Frequencies --   3165.2579              3188.6259              3817.4259
 Red. masses --      1.0905                 1.0966                 1.0660
 Frc consts  --      6.4374                 6.5692                 9.1528
 IR Inten    --     23.3185                 8.9317                21.1823

 - Thermochemistry -
 -------------------
 Temperature   298.150 Kelvin.  Pressure   1.00000 Atm.
 Atom     1 has atomic number  6 and mass  12.00000

 Molecular mass:   126.06808 amu.
 Principal axes and moments of inertia in atomic units:
                           1         2         3
     Eigenvalues --   561.000251168.945261339.14839
           X            0.99966  -0.00449  -0.02558
           Y            0.00399   0.99980  -0.01965
           Z            0.02566   0.01954   0.99948
 This molecule is an asymmetric top.
 Rotational symmetry number  1.
 Warning -- assumption of classical behavior for rotation
           may cause significant error
 Rotational temperatures (Kelvin)      0.15439     0.07410     0.06468
 Rotational constants (GHZ):           3.21701     1.54391     1.34768
 Zero-point vibrational energy     417837.3 (Joules/Mol)
                                   99.86551 (Kcal/Mol)
 Warning -- explicit consideration of  10 degrees of freedom as
           vibrations may cause significant error
 Vibrational temperatures:    291.98   297.22   326.07   391.26   426.57
          (Kelvin)            479.12   569.90   616.24   717.51   822.23
                              896.58   936.10  1041.82  1180.31  1201.02
                             1238.33  1300.73  1332.86  1377.64  1412.29
                             1441.80  1487.93  1540.02  1560.06  1579.54
                             1601.94  1624.85  1676.83  1743.50  1759.72
                             1786.28  1803.47  1854.07  1970.29  2021.29
                             2029.33  2061.95  2127.91  2134.84  2163.59
                             2184.86  4308.21  4361.36  4372.37  4429.94
                             4438.59  4467.67  4486.18  4554.09  4587.72
                             5492.42

 Zero-point correction=                           0.159146 (Hartree/Particle)
 Thermal correction to Energy=                    0.166972
 Thermal correction to Enthalpy=                  0.167916
 Thermal correction to Gibbs Free Energy=         0.127564
 Sum of electronic and zero-point Energies=           -422.999171
 Sum of electronic and thermal Energies=              -422.991345
 Sum of electronic and thermal Enthalpies=            -422.990401
 Sum of electronic and thermal Free Energies=         -423.030753

                     E (Thermal)             CV                S
                      KCal/Mol        Cal/Mol-Kelvin    Cal/Mol-Kelvin
 Total                  104.777             31.889             84.928
 Electronic               0.000              0.000              0.000
 Translational            0.889              2.981             40.409
 Rotational               0.889              2.981             28.265
 Vibrational            102.999             25.928             16.255
 Vibration     1          0.639              1.836              2.106
 Vibration     2          0.641              1.831              2.074
 Vibration     3          0.650              1.800              1.906
 Vibration     4          0.675              1.725              1.584
 Vibration     5          0.690              1.680              1.437
 Vibration     6          0.715              1.610              1.245
 Vibration     7          0.763              1.478              0.977
 Vibration     8          0.790              1.409              0.864
 Vibration     9          0.854              1.253              0.661
 Vibration    10          0.928              1.093              0.501

 Optimization completed.
    -- Stationary point found.
 Normal termination of Gaussian 09 at Mon Jan 27 19:32:20 2020.
