 Gaussian 09, Revision D.01,
 Gaussian 09:  ES64L-G09RevD.01 24-Apr-2013

 -----------------------------
 # b3lyp 6-31G(2df,p) opt Freq
 -----------------------------

 -----
 titel
 -----
 Symbolic Z-matrix:
 Charge =  0 Multiplicity = 1

 SCF Done:  E(RB3LYP) =  -423.134623044     A.U. after   14 cycles
 Optimization completed.
    -- Stationary point found.
 Normal termination of Gaussian 09 at Mon Jan 27 17:17:32 2020.

 ----------------------------------------------------------------------
 #N Geom=AllCheck Guess=TCheck SCRF=Check GenChk RB3LYP/6-31G(2df,p) Fr
 eq
 ----------------------------------------------------------------------

 Structure from the checkpoint file:  "/scratch/puck/g09_adc8fa46-5318-4d45-a47c-faca7cec604b/Gau-179486.chk"
 -----
 titel
 -----
 Charge =  0 Multiplicity = 1

                         Standard orientation:
 ---------------------------------------------------------------------
 Center     Atomic      Atomic             Coordinates (Angstroms)
 Number     Number       Type             X           Y           Z
 ---------------------------------------------------------------------
      1          6           0        2.490274   -0.493864   -0.692429
      2          6           0        1.217272   -0.395476    0.093922
      3          6           0        1.060995    0.490720    1.317028
      4          6           0        0.134603    0.714365    0.169691
      5          8           0       -0.002276    1.946424   -0.424633
      6          6           0       -0.937966   -0.340926    0.120261
      7          6           0       -2.363780   -0.260611    0.431755
      8          8           0       -1.894432   -0.245979   -0.933715
      9          6           0        0.107999   -1.469639    0.126668
     10          1           0        3.201704   -1.185977   -0.225160
     11          1           0        2.302331   -0.851256   -1.711363
     12          1           0        2.978931    0.483197   -0.765210
     13          1           0        0.711000    0.097300    2.270480
     14          1           0        1.823151    1.259946    1.406786
     15          1           0       -0.551530    1.807114   -1.208007
     16          1           0       -2.911981   -1.157624    0.715409
     17          1           0       -2.788290    0.677636    0.785778
     18          1           0        0.105644   -2.143726    0.990022
     19          1           0        0.046322   -2.057583   -0.793320
 ---------------------------------------------------------------------

 SCF Done:  E(RB3LYP) =  -423.134623044     A.U. after    1 cycles

 The electronic state is 1-A.
 Alpha  occ. eigenvalues --  -19.15463 -19.15086 -10.24279 -10.23849 -10.23329
 Alpha  occ. eigenvalues --  -10.19772 -10.18903 -10.18643 -10.18058  -1.07408
 Alpha  occ. eigenvalues --   -1.03549  -0.89010  -0.72900  -0.71941  -0.66704
 Alpha  occ. eigenvalues --   -0.62344  -0.56726  -0.56022  -0.50925  -0.48940
 Alpha  occ. eigenvalues --   -0.46434  -0.44946  -0.42540  -0.41324  -0.40082
 Alpha  occ. eigenvalues --   -0.38745  -0.38355  -0.37796  -0.34713  -0.32529
 Alpha  occ. eigenvalues --   -0.30625  -0.28863  -0.26443  -0.22464
 Alpha virt. eigenvalues --    0.08115   0.08679   0.10394   0.11271   0.12328
 Alpha virt. eigenvalues --    0.13401   0.13809   0.14385   0.14765   0.15737
 Alpha virt. eigenvalues --    0.17329   0.18418   0.19508   0.20972   0.21833

 Mulliken charges:
               1
     1  C   -0.500235
     2  C    0.255065
     3  C   -0.379577
     4  C    0.318947
     5  O   -0.455074
     6  C    0.364962
     7  C   -0.274453
     8  O   -0.292352
     9  C   -0.377467
    10  H    0.120925
    11  H    0.118114
    12  H    0.126861
    13  H    0.102400
    14  H    0.121596
    15  H    0.294488
    16  H    0.118639
    17  H    0.120194
    18  H    0.098775
    19  H    0.118192
 Sum of Mulliken charges =   0.00000

 Dipole moment (field-independent basis, Debye):
    X=              0.1829    Y=             -0.9888    Z=              0.7513  Tot=              1.2553
 Quadrupole moment (field-independent basis, Debye-Ang):
   XX=            -51.5249   YY=            -54.9671   ZZ=            -52.3672
   XY=             -0.7656   XZ=             -2.6737   YZ=             -1.5813

  Exact polarizability:  90.055  -0.948  72.535  -1.974   0.732  67.704
 Approx polarizability: 117.906  -2.924 108.083   1.072   0.387 106.725

                      1                      2                      3
                      A                      A                      A
 Frequencies --    103.5413               168.6419               194.7178
 Red. masses --      3.5346                 3.0630                 1.5745
 Frc consts  --      0.0223                 0.0513                 0.0352
 IR Inten    --      0.7123                 0.9979                 4.3765

                      4                      5                      6
                      A                      A                      A
 Frequencies --    204.7255               245.9097               335.8445
 Red. masses --      1.7889                 2.9277                 2.3421
 Frc consts  --      0.0442                 0.1043                 0.1556
 IR Inten    --      6.0186                 8.5148                 0.4174

                      7                      8                      9
                      A                      A                      A
 Frequencies --    384.9943               412.1912               441.7583
 Red. masses --      2.1473                 1.9325                 1.4776
 Frc consts  --      0.1875                 0.1935                 0.1699
 IR Inten    --      1.0173                30.9626                53.5270

                     10                     11                     12
                      A                      A                      A
 Frequencies --    481.2022               511.5605               572.8710
 Red. masses --      3.2678                 3.7493                 2.9516
 Frc consts  --      0.4458                 0.5781                 0.5707
 IR Inten    --      0.8393                23.8563                 7.6459

                     13                     14                     15
                      A                      A                      A
 Frequencies --    650.5336               733.0202               781.6687
 Red. masses --      3.6020                 3.8148                 3.5465
 Frc consts  --      0.8981                 1.2077                 1.2767
 IR Inten    --      7.0683                 5.3626                 8.5834

                     16                     17                     18
                      A                      A                      A
 Frequencies --    822.8342               852.8755               894.7700
 Red. masses --      3.6559                 2.1878                 1.7901
 Frc consts  --      1.4584                 0.9376                 0.8444
 IR Inten    --     25.1023                 5.2359                 3.2253

                     19                     20                     21
                      A                      A                      A
 Frequencies --    941.3661               961.4289               992.8792
 Red. masses --      3.1544                 1.3990                 1.6951
 Frc consts  --      1.6470                 0.7619                 0.9846
 IR Inten    --     19.8266                 3.7384                 5.6351

                     22                     23                     24
                      A                      A                      A
 Frequencies --   1025.2976              1060.0368              1089.5212
 Red. masses --      1.7666                 1.4959                 1.5502
 Frc consts  --      1.0942                 0.9904                 1.0842
 IR Inten    --     19.5083                 4.7987                 1.2481

                     25                     26                     27
                      A                      A                      A
 Frequencies --   1112.0368              1120.0148              1145.0800
 Red. masses --      1.6641                 1.3063                 1.3985
 Frc consts  --      1.2124                 0.9654                 1.0804
 IR Inten    --     11.3319                 3.2259                 8.1747

                     28                     29                     30
                      A                      A                      A
 Frequencies --   1163.2780              1189.9255              1223.8433
 Red. masses --      1.4809                 2.5319                 1.4683
 Frc consts  --      1.1807                 2.1122                 1.2957
 IR Inten    --      5.4533                62.8675                10.2263

                     31                     32                     33
                      A                      A                      A
 Frequencies --   1237.4928              1344.0022              1352.2765
 Red. masses --      2.9351                 2.0529                 3.5160
 Frc consts  --      2.6482                 2.1848                 3.7882
 IR Inten    --      3.3362                77.6804                42.2809

                     34                     35                     36
                      A                      A                      A
 Frequencies --   1415.1395              1431.0930              1447.4746
 Red. masses --      1.3498                 1.6020                 1.8457
 Frc consts  --      1.5927                 1.9331                 2.2785
 IR Inten    --      1.6647                 9.2032                35.5729

                     37                     38                     39
                      A                      A                      A
 Frequencies --   1477.8155              1486.1447              1498.5421
 Red. masses --      1.2137                 1.0512                 1.0557
 Frc consts  --      1.5617                 1.3680                 1.3968
 IR Inten    --      5.9117                 5.3032                 3.7358

                     40                     41                     42
                      A                      A                      A
 Frequencies --   1514.6358              1537.7831              3019.0553
 Red. masses --      1.5587                 1.9629                 1.0365
 Frc consts  --      2.1069                 2.7349                 5.5664
 IR Inten    --      9.1686                31.7070                43.0350

                     43                     44                     45
                      A                      A                      A
 Frequencies --   3040.3473              3075.6689              3085.0052
 Red. masses --      1.0602                 1.0998                 1.0505
 Frc consts  --      5.7741                 6.1298                 5.8908
 IR Inten    --     37.4623                23.1471                21.4192

                     46                     47                     48
                      A                      A                      A
 Frequencies --   3089.3629              3098.1739              3101.6537
 Red. masses --      1.0587                 1.1000                 1.1046
 Frc consts  --      5.9535                 6.2207                 6.2609
 IR Inten    --     23.4696                17.3856                17.8583

                     49                     50                     51
                      A                      A                      A
 Frequencies --   3173.1644              3187.2470              3760.9378
 Red. masses --      1.1193                 1.1105                 1.0651
 Frc consts  --      6.6405                 6.6467                 8.8765
 IR Inten    --     16.9433                 8.5529                35.1377

 - Thermochemistry -
 -------------------
 Temperature   298.150 Kelvin.  Pressure   1.00000 Atm.
 Atom     1 has atomic number  6 and mass  12.00000

 Molecular mass:   126.06808 amu.
 Principal axes and moments of inertia in atomic units:
                           1         2         3
     Eigenvalues --   652.396741241.059901455.81678
           X            0.99956  -0.01122  -0.02757
           Y            0.01140   0.99991   0.00648
           Z            0.02749  -0.00679   0.99960
 This molecule is an asymmetric top.
 Rotational symmetry number  1.
 Warning -- assumption of classical behavior for rotation
           may cause significant error
 Rotational temperatures (Kelvin)      0.13276     0.06979     0.05949
 Rotational constants (GHZ):           2.76632     1.45419     1.23968
 Zero-point vibrational energy     413856.4 (Joules/Mol)
                                   98.91405 (Kcal/Mol)
 Warning -- explicit consideration of  12 degrees of freedom as
           vibrations may cause significant error
 Vibrational temperatures:    148.97   242.64   280.16   294.55   353.81
          (Kelvin)            483.20   553.92   593.05   635.59   692.34
                              736.02   824.23   935.97  1054.65  1124.65
                             1183.87  1227.10  1287.37  1354.41  1383.28
                             1428.53  1475.17  1525.15  1567.58  1599.97
                             1611.45  1647.51  1673.70  1712.04  1760.84
                             1780.47  1933.72  1945.62  2036.07  2059.02
                             2082.59  2126.24  2138.23  2156.07  2179.22
                             2212.52  4343.74  4374.38  4425.20  4438.63
                             4444.90  4457.58  4462.58  4565.47  4585.73
                             5411.14

 Zero-point correction=                           0.157630 (Hartree/Particle)
 Thermal correction to Energy=                    0.166237
 Thermal correction to Enthalpy=                  0.167182
 Thermal correction to Gibbs Free Energy=         0.124869
 Sum of electronic and zero-point Energies=           -422.976993
 Sum of electronic and thermal Energies=              -422.968386
 Sum of electronic and thermal Enthalpies=            -422.967441
 Sum of electronic and thermal Free Energies=         -423.009754

                     E (Thermal)             CV                S
                      KCal/Mol        Cal/Mol-Kelvin    Cal/Mol-Kelvin
 Total                  104.316             33.547             89.055
 Electronic               0.000              0.000              0.000
 Translational            0.889              2.981             40.409
 Rotational               0.889              2.981             28.557
 Vibrational            102.538             27.585             20.089
 Vibration     1          0.605              1.946              3.387
 Vibration     2          0.625              1.881              2.451
 Vibration     3          0.635              1.847              2.182
 Vibration     4          0.640              1.833              2.090
 Vibration     5          0.660              1.770              1.760
 Vibration     6          0.717              1.604              1.232
 Vibration     7          0.754              1.502              1.019
 Vibration     8          0.776              1.444              0.919
 Vibration     9          0.802              1.379              0.821
 Vibration    10          0.838              1.292              0.707
 Vibration    11          0.867              1.224              0.630
 Vibration    12          0.929              1.090              0.499

 Optimization completed.
    -- Stationary point found.
 Normal termination of Gaussian 09 at Mon Jan 27 18:02:09 2020.
