 Gaussian 09, Revision D.01,
 Gaussian 09:  ES64L-G09RevD.01 24-Apr-2013

 -----------------------------
 # b3lyp 6-31G(2df,p) opt Freq
 -----------------------------

 -----
 titel
 -----
 Symbolic Z-matrix:
 Charge =  0 Multiplicity = 1

 SCF Done:  E(RB3LYP) =  -423.182552502     A.U. after   14 cycles
 Optimization completed.
    -- Stationary point found.
 Normal termination of Gaussian 09 at Tue Jan 28 02:24:29 2020.

 ----------------------------------------------------------------------
 #N Geom=AllCheck Guess=TCheck SCRF=Check GenChk RB3LYP/6-31G(2df,p) Fr
 eq
 ----------------------------------------------------------------------

 Structure from the checkpoint file:  "/scratch/puck/g09_ef65b3fd-008b-49e7-941b-f49c36a63ffe/Gau-5071.chk"
 -----
 titel
 -----
 Charge =  0 Multiplicity = 1

                         Standard orientation:
 ---------------------------------------------------------------------
 Center     Atomic      Atomic             Coordinates (Angstroms)
 Number     Number       Type             X           Y           Z
 ---------------------------------------------------------------------
      1          6           0        1.936735   -1.480570   -0.256137
      2          6           0        0.562353   -1.283910    0.348704
      3          8           0       -0.506593   -1.244518   -0.631755
      4          6           0       -1.068229   -0.034718   -0.065120
      5          6           0       -2.520104   -0.173624    0.307679
      6          6           0       -0.582676    1.212411   -0.854748
      7          6           0        0.625057    1.287227    0.100947
      8          8           0        1.558822    2.029822    0.197443
      9          6           0        0.139257    0.090580    0.930559
     10          1           0        2.698920   -1.489578    0.530035
     11          1           0        1.976847   -2.439284   -0.782603
     12          1           0        2.183416   -0.686335   -0.965588
     13          1           0        0.357915   -2.080111    1.078054
     14          1           0       -2.668442   -1.017270    0.987932
     15          1           0       -2.890447    0.735869    0.791286
     16          1           0       -3.123248   -0.352839   -0.589146
     17          1           0       -0.364458    1.051529   -1.913120
     18          1           0       -1.229344    2.090945   -0.747119
     19          1           0        0.086655    0.200266    2.013461
 ---------------------------------------------------------------------

 SCF Done:  E(RB3LYP) =  -423.182552502     A.U. after    1 cycles

 The electronic state is 1-A.
 Alpha  occ. eigenvalues --  -19.13998 -19.13762 -10.27330 -10.25130 -10.24890
 Alpha  occ. eigenvalues --  -10.19739 -10.19148 -10.18750 -10.18160  -1.05336
 Alpha  occ. eigenvalues --   -1.04229  -0.82888  -0.77244  -0.72690  -0.69345
 Alpha  occ. eigenvalues --   -0.60305  -0.56602  -0.51823  -0.49656  -0.48331
 Alpha  occ. eigenvalues --   -0.47096  -0.44424  -0.42393  -0.41403  -0.41069
 Alpha  occ. eigenvalues --   -0.40914  -0.39535  -0.36999  -0.36895  -0.35574
 Alpha  occ. eigenvalues --   -0.31593  -0.29790  -0.25507  -0.24350
 Alpha virt. eigenvalues --   -0.02736   0.07513   0.09195   0.11288   0.12089
 Alpha virt. eigenvalues --    0.13524   0.14009   0.14590   0.15591   0.16212
 Alpha virt. eigenvalues --    0.17318   0.17646   0.18018   0.19322   0.21708

 Mulliken charges:
               1
     1  C   -0.408872
     2  C    0.140762
     3  O   -0.345659
     4  C    0.450160
     5  C   -0.477090
     6  C   -0.400730
     7  C    0.423283
     8  O   -0.305361
     9  C   -0.292369
    10  H    0.126558
    11  H    0.129688
    12  H    0.131828
    13  H    0.085006
    14  H    0.127284
    15  H    0.119941
    16  H    0.134522
    17  H    0.135877
    18  H    0.129355
    19  H    0.095816
 Sum of Mulliken charges =   0.00000

 Dipole moment (field-independent basis, Debye):
    X=             -1.6918    Y=             -0.9841    Z=              0.8879  Tot=              2.1492
 Quadrupole moment (field-independent basis, Debye-Ang):
   XX=            -53.9727   YY=            -57.5269   ZZ=            -51.8074
   XY=             -7.4594   XZ=             -1.0097   YZ=             -2.7017

  Exact polarizability:  83.733  -1.516  77.480   1.905  -3.439  65.982
 Approx polarizability: 115.036   5.105 113.260   5.895  -2.107 102.192

                      1                      2                      3
                      A                      A                      A
 Frequencies --     72.3581               124.1822               210.0428
 Red. masses --      3.7892                 3.9733                 1.2593
 Frc consts  --      0.0117                 0.0361                 0.0327
 IR Inten    --      4.7572                 2.0497                 0.4663

                      4                      5                      6
                      A                      A                      A
 Frequencies --    219.2216               232.1555               292.6586
 Red. masses --      1.0840                 1.7505                 2.3352
 Frc consts  --      0.0307                 0.0556                 0.1178
 IR Inten    --      0.1396                 0.1180                 0.8034

                      7                      8                      9
                      A                      A                      A
 Frequencies --    364.6020               386.1289               424.9017
 Red. masses --      2.9211                 2.7184                 3.8101
 Frc consts  --      0.2288                 0.2388                 0.4053
 IR Inten    --      3.4681                 3.0855                 3.4197

                     10                     11                     12
                      A                      A                      A
 Frequencies --    452.7028               565.6719               600.7163
 Red. masses --      3.1369                 2.4123                 4.3341
 Frc consts  --      0.3788                 0.4548                 0.9215
 IR Inten    --      1.2854                 2.9707                 5.2875

                     13                     14                     15
                      A                      A                      A
 Frequencies --    618.6226               707.6425               816.1470
 Red. masses --      3.4042                 2.6417                 2.2776
 Frc consts  --      0.7676                 0.7794                 0.8939
 IR Inten    --      2.3444                 1.3752                 5.7985

                     16                     17                     18
                      A                      A                      A
 Frequencies --    869.5668               877.6196               917.6135
 Red. masses --      2.3529                 2.3891                 1.9031
 Frc consts  --      1.0483                 1.0842                 0.9441
 IR Inten    --      0.7415                13.1454                 9.4628

                     19                     20                     21
                      A                      A                      A
 Frequencies --    935.0790               955.6839              1003.2389
 Red. masses --      2.5977                 3.6278                 1.4035
 Frc consts  --      1.3383                 1.9522                 0.8323
 IR Inten    --     18.5025                21.0182                 1.9159

                     22                     23                     24
                      A                      A                      A
 Frequencies --   1049.1293              1081.0217              1097.4284
 Red. masses --      2.2794                 1.9828                 1.9186
 Frc consts  --      1.4782                 1.3652                 1.3614
 IR Inten    --     28.4278                36.7448                 2.3234

                     25                     26                     27
                      A                      A                      A
 Frequencies --   1120.3898              1150.0605              1168.2167
 Red. masses --      1.8696                 2.6573                 1.7123
 Frc consts  --      1.3827                 2.0708                 1.3768
 IR Inten    --     25.8241                36.8668                 5.6295

                     28                     29                     30
                      A                      A                      A
 Frequencies --   1200.6711              1212.1993              1223.6337
 Red. masses --      1.8232                 2.4816                 2.0383
 Frc consts  --      1.5485                 2.1484                 1.7981
 IR Inten    --     12.0620                47.1331                35.0871

                     31                     32                     33
                      A                      A                      A
 Frequencies --   1316.1785              1323.4012              1388.1221
 Red. masses --      2.1047                 1.6502                 1.3343
 Frc consts  --      2.1482                 1.7028                 1.5148
 IR Inten    --     39.2267                 8.6424                 4.6389

                     34                     35                     36
                      A                      A                      A
 Frequencies --   1412.8277              1413.8064              1418.2806
 Red. masses --      1.3125                 1.3768                 1.1443
 Frc consts  --      1.5436                 1.6214                 1.3561
 IR Inten    --     20.0563                 1.0145                12.8501

                     37                     38                     39
                      A                      A                      A
 Frequencies --   1480.4599              1482.0188              1490.7640
 Red. masses --      1.0476                 1.0586                 1.0494
 Frc consts  --      1.3529                 1.3699                 1.3741
 IR Inten    --      2.6705                 0.8728                 2.2607

                     40                     41                     42
                      A                      A                      A
 Frequencies --   1493.8362              1886.4101              2999.2856
 Red. masses --      1.0508                12.6539                 1.0850
 Frc consts  --      1.3816                26.5305                 5.7504
 IR Inten    --      4.1374               248.4049                47.9467

                     43                     44                     45
                      A                      A                      A
 Frequencies --   3034.7588              3040.3295              3049.0332
 Red. masses --      1.0357                 1.0353                 1.0611
 Frc consts  --      5.6197                 5.6386                 5.8123
 IR Inten    --     16.5712                11.3367                 6.0874

                     46                     47                     48
                      A                      A                      A
 Frequencies --   3103.7127              3111.0034              3113.8696
 Red. masses --      1.1006                 1.1010                 1.1017
 Frc consts  --      6.2466                 6.2784                 6.2940
 IR Inten    --     12.9220                13.3187                15.0554

                     49                     50                     51
                      A                      A                      A
 Frequencies --   3118.4055              3121.1488              3123.6154
 Red. masses --      1.1011                 1.0923                 1.1006
 Frc consts  --      6.3087                 6.2691                 6.3272
 IR Inten    --     12.9972                 4.5751                23.2203

 - Thermochemistry -
 -------------------
 Temperature   298.150 Kelvin.  Pressure   1.00000 Atm.
 Atom     1 has atomic number  6 and mass  12.00000

 Molecular mass:   126.06808 amu.
 Principal axes and moments of inertia in atomic units:
                           1         2         3
     Eigenvalues --   837.273261001.183671532.09291
           X            0.96091  -0.27647  -0.01477
           Y            0.27608   0.96084  -0.02394
           Z            0.02082   0.01893   0.99960
 This molecule is an asymmetric top.
 Rotational symmetry number  1.
 Warning -- assumption of classical behavior for rotation
           may cause significant error
 Rotational temperatures (Kelvin)      0.10345     0.08651     0.05653
 Rotational constants (GHZ):           2.15550     1.80261     1.17796
 Zero-point vibrational energy     411937.5 (Joules/Mol)
                                   98.45543 (Kcal/Mol)
 Warning -- explicit consideration of  13 degrees of freedom as
           vibrations may cause significant error
 Vibrational temperatures:    104.11   178.67   302.20   315.41   334.02
          (Kelvin)            421.07   524.58   555.55   611.34   651.34
                              813.87   864.30   890.06  1018.14  1174.25
                             1251.11  1262.70  1320.24  1345.37  1375.01
                             1443.44  1509.46  1555.35  1578.95  1611.99
                             1654.68  1680.80  1727.50  1744.08  1760.53
                             1893.68  1904.08  1997.20  2032.74  2034.15
                             2040.59  2130.05  2132.29  2144.87  2149.29
                             2714.12  4315.30  4366.34  4374.35  4386.87
                             4465.54  4476.03  4480.16  4486.68  4490.63
                             4494.18

 Zero-point correction=                           0.156899 (Hartree/Particle)
 Thermal correction to Energy=                    0.165678
 Thermal correction to Enthalpy=                  0.166622
 Thermal correction to Gibbs Free Energy=         0.123588
 Sum of electronic and zero-point Energies=           -423.025654
 Sum of electronic and thermal Energies=              -423.016875
 Sum of electronic and thermal Enthalpies=            -423.015931
 Sum of electronic and thermal Free Energies=         -423.058965

                     E (Thermal)             CV                S
                      KCal/Mol        Cal/Mol-Kelvin    Cal/Mol-Kelvin
 Total                  103.964             33.413             90.573
 Electronic               0.000              0.000              0.000
 Translational            0.889              2.981             40.409
 Rotational               0.889              2.981             28.642
 Vibrational            102.187             27.451             21.522
 Vibration     1          0.598              1.967              4.088
 Vibration     2          0.610              1.929              3.034
 Vibration     3          0.642              1.825              2.043
 Vibration     4          0.647              1.812              1.966
 Vibration     5          0.653              1.792              1.862
 Vibration     6          0.688              1.687              1.459
 Vibration     7          0.738              1.545              1.102
 Vibration     8          0.755              1.500              1.015
 Vibration     9          0.787              1.416              0.875
 Vibration    10          0.811              1.355              0.788
 Vibration    11          0.922              1.106              0.513
 Vibration    12          0.959              1.030              0.448
 Vibration    13          0.978              0.993              0.419

 Optimization completed.
    -- Stationary point found.
 Normal termination of Gaussian 09 at Tue Jan 28 03:08:41 2020.
