 Gaussian 09, Revision D.01,
 Gaussian 09:  ES64L-G09RevD.01 24-Apr-2013

 -----------------------------
 # b3lyp 6-31G(2df,p) opt Freq
 -----------------------------

 -----
 titel
 -----
 Symbolic Z-matrix:
 Charge =  0 Multiplicity = 1

 SCF Done:  E(RB3LYP) =  -423.115393437     A.U. after   14 cycles
 SCF Done:  E(RB3LYP) =  -423.115393965     A.U. after    8 cycles
 SCF Done:  E(RB3LYP) =  -423.115393971     A.U. after    7 cycles
 SCF Done:  E(RB3LYP) =  -423.115393849     A.U. after    8 cycles
 SCF Done:  E(RB3LYP) =  -423.115394337     A.U. after    7 cycles
 Optimization completed.
    -- Stationary point found.
 Normal termination of Gaussian 09 at Tue Jan 28 09:18:40 2020.

 ----------------------------------------------------------------------
 #N Geom=AllCheck Guess=TCheck SCRF=Check GenChk RB3LYP/6-31G(2df,p) Fr
 eq
 ----------------------------------------------------------------------

 Structure from the checkpoint file:  "/scratch/puck/g09_6377960e-a560-47c3-ad1b-5660998b2aac/Gau-93552.chk"
 -----
 titel
 -----
 Charge =  0 Multiplicity = 1

                         Standard orientation:
 ---------------------------------------------------------------------
 Center     Atomic      Atomic             Coordinates (Angstroms)
 Number     Number       Type             X           Y           Z
 ---------------------------------------------------------------------
      1          6           0        2.149783   -1.276792   -0.398511
      2          6           0        1.094350   -1.037254    0.689104
      3          6           0        0.050547    0.017710    0.304655
      4          6           0        0.621589    1.428101    0.391513
      5          8           0        1.493808    1.838737   -0.332250
      6          6           0       -1.431554   -0.054680    0.789563
      7          6           0       -1.719001   -1.224868   -0.180338
      8          6           0       -0.901561   -0.146937   -0.922131
      9          8           0       -1.778745    0.887019   -0.302803
     10          1           0        2.904092   -1.989766   -0.052576
     11          1           0        1.691890   -1.688362   -1.304467
     12          1           0        2.648355   -0.344575   -0.671733
     13          1           0        0.596534   -1.980029    0.937685
     14          1           0        1.588165   -0.711057    1.614196
     15          1           0        0.214292    2.061829    1.209723
     16          1           0       -1.848402    0.151232    1.776633
     17          1           0       -1.266861   -2.199669    0.006946
     18          1           0       -2.759656   -1.297666   -0.497176
     19          1           0       -0.673833   -0.039667   -1.981939
 ---------------------------------------------------------------------

 SCF Done:  E(RB3LYP) =  -423.115394337     A.U. after    1 cycles

 The electronic state is 1-A.
 Alpha  occ. eigenvalues --  -19.14571 -19.13938 -10.27028 -10.25990 -10.25916
 Alpha  occ. eigenvalues --  -10.21440 -10.20350 -10.19834 -10.17808  -1.06959
 Alpha  occ. eigenvalues --   -1.04458  -0.82258  -0.76263  -0.71073  -0.66383
 Alpha  occ. eigenvalues --   -0.62403  -0.59927  -0.53163  -0.52225  -0.49045
 Alpha  occ. eigenvalues --   -0.45718  -0.44919  -0.42874  -0.41555  -0.39793
 Alpha  occ. eigenvalues --   -0.38297  -0.37833  -0.37145  -0.35304  -0.34257
 Alpha  occ. eigenvalues --   -0.32939  -0.31640  -0.25759  -0.24195
 Alpha virt. eigenvalues --   -0.02139   0.07739   0.08796   0.10683   0.10924
 Alpha virt. eigenvalues --    0.12015   0.12408   0.13374   0.14448   0.15770
 Alpha virt. eigenvalues --    0.16730   0.17188   0.18037   0.18995   0.21381

 Mulliken charges:
               1
     1  C   -0.382419
     2  C   -0.295847
     3  C    0.268047
     4  C    0.113796
     5  O   -0.260780
     6  C   -0.016563
     7  C   -0.241921
     8  C    0.024114
     9  O   -0.316366
    10  H    0.112915
    11  H    0.114649
    12  H    0.154037
    13  H    0.103879
    14  H    0.106078
    15  H    0.084334
    16  H    0.098446
    17  H    0.106468
    18  H    0.117244
    19  H    0.109889
 Sum of Mulliken charges =   0.00000

 Dipole moment (field-independent basis, Debye):
    X=             -0.6829    Y=             -2.9074    Z=              1.4510  Tot=              3.3203
 Quadrupole moment (field-independent basis, Debye-Ang):
   XX=            -57.5855   YY=            -56.8648   ZZ=            -50.1808
   XY=             -0.8065   XZ=              0.3892   YZ=              2.6129

  Exact polarizability:  82.340   1.856  74.698  -2.749   1.952  68.906
 Approx polarizability: 116.163   2.717 110.753  -7.296  -1.264 110.980

                      1                      2                      3
                      A                      A                      A
 Frequencies --     33.9229                93.7447               171.8919
 Red. masses --      3.6081                 2.4782                 3.4646
 Frc consts  --      0.0024                 0.0128                 0.0603
 IR Inten    --      7.2168                 1.8098                 1.3203

                      4                      5                      6
                      A                      A                      A
 Frequencies --    206.8393               215.3528               250.8659
 Red. masses --      2.7127                 1.3117                 3.0818
 Frc consts  --      0.0684                 0.0358                 0.1143
 IR Inten    --      4.8154                 1.1214                 6.5518

                      7                      8                      9
                      A                      A                      A
 Frequencies --    335.2419               392.5923               467.5147
 Red. masses --      2.1824                 3.2936                 3.5095
 Frc consts  --      0.1445                 0.2991                 0.4519
 IR Inten    --      0.5562                 3.5330                 0.2567

                     10                     11                     12
                      A                      A                      A
 Frequencies --    558.3594               607.7318               693.0177
 Red. masses --      2.7465                 3.5895                 3.6788
 Frc consts  --      0.5045                 0.7811                 1.0410
 IR Inten    --      5.1280                11.5098                12.8364

                     13                     14                     15
                      A                      A                      A
 Frequencies --    769.8362               796.3460               826.5557
 Red. masses --      2.7346                 1.5565                 2.6168
 Frc consts  --      0.9549                 0.5816                 1.0533
 IR Inten    --     10.1215                12.9338                 1.7464

                     16                     17                     18
                      A                      A                      A
 Frequencies --    875.6370               909.1621               917.2850
 Red. masses --      2.7927                 2.0718                 2.3810
 Frc consts  --      1.2616                 1.0090                 1.1804
 IR Inten    --     27.5401                 4.1970                11.8528

                     19                     20                     21
                      A                      A                      A
 Frequencies --    965.7550               989.2431               997.2000
 Red. masses --      2.8968                 1.9442                 1.9042
 Frc consts  --      1.5919                 1.1210                 1.1157
 IR Inten    --      3.3640                16.6515                 4.0706

                     22                     23                     24
                      A                      A                      A
 Frequencies --   1039.0062              1046.3958              1098.7860
 Red. masses --      1.2123                 1.4785                 3.0417
 Frc consts  --      0.7711                 0.9538                 2.1637
 IR Inten    --      4.1991                 0.2529                 6.5501

                     25                     26                     27
                      A                      A                      A
 Frequencies --   1121.9029              1135.7264              1170.3316
 Red. masses --      2.1876                 1.5688                 1.3023
 Frc consts  --      1.6223                 1.1922                 1.0509
 IR Inten    --      1.4238                 9.6712                 0.7426

                     28                     29                     30
                      A                      A                      A
 Frequencies --   1199.4032              1210.1107              1217.8433
 Red. masses --      2.2263                 1.5739                 2.5258
 Frc consts  --      1.8870                 1.3579                 2.2071
 IR Inten    --      7.6995                12.8033                 2.7941

                     31                     32                     33
                      A                      A                      A
 Frequencies --   1273.8768              1278.0545              1337.0510
 Red. masses --      1.6298                 1.7126                 1.5900
 Frc consts  --      1.5583                 1.6482                 1.6748
 IR Inten    --      3.4009                 0.0527                 1.7860

                     34                     35                     36
                      A                      A                      A
 Frequencies --   1355.7288              1413.8216              1422.5672
 Red. masses --      1.4663                 1.2215                 1.2158
 Frc consts  --      1.5879                 1.4385                 1.4496
 IR Inten    --      5.0103                 4.5018                 5.6067

                     37                     38                     39
                      A                      A                      A
 Frequencies --   1478.0398              1495.7181              1502.6719
 Red. masses --      1.1232                 1.0413                 1.0754
 Frc consts  --      1.4457                 1.3725                 1.4307
 IR Inten    --      2.0359                 3.9456                 4.4109

                     40                     41                     42
                      A                      A                      A
 Frequencies --   1513.9701              1818.2975              2883.7594
 Red. masses --      1.0791                10.8721                 1.0838
 Frc consts  --      1.4572                21.1785                 5.3104
 IR Inten    --      5.0178               145.9589               103.3420

                     43                     44                     45
                      A                      A                      A
 Frequencies --   3021.7527              3040.4613              3065.5973
 Red. masses --      1.0666                 1.0378                 1.0902
 Frc consts  --      5.7383                 5.6528                 6.0365
 IR Inten    --     20.4659                24.5467                 6.0378

                     46                     47                     48
                      A                      A                      A
 Frequencies --   3083.4941              3103.7054              3109.8157
 Red. masses --      1.0584                 1.1011                 1.0915
 Frc consts  --      5.9291                 6.2493                 6.2194
 IR Inten    --     37.3716                33.8193                50.7140

                     49                     50                     51
                      A                      A                      A
 Frequencies --   3132.9164              3137.7292              3156.5577
 Red. masses --      1.0939                 1.1002                 1.1109
 Frc consts  --      6.3262                 6.3819                 6.5215
 IR Inten    --     20.4089                 9.9566                20.6625

 - Thermochemistry -
 -------------------
 Temperature   298.150 Kelvin.  Pressure   1.00000 Atm.
 Atom     1 has atomic number  6 and mass  12.00000

 Molecular mass:   126.06808 amu.
 Principal axes and moments of inertia in atomic units:
                           1         2         3
     Eigenvalues --   749.360711113.250221531.76506
           X            0.99856  -0.05320  -0.00659
           Y            0.05335   0.99826   0.02511
           Z            0.00525  -0.02542   0.99966
 This molecule is an asymmetric top.
 Rotational symmetry number  1.
 Warning -- assumption of classical behavior for rotation
           may cause significant error
 Rotational temperatures (Kelvin)      0.11558     0.07780     0.05655
 Rotational constants (GHZ):           2.40837     1.62115     1.17821
 Zero-point vibrational energy     412347.9 (Joules/Mol)
                                   98.55352 (Kcal/Mol)
 Warning -- explicit consideration of  11 degrees of freedom as
           vibrations may cause significant error
 Vibrational temperatures:     48.81   134.88   247.31   297.60   309.84
          (Kelvin)            360.94   482.34   564.85   672.65   803.35
                              874.39   997.10  1107.62  1145.76  1189.23
                             1259.84  1308.08  1319.77  1389.50  1423.30
                             1434.75  1494.90  1505.53  1580.91  1614.17
                             1634.05  1683.84  1725.67  1741.08  1752.20
                             1832.82  1838.83  1923.72  1950.59  2034.17
                             2046.75  2126.57  2152.00  2162.01  2178.26
                             2616.12  4149.08  4347.62  4374.54  4410.71
                             4436.45  4465.53  4474.33  4507.56  4514.49
                             4541.58

 Zero-point correction=                           0.157055 (Hartree/Particle)
 Thermal correction to Energy=                    0.165877
 Thermal correction to Enthalpy=                  0.166821
 Thermal correction to Gibbs Free Energy=         0.122774
 Sum of electronic and zero-point Energies=           -422.958339
 Sum of electronic and thermal Energies=              -422.949518
 Sum of electronic and thermal Enthalpies=            -422.948574
 Sum of electronic and thermal Free Energies=         -422.992620

                     E (Thermal)             CV                S
                      KCal/Mol        Cal/Mol-Kelvin    Cal/Mol-Kelvin
 Total                  104.089             32.610             92.703
 Electronic               0.000              0.000              0.000
 Translational            0.889              2.981             40.409
 Rotational               0.889              2.981             28.637
 Vibrational            102.312             26.648             23.658
 Vibration     1          0.594              1.983              5.586
 Vibration     2          0.603              1.954              3.580
 Vibration     3          0.626              1.877              2.415
 Vibration     4          0.641              1.830              2.071
 Vibration     5          0.645              1.818              1.998
 Vibration     6          0.663              1.761              1.724
 Vibration     7          0.716              1.605              1.235
 Vibration     8          0.760              1.486              0.990
 Vibration     9          0.825              1.322              0.745
 Vibration    10          0.914              1.121              0.527
 Vibration    11          0.967              1.015              0.437

 Normal termination of Gaussian 09 at Tue Jan 28 10:02:32 2020.
