 Gaussian 09, Revision D.01,
 Gaussian 09:  ES64L-G09RevD.01 24-Apr-2013

 -----------------------------
 # b3lyp 6-31G(2df,p) opt Freq
 -----------------------------

 -----
 titel
 -----
 Symbolic Z-matrix:
 Charge =  0 Multiplicity = 1

 SCF Done:  E(RB3LYP) =  -423.199483017     A.U. after   13 cycles
 Optimization completed.
    -- Stationary point found.
 Normal termination of Gaussian 09 at Mon Jan 27 12:49:15 2020.

 ----------------------------------------------------------------------
 #N Geom=AllCheck Guess=TCheck SCRF=Check GenChk RB3LYP/6-31G(2df,p) Fr
 eq
 ----------------------------------------------------------------------

 Structure from the checkpoint file:  "/scratch/puck/g09_cedba51c-2f36-478d-a1af-f7c021577ad0/Gau-24799.chk"
 -----
 titel
 -----
 Charge =  0 Multiplicity = 1

                         Standard orientation:
 ---------------------------------------------------------------------
 Center     Atomic      Atomic             Coordinates (Angstroms)
 Number     Number       Type             X           Y           Z
 ---------------------------------------------------------------------
      1          6           0        2.201855   -0.154621    0.550731
      2          6           0        1.722203    1.132322   -0.165252
      3          6           0        0.270996    0.798749   -0.328992
      4          6           0       -0.826542    1.481430   -0.022503
      5          6           0       -2.144115    0.752031    0.080978
      6          6           0       -1.854772   -0.685346    0.525152
      7          8           0       -0.965712   -1.332723   -0.379738
      8          6           0        0.241224   -0.679178   -0.629155
      9          8           0        1.319351   -1.210164    0.148385
     10          1           0        3.228410   -0.428700    0.285420
     11          1           0        2.149346   -0.033913    1.641111
     12          1           0        1.904437    2.038184    0.416674
     13          1           0        2.226723    1.238564   -1.133719
     14          1           0       -0.776024    2.532619    0.249455
     15          1           0       -2.791492    1.241640    0.817041
     16          1           0       -2.692575    0.747361   -0.870148
     17          1           0       -1.436243   -0.679502    1.541780
     18          1           0       -2.759216   -1.298932    0.527545
     19          1           0        0.452426   -0.886560   -1.690086
 ---------------------------------------------------------------------

 SCF Done:  E(RB3LYP) =  -423.199483017     A.U. after    1 cycles

 The electronic state is 1-A.
 Alpha  occ. eigenvalues --  -19.14032 -19.13030 -10.27066 -10.22971 -10.22807
 Alpha  occ. eigenvalues --  -10.19418 -10.19014 -10.18969 -10.18857  -1.05846
 Alpha  occ. eigenvalues --   -1.00477  -0.81897  -0.76853  -0.74291  -0.65177
 Alpha  occ. eigenvalues --   -0.63465  -0.59211  -0.52855  -0.50676  -0.48876
 Alpha  occ. eigenvalues --   -0.47868  -0.46322  -0.43243  -0.41009  -0.40614
 Alpha  occ. eigenvalues --   -0.39396  -0.38281  -0.37865  -0.34868  -0.32268
 Alpha  occ. eigenvalues --   -0.29257  -0.26504  -0.25356  -0.24727
 Alpha virt. eigenvalues --    0.00640   0.09311   0.10366   0.12285   0.12564
 Alpha virt. eigenvalues --    0.14483   0.14963   0.15691   0.16018   0.16671
 Alpha virt. eigenvalues --    0.17671   0.18601   0.19960   0.21138   0.22435

 Mulliken charges:
               1
     1  C   -0.057482
     2  C   -0.338349
     3  C    0.250712
     4  C   -0.212920
     5  C   -0.255782
     6  C   -0.081960
     7  O   -0.255996
     8  C    0.194794
     9  O   -0.281131
    10  H    0.104255
    11  H    0.101221
    12  H    0.112863
    13  H    0.115212
    14  H    0.090442
    15  H    0.106043
    16  H    0.118676
    17  H    0.100418
    18  H    0.107859
    19  H    0.081122
 Sum of Mulliken charges =   0.00000

 Dipole moment (field-independent basis, Debye):
    X=             -0.1653    Y=              2.6494    Z=              0.4412  Tot=              2.6910
 Quadrupole moment (field-independent basis, Debye-Ang):
   XX=            -48.0209   YY=            -56.8287   ZZ=            -52.1880
   XY=              1.2895   XZ=             -1.5337   YZ=              0.5079

  Exact polarizability:  98.675  -2.760  71.813  -2.747   2.464  61.925
 Approx polarizability: 133.872  -9.110 107.804  -5.736   6.605  95.619

                      1                      2                      3
                      A                      A                      A
 Frequencies --     70.2420               106.8641               214.7891
 Red. masses --      3.1689                 3.0860                 2.3248
 Frc consts  --      0.0092                 0.0208                 0.0632
 IR Inten    --      2.3866                 1.4078                 3.4281

                      4                      5                      6
                      A                      A                      A
 Frequencies --    310.9537               346.3695               423.2921
 Red. masses --      1.8885                 2.4488                 4.7899
 Frc consts  --      0.1076                 0.1731                 0.5057
 IR Inten    --      1.2693                 0.2134                 0.7567

                      7                      8                      9
                      A                      A                      A
 Frequencies --    462.9493               538.6433               627.3487
 Red. masses --      4.9049                 4.1308                 3.2809
 Frc consts  --      0.6194                 0.7061                 0.7608
 IR Inten    --      3.4583                 2.9487                 3.5177

                     10                     11                     12
                      A                      A                      A
 Frequencies --    678.6842               693.7762               832.8927
 Red. masses --      2.2877                 5.1613                 2.1349
 Frc consts  --      0.6209                 1.4637                 0.8726
 IR Inten    --      5.9424                 5.1317                 1.1680

                     13                     14                     15
                      A                      A                      A
 Frequencies --    845.8930               856.1363               909.3179
 Red. masses --      1.9616                 1.5004                 2.3078
 Frc consts  --      0.8270                 0.6479                 1.1243
 IR Inten    --      8.9017                 6.7990                 6.4850

                     16                     17                     18
                      A                      A                      A
 Frequencies --    928.7978               957.7867               962.0986
 Red. masses --      2.9180                 2.5887                 3.0298
 Frc consts  --      1.4831                 1.3992                 1.6523
 IR Inten    --      7.3688                45.6474                34.6173

                     19                     20                     21
                      A                      A                      A
 Frequencies --    998.6868              1044.5887              1050.3161
 Red. masses --      2.6102                 2.2012                 6.7984
 Frc consts  --      1.5338                 1.4151                 4.4187
 IR Inten    --     20.5317                 4.9427               201.7436

                     22                     23                     24
                      A                      A                      A
 Frequencies --   1077.9084              1098.7382              1138.0557
 Red. masses --      1.8530                 1.7534                 5.0897
 Frc consts  --      1.2685                 1.2472                 3.8839
 IR Inten    --      7.3483                 1.8186                99.4857

                     25                     26                     27
                      A                      A                      A
 Frequencies --   1171.4822              1199.4733              1222.5924
 Red. masses --      1.8872                 1.3292                 1.2577
 Frc consts  --      1.5260                 1.1267                 1.1076
 IR Inten    --      5.2371                 6.2826                 5.2993

                     28                     29                     30
                      A                      A                      A
 Frequencies --   1230.3977              1280.6723              1300.7227
 Red. masses --      1.3716                 1.2763                 1.3987
 Frc consts  --      1.2234                 1.2333                 1.3943
 IR Inten    --      6.1852                16.3166                 5.1838

                     31                     32                     33
                      A                      A                      A
 Frequencies --   1321.9279              1348.8957              1370.2285
 Red. masses --      1.2460                 1.4743                 1.5452
 Frc consts  --      1.2829                 1.5805                 1.7093
 IR Inten    --      4.9930                 8.9230                 6.4592

                     34                     35                     36
                      A                      A                      A
 Frequencies --   1388.2095              1395.4544              1429.8457
 Red. masses --      1.3518                 1.2725                 1.3687
 Frc consts  --      1.5348                 1.4600                 1.6487
 IR Inten    --      9.0423                 0.9249                15.7311

                     37                     38                     39
                      A                      A                      A
 Frequencies --   1469.5053              1483.6328              1503.4169
 Red. masses --      1.0923                 1.1034                 1.0919
 Frc consts  --      1.3897                 1.4310                 1.4541
 IR Inten    --      1.7549                 4.3953                 1.7721

                     40                     41                     42
                      A                      A                      A
 Frequencies --   1527.9298              1763.6982              2973.6062
 Red. masses --      1.0893                 8.4092                 1.0823
 Frc consts  --      1.4983                15.4118                 5.6384
 IR Inten    --      0.3775                 0.6139                64.8141

                     43                     44                     45
                      A                      A                      A
 Frequencies --   3005.3093              3010.1744              3023.4077
 Red. masses --      1.0687                 1.0656                 1.0629
 Frc consts  --      5.6871                 5.6891                 5.7243
 IR Inten    --     29.0355                69.1451                30.5036

                     46                     47                     48
                      A                      A                      A
 Frequencies --   3027.8771              3064.8047              3070.1875
 Red. masses --      1.0674                 1.0992                 1.0971
 Frc consts  --      5.7659                 6.0835                 6.0928
 IR Inten    --     21.2991                60.9556                25.0482

                     49                     50                     51
                      A                      A                      A
 Frequencies --   3096.6629              3109.7075              3157.7294
 Red. masses --      1.0970                 1.0971                 1.0911
 Frc consts  --      6.1976                 6.2507                 6.4102
 IR Inten    --     38.6091                19.8133                17.7973

 - Thermochemistry -
 -------------------
 Temperature   298.150 Kelvin.  Pressure   1.00000 Atm.
 Atom     1 has atomic number  6 and mass  12.00000

 Molecular mass:   126.06808 amu.
 Principal axes and moments of inertia in atomic units:
                           1         2         3
     Eigenvalues --   585.971951141.589671532.21248
           X            0.99990   0.01199  -0.00693
           Y           -0.01199   0.99993   0.00072
           Z            0.00694  -0.00064   0.99998
 This molecule is an asymmetric top.
 Rotational symmetry number  1.
 Warning -- assumption of classical behavior for rotation
           may cause significant error
 Rotational temperatures (Kelvin)      0.14781     0.07587     0.05653
 Rotational constants (GHZ):           3.07991     1.58090     1.17787
 Zero-point vibrational energy     425408.1 (Joules/Mol)
                                  101.67498 (Kcal/Mol)
 Warning -- explicit consideration of   8 degrees of freedom as
           vibrations may cause significant error
 Vibrational temperatures:    101.06   153.75   309.03   447.39   498.35
          (Kelvin)            609.02   666.08   774.99   902.61   976.47
                              998.19  1198.35  1217.05  1231.79  1308.30
                             1336.33  1378.04  1384.24  1436.89  1502.93
                             1511.17  1550.87  1580.84  1637.41  1685.50
                             1725.77  1759.04  1770.27  1842.60  1871.45
                             1901.96  1940.76  1971.45  1997.32  2007.75
                             2057.23  2114.29  2134.61  2163.08  2198.35
                             2537.57  4278.35  4323.96  4330.96  4350.00
                             4356.43  4409.56  4417.31  4455.40  4474.17
                             4543.26

 Zero-point correction=                           0.162029 (Hartree/Particle)
 Thermal correction to Energy=                    0.169524
 Thermal correction to Enthalpy=                  0.170469
 Thermal correction to Gibbs Free Energy=         0.129644
 Sum of electronic and zero-point Energies=           -423.037454
 Sum of electronic and thermal Energies=              -423.029959
 Sum of electronic and thermal Enthalpies=            -423.029014
 Sum of electronic and thermal Free Energies=         -423.069839

                     E (Thermal)             CV                S
                      KCal/Mol        Cal/Mol-Kelvin    Cal/Mol-Kelvin
 Total                  106.378             29.069             85.923
 Electronic               0.000              0.000              0.000
 Translational            0.889              2.981             40.409
 Rotational               0.889              2.981             28.418
 Vibrational            104.601             23.108             17.096
 Vibration     1          0.598              1.968              4.147
 Vibration     2          0.606              1.944              3.325
 Vibration     3          0.645              1.818              2.003
 Vibration     4          0.700              1.653              1.357
 Vibration     5          0.724              1.583              1.183
 Vibration     6          0.785              1.420              0.881
 Vibration     7          0.821              1.332              0.758
 Vibration     8          0.894              1.165              0.568

 Normal termination of Gaussian 09 at Mon Jan 27 13:31:25 2020.
