 Gaussian 09, Revision D.01,
 Gaussian 09:  ES64L-G09RevD.01 24-Apr-2013

 -----------------------------
 # b3lyp 6-31G(2df,p) opt Freq
 -----------------------------

 -----
 titel
 -----
 Symbolic Z-matrix:
 Charge =  0 Multiplicity = 1

 SCF Done:  E(RB3LYP) =  -423.183230973     A.U. after   14 cycles
 Optimization completed.
    -- Stationary point found.
 Normal termination of Gaussian 09 at Mon Jan 27 22:04:03 2020.

 ----------------------------------------------------------------------
 #N Geom=AllCheck Guess=TCheck SCRF=Check GenChk RB3LYP/6-31G(2df,p) Fr
 eq
 ----------------------------------------------------------------------

 Structure from the checkpoint file:  "/scratch/puck/g09_836c50ac-b4ae-4be0-a833-d71663ea86e3/Gau-72665.chk"
 -----
 titel
 -----
 Charge =  0 Multiplicity = 1

                         Standard orientation:
 ---------------------------------------------------------------------
 Center     Atomic      Atomic             Coordinates (Angstroms)
 Number     Number       Type             X           Y           Z
 ---------------------------------------------------------------------
      1          6           0        2.743139   -0.109747   -0.299163
      2          6           0        1.302277    0.276261   -0.249569
      3          6           0        0.767948    1.487764   -0.059108
      4          6           0       -0.719519    1.397146    0.032439
      5          8           0       -1.178085    0.564726    1.143374
      6          6           0       -1.096769   -0.003687   -0.177387
      7          6           0       -2.372665   -0.519070   -0.775721
      8          6           0        0.213855   -0.797955   -0.321853
      9          8           0        0.351557   -1.778198    0.696116
     10          1           0        2.998833   -0.553457   -1.270193
     11          1           0        3.402387    0.744972   -0.127640
     12          1           0        2.952234   -0.875575    0.456180
     13          1           0        1.319423    2.412808    0.063784
     14          1           0       -1.372437    2.232959   -0.199991
     15          1           0       -2.285052   -0.605352   -1.863945
     16          1           0       -2.599664   -1.513701   -0.376481
     17          1           0       -3.207145    0.146295   -0.541027
     18          1           0        0.249474   -1.347456   -1.270849
     19          1           0        0.124581   -1.317985    1.516405
 ---------------------------------------------------------------------

 SCF Done:  E(RB3LYP) =  -423.183230973     A.U. after    1 cycles

 The electronic state is 1-A.
 Alpha  occ. eigenvalues --  -19.14843 -19.13532 -10.23643 -10.23597 -10.23450
 Alpha  occ. eigenvalues --  -10.19318 -10.18444 -10.18353 -10.18329  -1.06778
 Alpha  occ. eigenvalues --   -1.01416  -0.82177  -0.75278  -0.72173  -0.68114
 Alpha  occ. eigenvalues --   -0.62816  -0.57552  -0.53953  -0.50569  -0.47812
 Alpha  occ. eigenvalues --   -0.45049  -0.43540  -0.42401  -0.41547  -0.40936
 Alpha  occ. eigenvalues --   -0.40270  -0.37606  -0.37149  -0.36479  -0.33166
 Alpha  occ. eigenvalues --   -0.30953  -0.28475  -0.25135  -0.24114
 Alpha virt. eigenvalues --   -0.00363   0.09196   0.10682   0.11661   0.12119
 Alpha virt. eigenvalues --    0.12922   0.13985   0.15517   0.16252   0.16906
 Alpha virt. eigenvalues --    0.17251   0.18304   0.18626   0.21409   0.21812

 Mulliken charges:
               1
     1  C   -0.486631
     2  C    0.271721
     3  C   -0.196895
     4  C   -0.059502
     5  O   -0.316059
     6  C    0.377690
     7  C   -0.498285
     8  C   -0.013334
     9  O   -0.434230
    10  H    0.127271
    11  H    0.122590
    12  H    0.144716
    13  H    0.099997
    14  H    0.096876
    15  H    0.123462
    16  H    0.137669
    17  H    0.129509
    18  H    0.084359
    19  H    0.289077
 Sum of Mulliken charges =   0.00000

 Dipole moment (field-independent basis, Debye):
    X=              0.2722    Y=              1.1896    Z=             -1.5232  Tot=              1.9517
 Quadrupole moment (field-independent basis, Debye-Ang):
   XX=            -50.5653   YY=            -54.1469   ZZ=            -53.3226
   XY=              1.1675   XZ=              2.0885   YZ=              0.0649

  Exact polarizability:  88.426  -2.219  81.694  -0.384   2.708  59.380
 Approx polarizability: 112.291  -8.944 132.360  -5.497   5.246  98.172

                      1                      2                      3
                      A                      A                      A
 Frequencies --    106.4956               170.6444               192.3531
 Red. masses --      3.7327                 1.0531                 1.0767
 Frc consts  --      0.0249                 0.0181                 0.0235
 IR Inten    --      2.4822                 0.1794                 0.3095

                      4                      5                      6
                      A                      A                      A
 Frequencies --    211.8395               238.9287               242.1426
 Red. masses --      3.2297                 3.5946                 2.8680
 Frc consts  --      0.0854                 0.1209                 0.0991
 IR Inten    --      3.0814                 2.6604                 1.3066

                      7                      8                      9
                      A                      A                      A
 Frequencies --    300.5333               364.6773               479.9444
 Red. masses --      2.9897                 2.6346                 2.4452
 Frc consts  --      0.1591                 0.2064                 0.3319
 IR Inten    --      0.5950                 1.1036                 5.5582

                     10                     11                     12
                      A                      A                      A
 Frequencies --    507.9568               533.4764               556.5752
 Red. masses --      1.5542                 2.8645                 3.8136
 Frc consts  --      0.2363                 0.4803                 0.6960
 IR Inten    --     59.9318                26.9555                 7.2759

                     13                     14                     15
                      A                      A                      A
 Frequencies --    619.2724               695.2036               740.4663
 Red. masses --      3.9974                 5.9053                 3.8494
 Frc consts  --      0.9032                 1.6816                 1.2435
 IR Inten    --      6.0714                 9.6022                 8.9189

                     16                     17                     18
                      A                      A                      A
 Frequencies --    832.8920               872.6082               874.0247
 Red. masses --      2.1402                 2.4572                 2.6216
 Frc consts  --      0.8747                 1.1024                 1.1800
 IR Inten    --     12.1675                 6.0643                43.4895

                     19                     20                     21
                      A                      A                      A
 Frequencies --    895.8013               955.0426              1002.1455
 Red. masses --      2.5489                 2.0314                 1.4766
 Frc consts  --      1.2051                 1.0917                 0.8737
 IR Inten    --     16.7504                12.9945                 3.7777

                     22                     23                     24
                      A                      A                      A
 Frequencies --   1024.8073              1060.6646              1079.3304
 Red. masses --      1.3875                 1.6123                 4.1987
 Frc consts  --      0.8585                 1.0687                 2.8819
 IR Inten    --     15.2511                 0.7065                83.6884

                     25                     26                     27
                      A                      A                      A
 Frequencies --   1083.9327              1111.0393              1186.4000
 Red. masses --      2.3754                 1.6280                 1.9180
 Frc consts  --      1.6443                 1.1840                 1.5906
 IR Inten    --      4.7327                 4.8327                 0.5085

                     28                     29                     30
                      A                      A                      A
 Frequencies --   1223.5784              1264.9870              1280.2041
 Red. masses --      2.0444                 1.3606                 1.4215
 Frc consts  --      1.8033                 1.2828                 1.3727
 IR Inten    --      8.1143                 7.7541                13.6401

                     31                     32                     33
                      A                      A                      A
 Frequencies --   1305.2220              1336.6491              1404.5609
 Red. masses --      2.0498                 2.2073                 1.3030
 Frc consts  --      2.0575                 2.3236                 1.5145
 IR Inten    --      0.5987                 9.2882                 3.9252

                     34                     35                     36
                      A                      A                      A
 Frequencies --   1407.4035              1429.7243              1461.3422
 Red. masses --      1.2879                 1.2940                 2.1937
 Frc consts  --      1.5030                 1.5584                 2.7602
 IR Inten    --      4.5928                61.5971                19.7870

                     37                     38                     39
                      A                      A                      A
 Frequencies --   1474.2811              1484.4911              1488.2908
 Red. masses --      1.0472                 1.1513                 1.0774
 Frc consts  --      1.3411                 1.4948                 1.4061
 IR Inten    --      5.9052                 8.0598                 8.0106

                     40                     41                     42
                      A                      A                      A
 Frequencies --   1497.3579              1703.2737              3022.1382
 Red. masses --      1.1863                 7.1384                 1.0403
 Frc consts  --      1.5671                12.2017                 5.5983
 IR Inten    --      2.8638                10.7584                21.3631

                     43                     44                     45
                      A                      A                      A
 Frequencies --   3033.5624              3038.0766              3076.3919
 Red. masses --      1.0534                 1.0649                 1.0942
 Frc consts  --      5.7117                 5.7910                 6.1014
 IR Inten    --     10.6112                40.3122                11.9834

                     46                     47                     48
                      A                      A                      A
 Frequencies --   3099.1335              3118.2207              3123.9768
 Red. masses --      1.1005                 1.1011                 1.1013
 Frc consts  --      6.2278                 6.3078                 6.3323
 IR Inten    --     14.6315                16.0712                12.5563

                     49                     50                     51
                      A                      A                      A
 Frequencies --   3163.5686              3198.4018              3749.9337
 Red. masses --      1.0906                 1.0953                 1.0651
 Frc consts  --      6.4309                 6.6016                 8.8245
 IR Inten    --     25.1069                15.6778                22.9342

 - Thermochemistry -
 -------------------
 Temperature   298.150 Kelvin.  Pressure   1.00000 Atm.
 Atom     1 has atomic number  6 and mass  12.00000

 Molecular mass:   126.06808 amu.
 Principal axes and moments of inertia in atomic units:
                           1         2         3
     Eigenvalues --   661.865581197.753341509.91469
           X            0.99968   0.01772   0.01796
           Y           -0.01798   0.99973   0.01491
           Z           -0.01769  -0.01523   0.99973
 This molecule is an asymmetric top.
 Rotational symmetry number  1.
 Warning -- assumption of classical behavior for rotation
           may cause significant error
 Rotational temperatures (Kelvin)      0.13086     0.07231     0.05736
 Rotational constants (GHZ):           2.72675     1.50677     1.19526
 Zero-point vibrational energy     414649.4 (Joules/Mol)
                                   99.10359 (Kcal/Mol)
 Warning -- explicit consideration of  13 degrees of freedom as
           vibrations may cause significant error
 Vibrational temperatures:    153.22   245.52   276.75   304.79   343.76
          (Kelvin)            348.39   432.40   524.69   690.53   730.84
                              767.55   800.79   890.99  1000.24  1065.36
                             1198.34  1255.49  1257.53  1288.86  1374.09
                             1441.86  1474.47  1526.06  1552.91  1559.54
                             1598.54  1706.96  1760.45  1820.03  1841.93
                             1877.92  1923.14  2020.85  2024.94  2057.05
                             2102.54  2121.16  2135.85  2141.32  2154.36
                             2450.63  4348.18  4364.61  4371.11  4426.24
                             4458.96  4486.42  4494.70  4551.66  4601.78
                             5395.31

 Zero-point correction=                           0.157932 (Hartree/Particle)
 Thermal correction to Energy=                    0.166772
 Thermal correction to Enthalpy=                  0.167716
 Thermal correction to Gibbs Free Energy=         0.124935
 Sum of electronic and zero-point Energies=           -423.025299
 Sum of electronic and thermal Energies=              -423.016459
 Sum of electronic and thermal Enthalpies=            -423.015514
 Sum of electronic and thermal Free Energies=         -423.058296

                     E (Thermal)             CV                S
                      KCal/Mol        Cal/Mol-Kelvin    Cal/Mol-Kelvin
 Total                  104.651             33.901             90.041
 Electronic               0.000              0.000              0.000
 Translational            0.889              2.981             40.409
 Rotational               0.889              2.981             28.572
 Vibrational            102.874             27.939             21.061
 Vibration     1          0.605              1.944              3.332
 Vibration     2          0.626              1.879              2.428
 Vibration     3          0.634              1.850              2.205
 Vibration     4          0.643              1.823              2.028
 Vibration     5          0.657              1.781              1.811
 Vibration     6          0.658              1.776              1.787
 Vibration     7          0.693              1.673              1.414
 Vibration     8          0.738              1.545              1.102
 Vibration     9          0.836              1.295              0.710
 Vibration    10          0.863              1.232              0.639
 Vibration    11          0.888              1.176              0.579
 Vibration    12          0.912              1.125              0.531
 Vibration    13          0.979              0.991              0.418

 Optimization completed.
    -- Stationary point found.
 Normal termination of Gaussian 09 at Mon Jan 27 22:48:42 2020.
