 Gaussian 09, Revision D.01,
 Gaussian 09:  ES64L-G09RevD.01 24-Apr-2013

 -----------------------------
 # b3lyp 6-31G(2df,p) opt Freq
 -----------------------------

 -----
 titel
 -----
 Symbolic Z-matrix:
 Charge =  0 Multiplicity = 1

 SCF Done:  E(RB3LYP) =  -423.177201681     A.U. after   14 cycles
 Optimization completed.
    -- Stationary point found.
 Normal termination of Gaussian 09 at Tue Jan 28 03:02:29 2020.

 ----------------------------------------------------------------------
 #N Geom=AllCheck Guess=TCheck SCRF=Check GenChk RB3LYP/6-31G(2df,p) Fr
 eq
 ----------------------------------------------------------------------

 Structure from the checkpoint file:  "/scratch/puck/g09_4a9cd7c3-92f1-4029-a8f5-4e053ef6656d/Gau-65432.chk"
 -----
 titel
 -----
 Charge =  0 Multiplicity = 1

                         Standard orientation:
 ---------------------------------------------------------------------
 Center     Atomic      Atomic             Coordinates (Angstroms)
 Number     Number       Type             X           Y           Z
 ---------------------------------------------------------------------
      1          6           0       -2.615845   -0.850269   -0.365550
      2          6           0       -1.530758   -0.255033    0.527355
      3          6           0       -0.166690   -1.026463    0.487305
      4          6           0        0.701027    0.125996   -0.059023
      5          6           0        0.294161    1.334661    0.836177
      6          6           0       -0.987354    1.101357    0.012097
      7          8           0       -0.140615    0.691745   -1.112971
      8          6           0        2.129042   -0.104253   -0.448854
      9          8           0        2.862927   -0.866463    0.127930
     10          1           0       -2.872433   -1.866734   -0.050430
     11          1           0       -3.531676   -0.249801   -0.333240
     12          1           0       -2.269846   -0.892223   -1.402649
     13          1           0       -1.902262   -0.153346    1.552537
     14          1           0        0.176316   -1.384104    1.459580
     15          1           0       -0.184124   -1.868570   -0.208068
     16          1           0        0.277137    1.198338    1.919693
     17          1           0        0.811516    2.250266    0.547801
     18          1           0       -1.694983    1.893740   -0.233859
     19          1           0        2.470372    0.514200   -1.308075
 ---------------------------------------------------------------------

 SCF Done:  E(RB3LYP) =  -423.177201681     A.U. after    1 cycles

 The electronic state is 1-A.
 Alpha  occ. eigenvalues --  -19.14780 -19.14519 -10.27555 -10.25224 -10.24633
 Alpha  occ. eigenvalues --  -10.20351 -10.19761 -10.19003 -10.17722  -1.06368
 Alpha  occ. eigenvalues --   -1.05025  -0.81332  -0.75694  -0.72874  -0.68087
 Alpha  occ. eigenvalues --   -0.61835  -0.56307  -0.55064  -0.51390  -0.48235
 Alpha  occ. eigenvalues --   -0.46589  -0.45752  -0.43760  -0.41223  -0.39641
 Alpha  occ. eigenvalues --   -0.39188  -0.38118  -0.36987  -0.34572  -0.33686
 Alpha  occ. eigenvalues --   -0.32699  -0.32207  -0.26146  -0.25551
 Alpha virt. eigenvalues --   -0.03824   0.08463   0.10609   0.10739   0.12131
 Alpha virt. eigenvalues --    0.12524   0.13701   0.14895   0.15693   0.16647
 Alpha virt. eigenvalues --    0.17373   0.17683   0.18584   0.19241   0.20918

 Mulliken charges:
               1
     1  C   -0.412800
     2  C    0.031406
     3  C   -0.279127
     4  C    0.331746
     5  C   -0.272849
     6  C    0.066746
     7  O   -0.333623
     8  C    0.053933
     9  O   -0.251644
    10  H    0.117031
    11  H    0.110994
    12  H    0.133053
    13  H    0.073975
    14  H    0.117046
    15  H    0.113689
    16  H    0.108682
    17  H    0.116529
    18  H    0.082303
    19  H    0.092910
 Sum of Mulliken charges =   0.00000

 Dipole moment (field-independent basis, Debye):
    X=             -2.0868    Y=              1.2704    Z=              0.9628  Tot=              2.6260
 Quadrupole moment (field-independent basis, Debye-Ang):
   XX=            -58.6386   YY=            -52.3994   ZZ=            -53.9293
   XY=              3.6014   XZ=             -2.5525   YZ=              1.7008

  Exact polarizability:  88.073  -1.683  72.780  -0.370  -1.820  65.519
 Approx polarizability: 116.322 -10.199 109.183   1.331  -6.407 106.596

                      1                      2                      3
                      A                      A                      A
 Frequencies --     58.3411               145.1860               173.9584
 Red. masses --      3.8280                 2.6082                 4.1971
 Frc consts  --      0.0077                 0.0324                 0.0748
 IR Inten    --      7.7381                 0.4129                 5.7889

                      4                      5                      6
                      A                      A                      A
 Frequencies --    241.5487               251.9378               320.8165
 Red. masses --      1.2216                 2.1050                 2.4032
 Frc consts  --      0.0420                 0.0787                 0.1457
 IR Inten    --      1.1907                 3.6000                 0.4909

                      7                      8                      9
                      A                      A                      A
 Frequencies --    408.9563               436.9891               481.8512
 Red. masses --      1.9112                 3.4629                 3.4861
 Frc consts  --      0.1883                 0.3896                 0.4769
 IR Inten    --      0.0949                 0.5434                 1.7626

                     10                     11                     12
                      A                      A                      A
 Frequencies --    570.2981               664.5534               739.7610
 Red. masses --      4.1242                 3.5465                 3.2130
 Frc consts  --      0.7903                 0.9228                 1.0360
 IR Inten    --     15.5277                 4.2748                22.0027

                     13                     14                     15
                      A                      A                      A
 Frequencies --    796.9486               832.4269               844.9509
 Red. masses --      2.7721                 3.2758                 3.5520
 Frc consts  --      1.0373                 1.3374                 1.4941
 IR Inten    --      6.4143                20.4500                14.9582

                     16                     17                     18
                      A                      A                      A
 Frequencies --    882.9435               912.9605               931.1032
 Red. masses --      2.7147                 2.2891                 1.5393
 Frc consts  --      1.2469                 1.1242                 0.7863
 IR Inten    --     21.8532                 6.5260                 7.2426

                     19                     20                     21
                      A                      A                      A
 Frequencies --    961.9639              1010.1605              1022.0479
 Red. masses --      2.3093                 1.5520                 2.5585
 Frc consts  --      1.2591                 0.9331                 1.5746
 IR Inten    --     19.3484                 0.7162                 6.2360

                     22                     23                     24
                      A                      A                      A
 Frequencies --   1034.0316              1050.6833              1113.1933
 Red. masses --      1.3816                 1.8282                 1.9535
 Frc consts  --      0.8704                 1.1891                 1.4263
 IR Inten    --     14.1266                 3.0397                 0.8493

                     25                     26                     27
                      A                      A                      A
 Frequencies --   1135.0252              1156.2136              1201.3452
 Red. masses --      1.6132                 2.3100                 1.5369
 Frc consts  --      1.2245                 1.8195                 1.3069
 IR Inten    --      3.1053                 3.7535                 9.9163

                     28                     29                     30
                      A                      A                      A
 Frequencies --   1212.2909              1225.8030              1256.7021
 Red. masses --      1.5000                 1.4447                 1.6551
 Frc consts  --      1.2988                 1.2790                 1.5401
 IR Inten    --      5.9160                 1.7203                 9.2118

                     31                     32                     33
                      A                      A                      A
 Frequencies --   1278.7150              1305.2265              1325.6774
 Red. masses --      1.8100                 1.4490                 2.2887
 Frc consts  --      1.7437                 1.4544                 2.3698
 IR Inten    --      4.2149                 0.5441                 1.4159

                     34                     35                     36
                      A                      A                      A
 Frequencies --   1371.8961              1404.6724              1408.7975
 Red. masses --      1.5373                 1.2632                 1.2961
 Frc consts  --      1.7047                 1.4685                 1.5156
 IR Inten    --      1.4074                 6.4358                 5.0575

                     37                     38                     39
                      A                      A                      A
 Frequencies --   1478.1041              1494.5221              1497.3620
 Red. masses --      1.1159                 1.0819                 1.0831
 Frc consts  --      1.4364                 1.4237                 1.4308
 IR Inten    --      2.8428                 3.7134                 4.1965

                     40                     41                     42
                      A                      A                      A
 Frequencies --   1506.0658              1824.2199              2896.3840
 Red. masses --      1.0519                10.7889                 1.0839
 Frc consts  --      1.4058                21.1534                 5.3575
 IR Inten    --      1.7564               150.3885                91.4706

                     43                     44                     45
                      A                      A                      A
 Frequencies --   3032.3338              3049.0209              3073.0504
 Red. masses --      1.0359                 1.0840                 1.0571
 Frc consts  --      5.6123                 5.9373                 5.8820
 IR Inten    --     26.8073                18.4899                27.3715

                     46                     47                     48
                      A                      A                      A
 Frequencies --   3077.5095              3097.3560              3114.8618
 Red. masses --      1.0601                 1.1006                 1.1014
 Frc consts  --      5.9158                 6.2210                 6.2963
 IR Inten    --     12.1764                22.5716                16.8581

                     49                     50                     51
                      A                      A                      A
 Frequencies --   3119.5888              3129.7979              3148.5736
 Red. masses --      1.0917                 1.1063                 1.1099
 Frc consts  --      6.2599                 6.3852                 6.4828
 IR Inten    --     46.5198                16.2095                19.8173

 - Thermochemistry -
 -------------------
 Temperature   298.150 Kelvin.  Pressure   1.00000 Atm.
 Atom     1 has atomic number  6 and mass  12.00000

 Molecular mass:   126.06808 amu.
 Principal axes and moments of inertia in atomic units:
                           1         2         3
     Eigenvalues --   532.763571447.776811615.43562
           X            0.99940   0.03450   0.00075
           Y           -0.03450   0.99855   0.04141
           Z            0.00068  -0.04141   0.99914
 This molecule is an asymmetric top.
 Rotational symmetry number  1.
 Warning -- assumption of classical behavior for rotation
           may cause significant error
 Rotational temperatures (Kelvin)      0.16257     0.05983     0.05362
 Rotational constants (GHZ):           3.38751     1.24656     1.11719
 Zero-point vibrational energy     416950.8 (Joules/Mol)
                                   99.65363 (Kcal/Mol)
 Warning -- explicit consideration of  10 degrees of freedom as
           vibrations may cause significant error
 Vibrational temperatures:     83.94   208.89   250.29   347.53   362.48
          (Kelvin)            461.58   588.40   628.73   693.28   820.53
                              956.14  1064.35  1146.63  1197.68  1215.69
                             1270.36  1313.54  1339.65  1384.05  1453.39
                             1470.50  1487.74  1511.70  1601.63  1633.05
                             1663.53  1728.47  1744.21  1763.65  1808.11
                             1839.78  1877.93  1907.35  1973.85  2021.01
                             2026.94  2126.66  2150.28  2154.37  2166.89
                             2624.64  4167.25  4362.85  4386.86  4421.43
                             4427.84  4456.40  4481.59  4488.39  4503.08
                             4530.09

 Zero-point correction=                           0.158808 (Hartree/Particle)
 Thermal correction to Energy=                    0.167056
 Thermal correction to Enthalpy=                  0.168001
 Thermal correction to Gibbs Free Energy=         0.125725
 Sum of electronic and zero-point Energies=           -423.018394
 Sum of electronic and thermal Energies=              -423.010145
 Sum of electronic and thermal Enthalpies=            -423.009201
 Sum of electronic and thermal Free Energies=         -423.051477

                     E (Thermal)             CV                S
                      KCal/Mol        Cal/Mol-Kelvin    Cal/Mol-Kelvin
 Total                  104.829             31.484             88.977
 Electronic               0.000              0.000              0.000
 Translational            0.889              2.981             40.409
 Rotational               0.889              2.981             28.612
 Vibrational            103.052             25.523             19.956
 Vibration     1          0.596              1.974              4.513
 Vibration     2          0.617              1.908              2.734
 Vibration     3          0.627              1.875              2.392
 Vibration     4          0.658              1.777              1.791
 Vibration     5          0.664              1.760              1.717
 Vibration     6          0.706              1.634              1.306
 Vibration     7          0.773              1.451              0.930
 Vibration     8          0.797              1.390              0.836
 Vibration     9          0.838              1.290              0.705
 Vibration    10          0.926              1.095              0.504

 Optimization completed.
    -- Stationary point found.
 Normal termination of Gaussian 09 at Tue Jan 28 03:53:04 2020.
