 Gaussian 09, Revision D.01,
 Gaussian 09:  ES64L-G09RevD.01 24-Apr-2013

 -----------------------------
 # b3lyp 6-31G(2df,p) opt Freq
 -----------------------------

 -----
 titel
 -----
 Symbolic Z-matrix:
 Charge =  0 Multiplicity = 1

 SCF Done:  E(RB3LYP) =  -423.142234655     A.U. after   14 cycles
 Optimization completed.
    -- Stationary point found.
 Normal termination of Gaussian 09 at Mon Jan 27 23:48:02 2020.

 ----------------------------------------------------------------------
 #N Geom=AllCheck Guess=TCheck SCRF=Check GenChk RB3LYP/6-31G(2df,p) Fr
 eq
 ----------------------------------------------------------------------

 Structure from the checkpoint file:  "/scratch/puck/g09_ae9d52cc-e6b7-44a9-86de-c9e066ce4f9d/Gau-78011.chk"
 -----
 titel
 -----
 Charge =  0 Multiplicity = 1

                         Standard orientation:
 ---------------------------------------------------------------------
 Center     Atomic      Atomic             Coordinates (Angstroms)
 Number     Number       Type             X           Y           Z
 ---------------------------------------------------------------------
      1          6           0       -2.416211   -0.157277   -0.213222
      2          6           0       -0.916278   -0.172714   -0.042310
      3          6           0       -0.305762   -0.879737    1.198285
      4          6           0        0.901460   -1.311140    0.341985
      5          8           0        1.831377   -0.210982    0.134069
      6          6           0        1.030018    0.297521   -0.962075
      7          6           0       -0.119957    1.141018   -0.372851
      8          8           0        0.216907    2.029565    0.652759
      9          6           0        0.119730   -0.955777   -0.955510
     10          1           0       -2.882710    0.481887    0.545953
     11          1           0       -2.702902    0.232786   -1.196510
     12          1           0       -2.844553   -1.160899   -0.112091
     13          1           0       -0.106391   -0.277234    2.089587
     14          1           0       -0.907523   -1.751087    1.479909
     15          1           0        1.425680   -2.243008    0.560190
     16          1           0        1.644907    0.681904   -1.777821
     17          1           0       -0.646400    1.699327   -1.156246
     18          1           0        0.977845    1.629731    1.097550
     19          1           0       -0.102225   -1.613429   -1.790960
 ---------------------------------------------------------------------

 SCF Done:  E(RB3LYP) =  -423.142234655     A.U. after    1 cycles

 The electronic state is 1-A.
 Alpha  occ. eigenvalues --  -19.14377 -19.13302 -10.24034 -10.23362 -10.22797
 Alpha  occ. eigenvalues --  -10.19605 -10.19371 -10.18433 -10.17826  -1.05613
 Alpha  occ. eigenvalues --   -1.01285  -0.85245  -0.75070  -0.72404  -0.65681
 Alpha  occ. eigenvalues --   -0.61598  -0.58475  -0.53405  -0.50561  -0.48821
 Alpha  occ. eigenvalues --   -0.46874  -0.44183  -0.42704  -0.42368  -0.40746
 Alpha  occ. eigenvalues --   -0.38694  -0.37666  -0.36404  -0.34429  -0.31599
 Alpha  occ. eigenvalues --   -0.28705  -0.28428  -0.25887  -0.24210
 Alpha virt. eigenvalues --    0.06587   0.09445   0.09696   0.10784   0.12096
 Alpha virt. eigenvalues --    0.13022   0.13534   0.15295   0.16844   0.17172
 Alpha virt. eigenvalues --    0.17314   0.18079   0.19094   0.19744   0.21629

 Mulliken charges:
               1
     1  C   -0.509851
     2  C    0.289010
     3  C   -0.295801
     4  C    0.104683
     5  O   -0.320954
     6  C    0.044659
     7  C    0.115643
     8  O   -0.443391
     9  C   -0.148230
    10  H    0.129266
    11  H    0.114341
    12  H    0.112523
    13  H    0.103113
    14  H    0.101081
    15  H    0.082084
    16  H    0.077880
    17  H    0.080551
    18  H    0.288258
    19  H    0.075134
 Sum of Mulliken charges =   0.00000

 Dipole moment (field-independent basis, Debye):
    X=             -0.8949    Y=             -1.8234    Z=             -0.8455  Tot=              2.2001
 Quadrupole moment (field-independent basis, Debye-Ang):
   XX=            -55.4768   YY=            -55.3719   ZZ=            -50.6296
   XY=              0.8537   XZ=              0.2753   YZ=             -1.8167

  Exact polarizability:  76.611  -0.389  73.959  -0.629  -3.026  70.805
 Approx polarizability: 108.337   0.007 110.154   1.127  -2.461 107.494

                      1                      2                      3
                      A                      A                      A
 Frequencies --    157.4515               201.3675               241.2617
 Red. masses --      4.1068                 1.2091                 2.3497
 Frc consts  --      0.0600                 0.0289                 0.0806
 IR Inten    --      2.2344                 0.3083                 0.5975

                      4                      5                      6
                      A                      A                      A
 Frequencies --    258.2188               293.1082               417.7557
 Red. masses --      4.0814                 2.4624                 2.7854
 Frc consts  --      0.1603                 0.1246                 0.2864
 IR Inten    --      4.5862                 0.8306                 3.5211

                      7                      8                      9
                      A                      A                      A
 Frequencies --    464.1698               520.5232               581.5429
 Red. masses --      2.0273                 1.2398                 3.6059
 Frc consts  --      0.2574                 0.1979                 0.7185
 IR Inten    --      6.6557                62.9898                 2.9489

                     10                     11                     12
                      A                      A                      A
 Frequencies --    621.3225               690.1948               750.5161
 Red. masses --      3.6256                 4.0144                 4.1061
 Frc consts  --      0.8246                 1.1267                 1.3627
 IR Inten    --      7.1842                 5.7004                 1.1549

                     13                     14                     15
                      A                      A                      A
 Frequencies --    805.0094               827.0544               843.5494
 Red. masses --      2.4730                 2.1002                 1.5227
 Frc consts  --      0.9442                 0.8464                 0.6384
 IR Inten    --      7.9082                15.5945                 0.1987

                     16                     17                     18
                      A                      A                      A
 Frequencies --    864.2233               905.6970               945.0008
 Red. masses --      2.4367                 2.0016                 1.8644
 Frc consts  --      1.0723                 0.9674                 0.9810
 IR Inten    --      9.2491                 3.3087                 3.1976

                     19                     20                     21
                      A                      A                      A
 Frequencies --    964.1896               983.4081               988.2943
 Red. masses --      3.8484                 2.7358                 1.7907
 Frc consts  --      2.1079                 1.5589                 1.0305
 IR Inten    --     26.1958                20.3662                13.0482

                     22                     23                     24
                      A                      A                      A
 Frequencies --   1028.0382              1099.5595              1119.9307
 Red. masses --      3.6168                 1.5555                 2.1522
 Frc consts  --      2.2521                 1.1080                 1.5904
 IR Inten    --     39.2444                16.9234                96.3977

                     25                     26                     27
                      A                      A                      A
 Frequencies --   1133.9515              1144.1955              1160.6363
 Red. masses --      2.3054                 1.9116                 1.8569
 Frc consts  --      1.7466                 1.4745                 1.4738
 IR Inten    --      1.5961                19.0641                 5.1262

                     28                     29                     30
                      A                      A                      A
 Frequencies --   1183.1720              1208.0037              1238.8038
 Red. masses --      1.4911                 2.1245                 1.9921
 Frc consts  --      1.2298                 1.8266                 1.8012
 IR Inten    --      3.0875                 2.7069                 2.8368

                     31                     32                     33
                      A                      A                      A
 Frequencies --   1262.6605              1274.0650              1279.4465
 Red. masses --      1.5690                 1.7387                 1.9362
 Frc consts  --      1.4738                 1.6628                 1.8674
 IR Inten    --      4.3868                 1.9595                 7.3424

                     34                     35                     36
                      A                      A                      A
 Frequencies --   1291.2355              1329.5261              1367.2292
 Red. masses --      1.4207                 1.5620                 1.8858
 Frc consts  --      1.3956                 1.6268                 2.0769
 IR Inten    --      0.3089                16.9342                 0.9381

                     37                     38                     39
                      A                      A                      A
 Frequencies --   1409.2602              1434.5290              1472.5986
 Red. masses --      1.3016                 1.2648                 1.1187
 Frc consts  --      1.5230                 1.5335                 1.4294
 IR Inten    --      1.4994                87.2676                 2.1057

                     40                     41                     42
                      A                      A                      A
 Frequencies --   1490.1653              1491.7196              3018.5116
 Red. masses --      1.0507                 1.0507                 1.0354
 Frc consts  --      1.3746                 1.3776                 5.5583
 IR Inten    --      5.6709                 6.3914                25.6432

                     43                     44                     45
                      A                      A                      A
 Frequencies --   3038.9545              3043.1226              3085.4953
 Red. masses --      1.0593                 1.0847                 1.1009
 Frc consts  --      5.7640                 5.9186                 6.1749
 IR Inten    --     34.6248                28.6694                16.1214

                     46                     47                     48
                      A                      A                      A
 Frequencies --   3087.0538              3092.7959              3094.8833
 Red. masses --      1.1010                 1.0891                 1.1004
 Frc consts  --      6.1818                 6.1380                 6.2097
 IR Inten    --     24.7849                74.8379                29.1833

                     49                     50                     51
                      A                      A                      A
 Frequencies --   3097.5894              3158.4950              3737.5153
 Red. masses --      1.0974                 1.0941                 1.0650
 Frc consts  --      6.2037                 6.4309                 8.7657
 IR Inten    --     37.1549                23.3379                32.2556

 - Thermochemistry -
 -------------------
 Temperature   298.150 Kelvin.  Pressure   1.00000 Atm.
 Atom     1 has atomic number  6 and mass  12.00000

 Molecular mass:   126.06808 amu.
 Principal axes and moments of inertia in atomic units:
                           1         2         3
     Eigenvalues --   753.40991 916.830221187.49093
           X            0.99939   0.03489   0.00202
           Y           -0.03480   0.99872  -0.03661
           Z           -0.00329   0.03652   0.99933
 This molecule is an asymmetric top.
 Rotational symmetry number  1.
 Warning -- assumption of classical behavior for rotation
           may cause significant error
 Rotational temperatures (Kelvin)      0.11496     0.09447     0.07294
 Rotational constants (GHZ):           2.39543     1.96846     1.51979
 Zero-point vibrational energy     419871.3 (Joules/Mol)
                                  100.35165 (Kcal/Mol)
 Warning -- explicit consideration of   9 degrees of freedom as
           vibrations may cause significant error
 Vibrational temperatures:    226.54   289.72   347.12   371.52   421.72
          (Kelvin)            601.06   667.84   748.92   836.71   893.94
                              993.04  1079.82  1158.23  1189.95  1213.68
                             1243.42  1303.09  1359.64  1387.25  1414.90
                             1421.93  1479.12  1582.02  1611.33  1631.50
                             1646.24  1669.89  1702.32  1738.05  1782.36
                             1816.68  1833.09  1840.84  1857.80  1912.89
                             1967.14  2027.61  2063.96  2118.74  2144.01
                             2146.25  4342.96  4372.37  4378.37  4439.33
                             4441.58  4449.84  4452.84  4456.73  4544.36
                             5377.44

 Zero-point correction=                           0.159921 (Hartree/Particle)
 Thermal correction to Energy=                    0.167412
 Thermal correction to Enthalpy=                  0.168356
 Thermal correction to Gibbs Free Energy=         0.128466
 Sum of electronic and zero-point Energies=           -422.982314
 Sum of electronic and thermal Energies=              -422.974822
 Sum of electronic and thermal Enthalpies=            -422.973878
 Sum of electronic and thermal Free Energies=         -423.013769

                     E (Thermal)             CV                S
                      KCal/Mol        Cal/Mol-Kelvin    Cal/Mol-Kelvin
 Total                  105.053             30.577             83.956
 Electronic               0.000              0.000              0.000
 Translational            0.889              2.981             40.409
 Rotational               0.889              2.981             28.197
 Vibrational            103.275             24.616             15.351
 Vibration     1          0.621              1.894              2.580
 Vibration     2          0.638              1.838              2.121
 Vibration     3          0.658              1.777              1.794
 Vibration     4          0.667              1.749              1.674
 Vibration     5          0.688              1.687              1.456
 Vibration     6          0.781              1.432              0.900
 Vibration     7          0.822              1.330              0.754
 Vibration     8          0.876              1.205              0.609
 Vibration     9          0.938              1.071              0.483

 Normal termination of Gaussian 09 at Tue Jan 28 00:36:36 2020.
