 Gaussian 09, Revision D.01,
 Gaussian 09:  ES64L-G09RevD.01 24-Apr-2013

 -----------------------------
 # b3lyp 6-31G(2df,p) opt Freq
 -----------------------------

 -----
 titel
 -----
 Symbolic Z-matrix:
 Charge =  0 Multiplicity = 1

 SCF Done:  E(RB3LYP) =  -423.146030043     A.U. after   14 cycles
 Optimization completed.
    -- Stationary point found.
 Normal termination of Gaussian 09 at Mon Jan 27 17:31:40 2020.

 ----------------------------------------------------------------------
 #N Geom=AllCheck Guess=TCheck SCRF=Check GenChk RB3LYP/6-31G(2df,p) Fr
 eq
 ----------------------------------------------------------------------

 Structure from the checkpoint file:  "/scratch/puck/g09_085ad352-6152-42d6-b93e-7974e47ce8b6/Gau-166223.chk"
 -----
 titel
 -----
 Charge =  0 Multiplicity = 1

                         Standard orientation:
 ---------------------------------------------------------------------
 Center     Atomic      Atomic             Coordinates (Angstroms)
 Number     Number       Type             X           Y           Z
 ---------------------------------------------------------------------
      1          6           0        2.145710    0.571951    0.429429
      2          6           0        0.876487   -0.081612   -0.022489
      3          8           0        0.974572   -1.160451   -0.975253
      4          6           0        0.352828   -1.408455    0.297817
      5          6           0       -1.167808   -1.134080    0.359828
      6          6           0       -1.156770    0.189200    1.198849
      7          6           0       -0.450962    0.721529   -0.107047
      8          8           0       -0.261008    2.065986   -0.406535
      9          6           0       -1.394331   -0.232925   -0.887854
     10          1           0        1.985631    1.128744    1.358033
     11          1           0        2.924275   -0.177145    0.592865
     12          1           0        2.497491    1.284186   -0.323495
     13          1           0        0.838997   -2.138380    0.937388
     14          1           0       -1.835625   -1.959578    0.597173
     15          1           0       -2.154083    0.612119    1.355073
     16          1           0       -0.586572    0.201568    2.132581
     17          1           0       -1.119493    2.500504   -0.426512
     18          1           0       -2.418035    0.148862   -0.919843
     19          1           0       -1.072019   -0.598807   -1.860161
 ---------------------------------------------------------------------

 SCF Done:  E(RB3LYP) =  -423.146030043     A.U. after    1 cycles

 The electronic state is 1-A.
 Alpha  occ. eigenvalues --  -19.14717 -19.14179 -10.24369 -10.23204 -10.22799
 Alpha  occ. eigenvalues --  -10.19915 -10.18781 -10.17980 -10.17822  -1.06676
 Alpha  occ. eigenvalues --   -1.03095  -0.86626  -0.74408  -0.67941  -0.65856
 Alpha  occ. eigenvalues --   -0.64750  -0.56215  -0.55206  -0.51415  -0.48779
 Alpha  occ. eigenvalues --   -0.45634  -0.43108  -0.41752  -0.41357  -0.39356
 Alpha  occ. eigenvalues --   -0.39053  -0.36570  -0.36260  -0.35325  -0.32901
 Alpha  occ. eigenvalues --   -0.30221  -0.28500  -0.26037  -0.24675
 Alpha virt. eigenvalues --    0.06849   0.09564   0.10609   0.11645   0.11845
 Alpha virt. eigenvalues --    0.13379   0.14893   0.15781   0.16551   0.17083
 Alpha virt. eigenvalues --    0.18180   0.20195   0.20587   0.21765   0.22822

 Mulliken charges:
               1
     1  C   -0.491676
     2  C    0.401430
     3  O   -0.304498
     4  C   -0.026072
     5  C   -0.084588
     6  C   -0.288227
     7  C    0.336639
     8  O   -0.491367
     9  C   -0.283259
    10  H    0.126059
    11  H    0.125213
    12  H    0.139662
    13  H    0.096695
    14  H    0.071153
    15  H    0.088471
    16  H    0.096011
    17  H    0.281505
    18  H    0.083990
    19  H    0.122859
 Sum of Mulliken charges =   0.00000

 Dipole moment (field-independent basis, Debye):
    X=             -1.7164    Y=              0.4970    Z=              1.7174  Tot=              2.4784
 Quadrupole moment (field-independent basis, Debye-Ang):
   XX=            -49.8710   YY=            -52.5602   ZZ=            -54.6845
   XY=             -2.0981   XZ=              2.4978   YZ=             -2.2965

  Exact polarizability:  79.854   0.456  75.319   0.574  -1.121  66.152
 Approx polarizability: 109.666   0.194 114.825  -3.613  -0.560 105.048

                      1                      2                      3
                      A                      A                      A
 Frequencies --    173.5909               194.1460               240.9591
 Red. masses --      1.2404                 2.0456                 3.0389
 Frc consts  --      0.0220                 0.0454                 0.1040
 IR Inten    --      0.0491                 0.8099                 3.9203

                      4                      5                      6
                      A                      A                      A
 Frequencies --    276.5743               332.3433               380.9975
 Red. masses --      1.1828                 3.4294                 3.1316
 Frc consts  --      0.0533                 0.2232                 0.2678
 IR Inten    --     72.2925                11.5735                12.2662

                      7                      8                      9
                      A                      A                      A
 Frequencies --    440.6783               487.3796               518.9538
 Red. masses --      2.8014                 3.9566                 2.1243
 Frc consts  --      0.3205                 0.5537                 0.3371
 IR Inten    --      9.7799                 5.4715                 1.6841

                     10                     11                     12
                      A                      A                      A
 Frequencies --    555.6549               612.4964               639.2524
 Red. masses --      4.4005                 3.6982                 3.3287
 Frc consts  --      0.8005                 0.8174                 0.8014
 IR Inten    --      8.6261                 5.9856                 0.5528

                     13                     14                     15
                      A                      A                      A
 Frequencies --    724.7240               811.2252               850.5987
 Red. masses --      3.8142                 3.8104                 2.4994
 Frc consts  --      1.1803                 1.4774                 1.0654
 IR Inten    --     10.0504                 6.3515                 0.6829

                     16                     17                     18
                      A                      A                      A
 Frequencies --    871.2221               889.4591               914.8703
 Red. masses --      3.0058                 2.3745                 2.2815
 Frc consts  --      1.3442                 1.1068                 1.1251
 IR Inten    --      7.1950                 7.0046                16.8013

                     19                     20                     21
                      A                      A                      A
 Frequencies --    935.2322               969.2151               997.4659
 Red. masses --      2.5915                 2.2234                 1.6261
 Frc consts  --      1.3355                 1.2306                 0.9532
 IR Inten    --      6.5024                 6.5622                 2.3967

                     22                     23                     24
                      A                      A                      A
 Frequencies --   1006.2602              1028.9655              1058.8444
 Red. masses --      1.5872                 1.7502                 1.2583
 Frc consts  --      0.9469                 1.0918                 0.8312
 IR Inten    --      6.1934                12.7259                 9.1239

                     25                     26                     27
                      A                      A                      A
 Frequencies --   1098.9196              1114.2561              1134.2687
 Red. masses --      1.6601                 1.7649                 1.2526
 Frc consts  --      1.1812                 1.2910                 0.9495
 IR Inten    --     13.9894                 8.8724                25.6175

                     28                     29                     30
                      A                      A                      A
 Frequencies --   1157.5454              1206.4392              1211.6710
 Red. masses --      1.6864                 1.9649                 1.9038
 Frc consts  --      1.3314                 1.6850                 1.6468
 IR Inten    --      0.4822                21.7115                 9.5013

                     31                     32                     33
                      A                      A                      A
 Frequencies --   1230.5258              1279.9810              1284.8884
 Red. masses --      1.6269                 2.0592                 1.7570
 Frc consts  --      1.4514                 1.9878                 1.7090
 IR Inten    --     12.3681                54.1595                67.4837

                     34                     35                     36
                      A                      A                      A
 Frequencies --   1298.3774              1383.1776              1409.4723
 Red. masses --      1.7594                 2.0304                 1.2665
 Frc consts  --      1.7475                 2.2887                 1.4824
 IR Inten    --     73.0194                 1.9979                 2.6138

                     37                     38                     39
                      A                      A                      A
 Frequencies --   1457.7607              1471.8994              1483.3518
 Red. masses --      2.3130                 1.0996                 1.2258
 Frc consts  --      2.8960                 1.4036                 1.5891
 IR Inten    --      6.0912                 3.3052                 8.6540

                     40                     41                     42
                      A                      A                      A
 Frequencies --   1495.1851              1515.2443              3042.0227
 Red. masses --      1.1541                 1.2174                 1.0375
 Frc consts  --      1.5201                 1.6469                 5.6566
 IR Inten    --      3.3825                 7.1626                17.9227

                     43                     44                     45
                      A                      A                      A
 Frequencies --   3044.8228              3074.1546              3105.1600
 Red. masses --      1.0533                 1.0630                 1.1060
 Frc consts  --      5.7536                 5.9190                 6.2833
 IR Inten    --     37.6656                24.5963                28.1806

                     46                     47                     48
                      A                      A                      A
 Frequencies --   3107.2817              3126.0801              3135.9633
 Red. masses --      1.1031                 1.1023                 1.0902
 Frc consts  --      6.2754                 6.3465                 6.3166
 IR Inten    --     25.6900                14.0658                34.3722

                     49                     50                     51
                      A                      A                      A
 Frequencies --   3163.6308              3166.7444              3820.3906
 Red. masses --      1.1030                 1.0928                 1.0660
 Frc consts  --      6.5041                 6.4567                 9.1666
 IR Inten    --     11.5707                22.3275                21.9835

 - Thermochemistry -
 -------------------
 Temperature   298.150 Kelvin.  Pressure   1.00000 Atm.
 Atom     1 has atomic number  6 and mass  12.00000

 Molecular mass:   126.06808 amu.
 Principal axes and moments of inertia in atomic units:
                           1         2         3
     Eigenvalues --   794.04462 861.078171199.22898
           X            0.98819   0.14957   0.03323
           Y           -0.14935   0.98874  -0.00909
           Z           -0.03421   0.00402   0.99941
 This molecule is an asymmetric top.
 Rotational symmetry number  1.
 Warning -- assumption of classical behavior for rotation
           may cause significant error
 Rotational temperatures (Kelvin)      0.10908     0.10059     0.07222
 Rotational constants (GHZ):           2.27285     2.09591     1.50492
 Zero-point vibrational energy     418276.2 (Joules/Mol)
                                   99.97042 (Kcal/Mol)
 Warning -- explicit consideration of  11 degrees of freedom as
           vibrations may cause significant error
 Vibrational temperatures:    249.76   279.33   346.69   397.93   478.17
          (Kelvin)            548.17   634.04   701.23   746.66   799.46
                              881.24   919.74  1042.71  1167.17  1223.82
                             1253.49  1279.73  1316.29  1345.59  1394.48
                             1435.13  1447.78  1480.45  1523.44  1581.10
                             1603.16  1631.96  1665.45  1735.79  1743.32
                             1770.45  1841.60  1848.67  1868.07  1990.08
                             2027.91  2097.39  2117.73  2134.21  2151.24
                             2180.10  4376.79  4380.82  4423.02  4467.63
                             4470.68  4497.73  4511.95  4551.75  4556.23
                             5496.68

 Zero-point correction=                           0.159313 (Hartree/Particle)
 Thermal correction to Energy=                    0.167022
 Thermal correction to Enthalpy=                  0.167966
 Thermal correction to Gibbs Free Energy=         0.127829
 Sum of electronic and zero-point Energies=           -422.986717
 Sum of electronic and thermal Energies=              -422.979008
 Sum of electronic and thermal Enthalpies=            -422.978064
 Sum of electronic and thermal Free Energies=         -423.018201

                     E (Thermal)             CV                S
                      KCal/Mol        Cal/Mol-Kelvin    Cal/Mol-Kelvin
 Total                  104.808             31.745             84.476
 Electronic               0.000              0.000              0.000
 Translational            0.889              2.981             40.409
 Rotational               0.889              2.981             28.196
 Vibrational            103.030             25.783             15.871
 Vibration     1          0.627              1.875              2.396
 Vibration     2          0.635              1.848              2.188
 Vibration     3          0.658              1.778              1.796
 Vibration     4          0.678              1.717              1.555
 Vibration     5          0.714              1.611              1.249
 Vibration     6          0.751              1.511              1.035
 Vibration     7          0.801              1.381              0.824
 Vibration     8          0.843              1.278              0.690
 Vibration     9          0.874              1.208              0.612
 Vibration    10          0.911              1.127              0.533
 Vibration    11          0.972              1.005              0.429

 Normal termination of Gaussian 09 at Mon Jan 27 18:21:29 2020.
