 Gaussian 09, Revision D.01,
 Gaussian 09:  ES64L-G09RevD.01 24-Apr-2013

 -----------------------------
 # b3lyp 6-31G(2df,p) opt Freq
 -----------------------------

 -----
 titel
 -----
 Symbolic Z-matrix:
 Charge =  0 Multiplicity = 1

 SCF Done:  E(RB3LYP) =  -423.154663496     A.U. after   13 cycles
 Optimization completed.
    -- Stationary point found.
 Normal termination of Gaussian 09 at Tue Jan 28 02:02:25 2020.

 ----------------------------------------------------------------------
 #N Geom=AllCheck Guess=TCheck SCRF=Check GenChk RB3LYP/6-31G(2df,p) Fr
 eq
 ----------------------------------------------------------------------

 Structure from the checkpoint file:  "/scratch/puck/g09_21afadc5-9f0d-4e50-99ea-f627c6b65116/Gau-170418.chk"
 -----
 titel
 -----
 Charge =  0 Multiplicity = 1

                         Standard orientation:
 ---------------------------------------------------------------------
 Center     Atomic      Atomic             Coordinates (Angstroms)
 Number     Number       Type             X           Y           Z
 ---------------------------------------------------------------------
      1          8           0       -2.469219    0.773045   -0.399158
      2          6           0       -1.691329   -0.374248   -0.534143
      3          6           0       -1.391070   -1.234359    0.685716
      4          6           0       -0.317863   -0.370249    0.084112
      5          8           0       -0.000997    0.803441    0.819234
      6          6           0        1.085920    1.465388    0.150978
      7          6           0        1.865659    0.368456   -0.548354
      8          6           0        2.172748   -0.862967    0.264636
      9          6           0        0.934346   -0.821778   -0.598953
     10          1           0       -1.959297    1.372037    0.164904
     11          1           0       -1.850645   -0.865035   -1.490350
     12          1           0       -1.816753   -0.903063    1.627318
     13          1           0       -1.308245   -2.309983    0.567826
     14          1           0        0.708864    2.191673   -0.583895
     15          1           0        1.647532    2.005014    0.920339
     16          1           0        2.496802    0.637041   -1.386780
     17          1           0        2.992939   -1.486841   -0.072423
     18          1           0        2.046459   -0.818452    1.341905
     19          1           0        0.853600   -1.455741   -1.473399
 ---------------------------------------------------------------------

 SCF Done:  E(RB3LYP) =  -423.154663496     A.U. after    1 cycles

 The electronic state is 1-A.
 Alpha  occ. eigenvalues --  -19.15568 -19.13033 -10.23866 -10.23731 -10.22773
 Alpha  occ. eigenvalues --  -10.20016 -10.19979 -10.19102 -10.17713  -1.05565
 Alpha  occ. eigenvalues --   -1.01333  -0.86591  -0.83604  -0.70669  -0.63872
 Alpha  occ. eigenvalues --   -0.60243  -0.58637  -0.55744  -0.53595  -0.49211
 Alpha  occ. eigenvalues --   -0.47965  -0.46599  -0.43445  -0.41287  -0.40026
 Alpha  occ. eigenvalues --   -0.39150  -0.37898  -0.35152  -0.34286  -0.32797
 Alpha  occ. eigenvalues --   -0.29880  -0.28893  -0.24907  -0.22529
 Alpha virt. eigenvalues --    0.07253   0.10303   0.10846   0.10961   0.12986
 Alpha virt. eigenvalues --    0.13355   0.14492   0.15315   0.15978   0.17062
 Alpha virt. eigenvalues --    0.17405   0.19231   0.19809   0.21316   0.22588

 Mulliken charges:
               1
     1  O   -0.435891
     2  C    0.063569
     3  C   -0.398211
     4  C    0.404059
     5  O   -0.312163
     6  C   -0.111462
     7  C   -0.047974
     8  C   -0.297335
     9  C   -0.131869
    10  H    0.289347
    11  H    0.097338
    12  H    0.123178
    13  H    0.114125
    14  H    0.102823
    15  H    0.112989
    16  H    0.094352
    17  H    0.113075
    18  H    0.125478
    19  H    0.094573
 Sum of Mulliken charges =   0.00000

 Dipole moment (field-independent basis, Debye):
    X=              2.4738    Y=             -0.4256    Z=             -0.5581  Tot=              2.5714
 Quadrupole moment (field-independent basis, Debye-Ang):
   XX=            -57.6112   YY=            -49.9203   ZZ=            -52.6114
   XY=              2.0728   XZ=             -2.5527   YZ=              1.3239

  Exact polarizability:  84.255   2.281  76.588   0.198  -0.951  65.132
 Approx polarizability: 112.145   2.718 111.892   2.550  -1.019 101.217

                      1                      2                      3
                      A                      A                      A
 Frequencies --    108.4238               152.0001               240.2842
 Red. masses --      4.1991                 3.3406                 3.7517
 Frc consts  --      0.0291                 0.0455                 0.1276
 IR Inten    --      2.1695                 1.3034                 4.5550

                      4                      5                      6
                      A                      A                      A
 Frequencies --    282.7649               325.7373               370.8101
 Red. masses --      2.7969                 3.0204                 2.5654
 Frc consts  --      0.1318                 0.1888                 0.2078
 IR Inten    --     14.9589                 1.1935                 0.1032

                      7                      8                      9
                      A                      A                      A
 Frequencies --    429.2903               455.9872               535.6930
 Red. masses --      1.3611                 1.5568                 4.2559
 Frc consts  --      0.1478                 0.1907                 0.7196
 IR Inten    --     51.7185                10.7992                 5.2713

                     10                     11                     12
                      A                      A                      A
 Frequencies --    634.8194               691.8806               756.4602
 Red. masses --      3.0028                 3.1694                 2.9101
 Frc consts  --      0.7130                 0.8939                 0.9811
 IR Inten    --      3.4186                 2.1227                 4.8386

                     13                     14                     15
                      A                      A                      A
 Frequencies --    795.2274               824.3061               843.3352
 Red. masses --      2.2245                 1.4629                 2.0807
 Frc consts  --      0.8288                 0.5856                 0.8719
 IR Inten    --      9.9930                 0.5103                18.8416

                     16                     17                     18
                      A                      A                      A
 Frequencies --    864.9053               913.2432               932.4296
 Red. masses --      1.6655                 2.5234                 4.0711
 Frc consts  --      0.7341                 1.2400                 2.0854
 IR Inten    --      5.8367                 6.3760                25.2945

                     19                     20                     21
                      A                      A                      A
 Frequencies --    970.2045               993.9939              1017.6741
 Red. masses --      2.1589                 2.2426                 1.7378
 Frc consts  --      1.1973                 1.3055                 1.0604
 IR Inten    --     54.4085                15.2044                 6.7166

                     22                     23                     24
                      A                      A                      A
 Frequencies --   1029.6280              1060.2626              1075.1313
 Red. masses --      1.9275                 1.7761                 1.6562
 Frc consts  --      1.2039                 1.1764                 1.1279
 IR Inten    --      1.7769                19.5569                10.8164

                     25                     26                     27
                      A                      A                      A
 Frequencies --   1076.7136              1087.6594              1103.3537
 Red. masses --      1.3554                 1.3701                 1.4031
 Frc consts  --      0.9258                 0.9550                 1.0064
 IR Inten    --      3.0316                 7.0630                19.8090

                     28                     29                     30
                      A                      A                      A
 Frequencies --   1118.5025              1155.4318              1197.0005
 Red. masses --      1.7213                 2.8324                 1.6768
 Frc consts  --      1.2688                 2.2279                 1.4155
 IR Inten    --      4.2537               102.9263                 1.4239

                     31                     32                     33
                      A                      A                      A
 Frequencies --   1217.5642              1245.7876              1266.6128
 Red. masses --      1.5341                 1.3574                 2.0934
 Frc consts  --      1.3399                 1.2412                 1.9787
 IR Inten    --      0.9005                 8.5538                26.8230

                     34                     35                     36
                      A                      A                      A
 Frequencies --   1326.4236              1356.2510              1378.5102
 Red. masses --      1.5999                 2.1056                 1.4713
 Frc consts  --      1.6584                 2.2820                 1.6472
 IR Inten    --      2.5544                 2.8339                38.9841

                     37                     38                     39
                      A                      A                      A
 Frequencies --   1407.9867              1427.7116              1479.0561
 Red. masses --      1.5413                 1.1603                 1.2804
 Frc consts  --      1.8003                 1.3935                 1.6503
 IR Inten    --     20.2255                30.9404                 1.9164

                     40                     41                     42
                      A                      A                      A
 Frequencies --   1491.0395              1515.3864              2996.7100
 Red. masses --      2.2374                 1.0990                 1.0674
 Frc consts  --      2.9307                 1.4870                 5.6478
 IR Inten    --     38.8786                 0.4659                65.1704

                     43                     44                     45
                      A                      A                      A
 Frequencies --   3073.4513              3125.6558              3130.1395
 Red. masses --      1.0965                 1.0539                 1.0539
 Frc consts  --      6.1028                 6.0667                 6.0838
 IR Inten    --     34.9660                 6.1047                12.5157

                     46                     47                     48
                      A                      A                      A
 Frequencies --   3145.9998              3183.0623              3190.3680
 Red. masses --      1.0899                 1.0891                 1.0955
 Frc consts  --      6.3558                 6.5016                 6.5696
 IR Inten    --     19.4000                 9.2627                 7.5265

                     49                     50                     51
                      A                      A                      A
 Frequencies --   3220.0472              3220.3368              3731.9525
 Red. masses --      1.1169                 1.1154                 1.0648
 Frc consts  --      6.8233                 6.8152                 8.7378
 IR Inten    --      2.3895                12.2709                40.8516

 - Thermochemistry -
 -------------------
 Temperature   298.150 Kelvin.  Pressure   1.00000 Atm.
 Atom     1 has atomic number  8 and mass  15.99491

 Molecular mass:   126.06808 amu.
 Principal axes and moments of inertia in atomic units:
                           1         2         3
     Eigenvalues --   546.062021281.965021514.91306
           X            0.99988   0.01243  -0.00869
           Y           -0.01249   0.99990  -0.00677
           Z            0.00861   0.00688   0.99994
 This molecule is an asymmetric top.
 Rotational symmetry number  1.
 Warning -- assumption of classical behavior for rotation
           may cause significant error
 Rotational temperatures (Kelvin)      0.15862     0.06756     0.05717
 Rotational constants (GHZ):           3.30501     1.40779     1.19132
 Zero-point vibrational energy     419729.0 (Joules/Mol)
                                  100.31763 (Kcal/Mol)
 Warning -- explicit consideration of   9 degrees of freedom as
           vibrations may cause significant error
 Vibrational temperatures:    156.00   218.69   345.71   406.84   468.66
          (Kelvin)            533.51   617.65   656.06   770.74   913.36
                              995.46  1088.38  1144.15  1185.99  1213.37
                             1244.40  1313.95  1341.56  1395.91  1430.13
                             1464.20  1481.40  1525.48  1546.87  1549.15
                             1564.90  1587.48  1609.27  1662.41  1722.21
                             1751.80  1792.41  1822.37  1908.43  1951.34
                             1983.37  2025.78  2054.16  2128.03  2145.27
                             2180.30  4311.59  4422.01  4497.12  4503.57
                             4526.39  4579.71  4590.22  4632.92  4633.34
                             5369.44

 Zero-point correction=                           0.159866 (Hartree/Particle)
 Thermal correction to Energy=                    0.167636
 Thermal correction to Enthalpy=                  0.168580
 Thermal correction to Gibbs Free Energy=         0.127844
 Sum of electronic and zero-point Energies=           -422.994797
 Sum of electronic and thermal Energies=              -422.987028
 Sum of electronic and thermal Enthalpies=            -422.986084
 Sum of electronic and thermal Free Energies=         -423.026820

                     E (Thermal)             CV                S
                      KCal/Mol        Cal/Mol-Kelvin    Cal/Mol-Kelvin
 Total                  105.193             31.270             85.736
 Electronic               0.000              0.000              0.000
 Translational            0.889              2.981             40.409
 Rotational               0.889              2.981             28.452
 Vibrational            103.415             25.308             16.876
 Vibration     1          0.606              1.942              3.297
 Vibration     2          0.619              1.900              2.647
 Vibration     3          0.657              1.779              1.801
 Vibration     4          0.682              1.706              1.517
 Vibration     5          0.710              1.624              1.281
 Vibration     6          0.743              1.532              1.076
 Vibration     7          0.791              1.406              0.861
 Vibration     8          0.814              1.348              0.778
 Vibration     9          0.891              1.171              0.575

 Normal termination of Gaussian 09 at Tue Jan 28 02:38:26 2020.
