 Gaussian 09, Revision D.01,
 Gaussian 09:  ES64L-G09RevD.01 24-Apr-2013

 -----------------------------
 # b3lyp 6-31G(2df,p) opt Freq
 -----------------------------

 -----
 titel
 -----
 Symbolic Z-matrix:
 Charge =  0 Multiplicity = 1

 SCF Done:  E(RB3LYP) =  -423.225221783     A.U. after   14 cycles
 Optimization completed.
    -- Stationary point found.
 Normal termination of Gaussian 09 at Mon Jan 27 13:56:45 2020.

 ----------------------------------------------------------------------
 #N Geom=AllCheck Guess=TCheck SCRF=Check GenChk RB3LYP/6-31G(2df,p) Fr
 eq
 ----------------------------------------------------------------------

 Structure from the checkpoint file:  "/scratch/puck/g09_667402ca-2b8a-4bf5-9ce3-a31010de0aef/Gau-49746.chk"
 -----
 titel
 -----
 Charge =  0 Multiplicity = 1

                         Standard orientation:
 ---------------------------------------------------------------------
 Center     Atomic      Atomic             Coordinates (Angstroms)
 Number     Number       Type             X           Y           Z
 ---------------------------------------------------------------------
      1          8           0       -2.412139    1.114934   -0.686838
      2          6           0       -2.634769    0.226954    0.091159
      3          8           0       -1.862125   -0.835740    0.346941
      4          6           0       -0.624607   -0.972186   -0.394121
      5          6           0        0.580178   -0.693790    0.511168
      6          6           0        0.799580    0.813414    0.835810
      7          6           0        1.994451    1.273912   -0.043403
      8          6           0        2.614496   -0.024013   -0.498386
      9          6           0        1.865933   -1.080581   -0.189771
     10          1           0       -3.534697    0.158887    0.722430
     11          1           0       -0.614379   -2.008557   -0.743635
     12          1           0       -0.645910   -0.299385   -1.253623
     13          1           0        0.428614   -1.278647    1.427057
     14          1           0       -0.097242    1.409498    0.656341
     15          1           0        1.056329    0.921993    1.893148
     16          1           0        1.671183    1.874503   -0.904236
     17          1           0        2.698626    1.901800    0.514411
     18          1           0        3.558628   -0.065173   -1.031148
     19          1           0        2.101381   -2.110724   -0.436299
 ---------------------------------------------------------------------

 SCF Done:  E(RB3LYP) =  -423.225221783     A.U. after    1 cycles

 The electronic state is 1-A.
 Alpha  occ. eigenvalues --  -19.18787 -19.13287 -10.30843 -10.23876 -10.19489
 Alpha  occ. eigenvalues --  -10.18410 -10.18384 -10.18124 -10.18012  -1.10232
 Alpha  occ. eigenvalues --   -1.02052  -0.84739  -0.75895  -0.70933  -0.68195
 Alpha  occ. eigenvalues --   -0.59666  -0.55967  -0.53642  -0.52873  -0.49845
 Alpha  occ. eigenvalues --   -0.47616  -0.46974  -0.43558  -0.42065  -0.39159
 Alpha  occ. eigenvalues --   -0.38299  -0.36011  -0.35309  -0.34588  -0.34243
 Alpha  occ. eigenvalues --   -0.32975  -0.30035  -0.28042  -0.24530
 Alpha virt. eigenvalues --    0.00954   0.01825   0.09097   0.11480   0.12567
 Alpha virt. eigenvalues --    0.13238   0.14295   0.15112   0.15551   0.16433
 Alpha virt. eigenvalues --    0.17382   0.18561   0.19313   0.20667   0.22234

 Mulliken charges:
               1
     1  O   -0.309295
     2  C    0.190860
     3  O   -0.210188
     4  C   -0.091311
     5  C   -0.036223
     6  C   -0.238552
     7  C   -0.249055
     8  C   -0.054927
     9  C   -0.084998
    10  H    0.110421
    11  H    0.113546
    12  H    0.141911
    13  H    0.083061
    14  H    0.123846
    15  H    0.103457
    16  H    0.115111
    17  H    0.105488
    18  H    0.094902
    19  H    0.091943
 Sum of Mulliken charges =   0.00000

 Dipole moment (field-independent basis, Debye):
    X=              1.0422    Y=             -1.2693    Z=              0.7012  Tot=              1.7858
 Quadrupole moment (field-independent basis, Debye-Ang):
   XX=            -51.8699   YY=            -53.9778   ZZ=            -53.6093
   XY=              3.1111   XZ=             -3.4463   YZ=              2.6936

  Exact polarizability:  90.293   1.795  79.770  -7.557  -1.640  61.178
 Approx polarizability: 115.235   6.521 129.481 -10.458 -12.116  96.842

                      1                      2                      3
                      A                      A                      A
 Frequencies --     44.5043                53.6229                92.6919
 Red. masses --      5.8127                 3.2229                 2.7893
 Frc consts  --      0.0068                 0.0055                 0.0141
 IR Inten    --      2.4604                 0.2813                 1.1778

                      4                      5                      6
                      A                      A                      A
 Frequencies --    166.9015               270.8533               287.8546
 Red. masses --      3.0480                 2.8791                 2.8318
 Frc consts  --      0.0500                 0.1244                 0.1382
 IR Inten    --      1.0973                 7.1652                 3.0657

                      7                      8                      9
                      A                      A                      A
 Frequencies --    339.4273               450.7038               468.3514
 Red. masses --      2.8953                 3.0384                 2.2442
 Frc consts  --      0.1965                 0.3636                 0.2900
 IR Inten    --     13.9403                 8.3169                 2.4845

                     10                     11                     12
                      A                      A                      A
 Frequencies --    688.3883               720.0783               768.4864
 Red. masses --      3.0371                 1.3634                 4.5907
 Frc consts  --      0.8480                 0.4165                 1.5974
 IR Inten    --      0.3275                37.5100                 6.3131

                     13                     14                     15
                      A                      A                      A
 Frequencies --    792.2008               806.8853               871.2366
 Red. masses --      5.2591                 1.6541                 2.1894
 Frc consts  --      1.9446                 0.6345                 0.9791
 IR Inten    --      2.3020                 5.0324                 0.3497

                     16                     17                     18
                      A                      A                      A
 Frequencies --    914.4016               935.0170               968.6114
 Red. masses --      3.0291                 3.8655                 1.4219
 Frc consts  --      1.4922                 1.9911                 0.7860
 IR Inten    --      4.3318                19.9847                 2.1182

                     19                     20                     21
                      A                      A                      A
 Frequencies --    981.5919              1000.8456              1006.4867
 Red. masses --      1.4756                 2.0389                 2.4239
 Frc consts  --      0.8377                 1.2033                 1.4467
 IR Inten    --      2.3906                 7.5671                 6.1164

                     22                     23                     24
                      A                      A                      A
 Frequencies --   1044.3729              1090.7447              1106.3743
 Red. masses --      1.6529                 1.9292                 1.8063
 Frc consts  --      1.0622                 1.3523                 1.3027
 IR Inten    --      0.2949                 0.6876                 8.2371

                     25                     26                     27
                      A                      A                      A
 Frequencies --   1137.2808              1181.8082              1204.6386
 Red. masses --      1.1456                 1.9465                 2.1933
 Frc consts  --      0.8730                 1.6018                 1.8753
 IR Inten    --      1.5523               174.4355               166.7903

                     28                     29                     30
                      A                      A                      A
 Frequencies --   1239.3228              1269.4057              1290.0029
 Red. masses --      1.3952                 1.3556                 1.3360
 Frc consts  --      1.2626                 1.2870                 1.3099
 IR Inten    --      4.0269                22.9047                 8.2190

                     31                     32                     33
                      A                      A                      A
 Frequencies --   1315.3294              1318.4796              1364.1667
 Red. masses --      1.2674                 1.4592                 1.3349
 Frc consts  --      1.2919                 1.4945                 1.4636
 IR Inten    --      3.6066                 1.3306                 2.2080

                     34                     35                     36
                      A                      A                      A
 Frequencies --   1384.1347              1402.4986              1412.3506
 Red. masses --      1.6555                 1.2792                 1.1743
 Frc consts  --      1.8687                 1.4825                 1.3801
 IR Inten    --      1.6003                 1.4556                 2.6828

                     37                     38                     39
                      A                      A                      A
 Frequencies --   1483.3320              1488.3209              1504.1496
 Red. masses --      1.0795                 1.0927                 1.0963
 Frc consts  --      1.3994                 1.4260                 1.4613
 IR Inten    --      1.7577                 5.7872                 4.6658

                     40                     41                     42
                      A                      A                      A
 Frequencies --   1689.7605              1815.1071              3019.0244
 Red. masses --      6.2888                 9.1075                 1.0659
 Frc consts  --     10.5796                17.6788                 5.7241
 IR Inten    --      0.9567               234.3278                38.4347

                     43                     44                     45
                      A                      A                      A
 Frequencies --   3023.4129              3026.1671              3050.4644
 Red. masses --      1.0827                 1.0899                 1.0922
 Frc consts  --      5.8312                 5.8804                 5.9878
 IR Inten    --     12.9615                74.2191                13.8646

                     46                     47                     48
                      A                      A                      A
 Frequencies --   3062.7448              3069.6499              3120.1531
 Red. masses --      1.0599                 1.0686                 1.1011
 Frc consts  --      5.8577                 5.9328                 6.3160
 IR Inten    --     25.3973                41.3465                13.2856

                     49                     50                     51
                      A                      A                      A
 Frequencies --   3129.6788              3176.1103              3202.1906
 Red. masses --      1.1055                 1.0841                 1.1039
 Frc consts  --      6.3799                 6.4435                 6.6690
 IR Inten    --      9.5717                 6.3740                24.1763

 - Thermochemistry -
 -------------------
 Temperature   298.150 Kelvin.  Pressure   1.00000 Atm.
 Atom     1 has atomic number  8 and mass  15.99491

 Molecular mass:   126.06808 amu.
 Principal axes and moments of inertia in atomic units:
                           1         2         3
     Eigenvalues --   528.524691781.771072043.53733
           X            0.99988   0.01388  -0.00748
           Y           -0.01356   0.99905   0.04146
           Z            0.00805  -0.04135   0.99911
 This molecule is an asymmetric top.
 Rotational symmetry number  1.
 Warning -- assumption of classical behavior for rotation
           may cause significant error
 Rotational temperatures (Kelvin)      0.16388     0.04861     0.04238
 Rotational constants (GHZ):           3.41468     1.01289     0.88315
 Zero-point vibrational energy     420190.2 (Joules/Mol)
                                  100.42787 (Kcal/Mol)
 Warning -- explicit consideration of   9 degrees of freedom as
           vibrations may cause significant error
 Vibrational temperatures:     64.03    77.15   133.36   240.13   389.70
          (Kelvin)            414.16   488.36   648.46   673.85   990.44
                             1036.03  1105.68  1139.80  1160.93  1253.51
                             1315.62  1345.28  1393.61  1412.29  1439.99
                             1448.11  1502.62  1569.34  1591.82  1636.29
                             1700.36  1733.20  1783.11  1826.39  1856.02
                             1892.46  1897.00  1962.73  1991.46  2017.88
                             2032.05  2134.18  2141.36  2164.13  2431.19
                             2611.53  4343.70  4350.01  4353.97  4388.93
                             4406.60  4416.54  4489.20  4502.90  4569.71
                             4607.23

 Zero-point correction=                           0.160042 (Hartree/Particle)
 Thermal correction to Energy=                    0.168716
 Thermal correction to Enthalpy=                  0.169660
 Thermal correction to Gibbs Free Energy=         0.125120
 Sum of electronic and zero-point Energies=           -423.065180
 Sum of electronic and thermal Energies=              -423.056506
 Sum of electronic and thermal Enthalpies=            -423.055562
 Sum of electronic and thermal Free Energies=         -423.100101

                     E (Thermal)             CV                S
                      KCal/Mol        Cal/Mol-Kelvin    Cal/Mol-Kelvin
 Total                  105.871             31.209             93.742
 Electronic               0.000              0.000              0.000
 Translational            0.889              2.981             40.409
 Rotational               0.889              2.981             29.044
 Vibrational            104.093             25.247             24.290
 Vibration     1          0.595              1.980              5.048
 Vibration     2          0.596              1.976              4.679
 Vibration     3          0.602              1.954              3.602
 Vibration     4          0.624              1.883              2.470
 Vibration     5          0.675              1.727              1.591
 Vibration     6          0.685              1.696              1.487
 Vibration     7          0.719              1.597              1.215
 Vibration     8          0.809              1.359              0.794
 Vibration     9          0.826              1.320              0.742

 Optimization completed.
    -- Stationary point found.
 Normal termination of Gaussian 09 at Mon Jan 27 14:36:14 2020.
