 Gaussian 09, Revision D.01,
 Gaussian 09:  ES64L-G09RevD.01 24-Apr-2013

 -----------------------------
 # b3lyp 6-31G(2df,p) opt Freq
 -----------------------------

 -----
 titel
 -----
 Symbolic Z-matrix:
 Charge =  0 Multiplicity = 1

 SCF Done:  E(RB3LYP) =  -423.173836066     A.U. after   14 cycles
 Optimization completed.
    -- Stationary point found.
 Normal termination of Gaussian 09 at Mon Jan 27 14:10:16 2020.

 ----------------------------------------------------------------------
 #N Geom=AllCheck Guess=TCheck SCRF=Check GenChk RB3LYP/6-31G(2df,p) Fr
 eq
 ----------------------------------------------------------------------

 Structure from the checkpoint file:  "/scratch/puck/g09_63a8b47d-bb50-409e-89c7-e700ce8294c7/Gau-31504.chk"
 -----
 titel
 -----
 Charge =  0 Multiplicity = 1

                         Standard orientation:
 ---------------------------------------------------------------------
 Center     Atomic      Atomic             Coordinates (Angstroms)
 Number     Number       Type             X           Y           Z
 ---------------------------------------------------------------------
      1          6           0       -1.951734   -1.451043    0.197900
      2          6           0       -1.503283   -0.013585    0.039602
      3          8           0       -2.105506    0.786878   -0.638538
      4          6           0       -0.207729    0.353154    0.762098
      5          6           0        0.268837    1.811723    0.523854
      6          6           0        1.292621    1.305085   -0.538106
      7          6           0        1.048420   -0.109048   -0.017328
      8          6           0        2.011677   -1.143374    0.359681
      9          8           0        1.143816   -1.300401   -0.776621
     10          1           0       -2.116533   -1.688222    1.255068
     11          1           0       -2.868775   -1.623294   -0.366665
     12          1           0       -1.153696   -2.109187   -0.163928
     13          1           0       -0.257174   -0.000886    1.796584
     14          1           0       -0.510277    2.475987    0.151668
     15          1           0        0.745548    2.245513    1.404367
     16          1           0        0.917801    1.424397   -1.558113
     17          1           0        2.315516    1.683784   -0.484763
     18          1           0        3.066235   -1.014283    0.119950
     19          1           0        1.802015   -1.803098    1.200904
 ---------------------------------------------------------------------

 SCF Done:  E(RB3LYP) =  -423.173836066     A.U. after    1 cycles

 The electronic state is 1-A.
 Alpha  occ. eigenvalues --  -19.16168 -19.12837 -10.26905 -10.25321 -10.24131
 Alpha  occ. eigenvalues --  -10.19871 -10.18965 -10.18777 -10.18294  -1.08132
 Alpha  occ. eigenvalues --   -1.03865  -0.84792  -0.75010  -0.68292  -0.67498
 Alpha  occ. eigenvalues --   -0.63470  -0.57072  -0.51973  -0.50297  -0.49246
 Alpha  occ. eigenvalues --   -0.48031  -0.44145  -0.43135  -0.42393  -0.42060
 Alpha  occ. eigenvalues --   -0.38728  -0.36855  -0.36304  -0.34946  -0.33361
 Alpha  occ. eigenvalues --   -0.32829  -0.30419  -0.27265  -0.24290
 Alpha virt. eigenvalues --   -0.01172   0.06919   0.09331   0.10332   0.10617
 Alpha virt. eigenvalues --    0.12644   0.14170   0.14402   0.15267   0.17065
 Alpha virt. eigenvalues --    0.17589   0.18033   0.19756   0.20554   0.21124

 Mulliken charges:
               1
     1  C   -0.487322
     2  C    0.392260
     3  O   -0.300620
     4  C   -0.222568
     5  C   -0.233442
     6  C   -0.309538
     7  C    0.457769
     8  C   -0.266585
     9  O   -0.263331
    10  H    0.130694
    11  H    0.138856
    12  H    0.164765
    13  H    0.086931
    14  H    0.131931
    15  H    0.102980
    16  H    0.131625
    17  H    0.107112
    18  H    0.121925
    19  H    0.116558
 Sum of Mulliken charges =   0.00000

 Dipole moment (field-independent basis, Debye):
    X=              1.9562    Y=             -0.6079    Z=              2.5302  Tot=              3.2555
 Quadrupole moment (field-independent basis, Debye-Ang):
   XX=            -53.6199   YY=            -53.7733   ZZ=            -53.2776
   XY=              4.1841   XZ=             -1.1803   YZ=             -1.6259

  Exact polarizability:  83.978  -0.682  79.871   2.508  -4.757  63.771
 Approx polarizability: 113.759  -7.644 114.355   7.951  -7.672 103.301

                      1                      2                      3
                      A                      A                      A
 Frequencies --     57.3252                73.7753               148.8192
 Red. masses --      4.5288                 2.9413                 3.1966
 Frc consts  --      0.0088                 0.0094                 0.0417
 IR Inten    --      3.4647                 1.0679                 2.6338

                      4                      5                      6
                      A                      A                      A
 Frequencies --    166.2342               246.1932               306.3244
 Red. masses --      1.1445                 2.4795                 2.8700
 Frc consts  --      0.0186                 0.0885                 0.1587
 IR Inten    --      0.3204                 2.8562                 4.2891

                      7                      8                      9
                      A                      A                      A
 Frequencies --    344.2333               373.4010               414.0110
 Red. masses --      3.3827                 2.7871                 3.1967
 Frc consts  --      0.2362                 0.2290                 0.3228
 IR Inten    --      3.5925                 0.1814                 3.3271

                     10                     11                     12
                      A                      A                      A
 Frequencies --    522.9421               599.9310               610.4897
 Red. masses --      4.1544                 2.8652                 4.1547
 Frc consts  --      0.6694                 0.6076                 0.9123
 IR Inten    --      8.3584                 6.0971                 8.0272

                     13                     14                     15
                      A                      A                      A
 Frequencies --    727.0079               764.0122               855.5935
 Red. masses --      1.4906                 2.0850                 3.5414
 Frc consts  --      0.4642                 0.7171                 1.5274
 IR Inten    --      5.2645                 1.7816                29.1551

                     16                     17                     18
                      A                      A                      A
 Frequencies --    882.8939               891.3641               916.7249
 Red. masses --      2.0964                 1.7839                 2.7974
 Frc consts  --      0.9628                 0.8351                 1.3851
 IR Inten    --     12.2536                 0.7142                 9.7092

                     19                     20                     21
                      A                      A                      A
 Frequencies --    935.1364               962.1162              1008.1232
 Red. masses --      2.5077                 2.1510                 2.1576
 Frc consts  --      1.2921                 1.1731                 1.2920
 IR Inten    --      5.4860                 5.9953                 6.1057

                     22                     23                     24
                      A                      A                      A
 Frequencies --   1026.4265              1105.5277              1115.1189
 Red. masses --      1.6596                 2.3593                 1.4186
 Frc consts  --      1.0301                 1.6989                 1.0393
 IR Inten    --      4.6670                 6.1740                 2.4484

                     25                     26                     27
                      A                      A                      A
 Frequencies --   1130.2794              1157.7681              1168.1715
 Red. masses --      1.4634                 1.6662                 1.7554
 Frc consts  --      1.1015                 1.3159                 1.4114
 IR Inten    --      8.4540                22.8070                 0.3490

                     28                     29                     30
                      A                      A                      A
 Frequencies --   1186.5028              1200.8041              1232.0458
 Red. masses --      1.9485                 1.5063                 1.3188
 Frc consts  --      1.6162                 1.2797                 1.1795
 IR Inten    --     54.4208                17.8808                 1.4382

                     31                     32                     33
                      A                      A                      A
 Frequencies --   1247.9644              1278.6890              1330.8327
 Red. masses --      1.3566                 1.6028                 1.7125
 Frc consts  --      1.2448                 1.5441                 1.7870
 IR Inten    --      4.6191                 2.1517                27.8441

                     34                     35                     36
                      A                      A                      A
 Frequencies --   1378.5898              1420.6776              1466.9665
 Red. masses --      1.3608                 2.3604                 1.0835
 Frc consts  --      1.5238                 2.8069                 1.3737
 IR Inten    --     48.7664                25.0167                 2.4564

                     37                     38                     39
                      A                      A                      A
 Frequencies --   1468.7223              1477.6051              1486.5695
 Red. masses --      1.0564                 1.0498                 1.1482
 Frc consts  --      1.3427                 1.3505                 1.4950
 IR Inten    --      8.9218                 8.0216                 8.4786

                     40                     41                     42
                      A                      A                      A
 Frequencies --   1532.4500              1807.7369              3034.5238
 Red. masses --      1.5099                10.6111                 1.0368
 Frc consts  --      2.0891                20.4306                 5.6249
 IR Inten    --      9.3483               143.3461                 2.5956

                     43                     44                     45
                      A                      A                      A
 Frequencies --   3059.5976              3067.0274              3080.8008
 Red. masses --      1.0830                 1.0585                 1.0504
 Frc consts  --      5.9732                 5.8665                 5.8739
 IR Inten    --     22.4427                16.3424                25.5805

                     46                     47                     48
                      A                      A                      A
 Frequencies --   3086.8279              3100.5372              3120.5190
 Red. masses --      1.0619                 1.0981                 1.1071
 Frc consts  --      5.9616                 6.2199                 6.3516
 IR Inten    --     25.2813                 5.2245                15.3700

                     49                     50                     51
                      A                      A                      A
 Frequencies --   3152.5375              3153.7087              3169.0241
 Red. masses --      1.1029                 1.1064                 1.1195
 Frc consts  --      6.4581                 6.4837                 6.6243
 IR Inten    --      4.8357                11.8373                19.0706

 - Thermochemistry -
 -------------------
 Temperature   298.150 Kelvin.  Pressure   1.00000 Atm.
 Atom     1 has atomic number  6 and mass  12.00000

 Molecular mass:   126.06808 amu.
 Principal axes and moments of inertia in atomic units:
                           1         2         3
     Eigenvalues --   757.183471163.002551613.39684
           X            0.99624   0.08654  -0.00461
           Y           -0.08663   0.99596  -0.02366
           Z            0.00254   0.02397   0.99971
 This molecule is an asymmetric top.
 Rotational symmetry number  1.
 Warning -- assumption of classical behavior for rotation
           may cause significant error
 Rotational temperatures (Kelvin)      0.11439     0.07447     0.05368
 Rotational constants (GHZ):           2.38349     1.55179     1.11860
 Zero-point vibrational energy     413017.9 (Joules/Mol)
                                   98.71365 (Kcal/Mol)
 Warning -- explicit consideration of  12 degrees of freedom as
           vibrations may cause significant error
 Vibrational temperatures:     82.48   106.15   214.12   239.17   354.22
          (Kelvin)            440.73   495.27   537.24   595.67   752.40
                              863.17   878.36  1046.00  1099.24  1231.01
                             1270.29  1282.47  1318.96  1345.45  1384.27
                             1450.46  1476.80  1590.61  1604.41  1626.22
                             1665.77  1680.74  1707.11  1727.69  1772.64
                             1795.54  1839.75  1914.77  1983.48  2044.04
                             2110.63  2113.16  2125.94  2138.84  2204.85
                             2600.93  4366.00  4402.07  4412.76  4432.58
                             4441.25  4460.98  4489.73  4535.79  4537.48
                             4559.51

 Zero-point correction=                           0.157310 (Hartree/Particle)
 Thermal correction to Energy=                    0.166250
 Thermal correction to Enthalpy=                  0.167194
 Thermal correction to Gibbs Free Energy=         0.123101
 Sum of electronic and zero-point Energies=           -423.016526
 Sum of electronic and thermal Energies=              -423.007586
 Sum of electronic and thermal Enthalpies=            -423.006642
 Sum of electronic and thermal Free Energies=         -423.050735

                     E (Thermal)             CV                S
                      KCal/Mol        Cal/Mol-Kelvin    Cal/Mol-Kelvin
 Total                  104.324             33.036             92.801
 Electronic               0.000              0.000              0.000
 Translational            0.889              2.981             40.409
 Rotational               0.889              2.981             28.743
 Vibrational            102.546             27.075             23.650
 Vibration     1          0.596              1.975              4.547
 Vibration     2          0.599              1.966              4.050
 Vibration     3          0.618              1.904              2.687
 Vibration     4          0.624              1.884              2.478
 Vibration     5          0.661              1.769              1.758
 Vibration     6          0.697              1.662              1.382
 Vibration     7          0.723              1.587              1.192
 Vibration     8          0.745              1.527              1.066
 Vibration     9          0.778              1.440              0.913
 Vibration    10          0.878              1.199              0.603
 Vibration    11          0.958              1.032              0.450
 Vibration    12          0.970              1.010              0.432

 Normal termination of Gaussian 09 at Mon Jan 27 15:07:51 2020.
