 Gaussian 09, Revision D.01,
 Gaussian 09:  ES64L-G09RevD.01 24-Apr-2013

 -----------------------------
 # b3lyp 6-31G(2df,p) opt Freq
 -----------------------------

 -----
 titel
 -----
 Symbolic Z-matrix:
 Charge =  0 Multiplicity = 1

 SCF Done:  E(RB3LYP) =  -423.245337226     A.U. after   15 cycles
 Optimization completed.
    -- Stationary point found.
 Normal termination of Gaussian 09 at Mon Jan 27 15:36:23 2020.

 ----------------------------------------------------------------------
 #N Geom=AllCheck Guess=TCheck SCRF=Check GenChk RB3LYP/6-31G(2df,p) Fr
 eq
 ----------------------------------------------------------------------

 Structure from the checkpoint file:  "/scratch/puck/g09_5b54995e-5a9e-4a3b-a9e0-dc9f9672d8fd/Gau-45494.chk"
 -----
 titel
 -----
 Charge =  0 Multiplicity = 1

                         Standard orientation:
 ---------------------------------------------------------------------
 Center     Atomic      Atomic             Coordinates (Angstroms)
 Number     Number       Type             X           Y           Z
 ---------------------------------------------------------------------
      1          6           0       -1.517599    0.356675    1.485865
      2          6           0       -1.670044    0.315360   -0.039695
      3          6           0       -2.510542   -0.887623   -0.488526
      4          6           0       -0.309773    0.316752   -0.767833
      5          8           0        0.471918   -0.825933   -0.394615
      6          6           0        1.710590   -0.433173    0.057998
      7          8           0        2.542525   -1.214962    0.420615
      8          6           0        1.754007    1.048581   -0.008880
      9          6           0        0.589370    1.487080   -0.481359
     10          1           0       -2.501198    0.382504    1.963975
     11          1           0       -0.992360   -0.532452    1.846862
     12          1           0       -0.959444    1.236879    1.817961
     13          1           0       -2.178010    1.233716   -0.367564
     14          1           0       -3.494159   -0.871240   -0.009742
     15          1           0       -2.663961   -0.886897   -1.572893
     16          1           0       -2.015264   -1.824986   -0.218928
     17          1           0       -0.498794    0.245149   -1.849500
     18          1           0        2.625067    1.610857    0.293260
     19          1           0        0.286525    2.511726   -0.656857
 ---------------------------------------------------------------------

 SCF Done:  E(RB3LYP) =  -423.245337226     A.U. after    1 cycles

 The electronic state is 1-A.
 Alpha  occ. eigenvalues --  -19.17713 -19.11782 -10.30076 -10.25774 -10.22078
 Alpha  occ. eigenvalues --  -10.20785 -10.20696 -10.18073 -10.18050  -1.09573
 Alpha  occ. eigenvalues --   -1.01798  -0.82766  -0.80499  -0.71455  -0.69154
 Alpha  occ. eigenvalues --   -0.60940  -0.59360  -0.56316  -0.51398  -0.48888
 Alpha  occ. eigenvalues --   -0.45873  -0.45090  -0.43017  -0.41965  -0.41752
 Alpha  occ. eigenvalues --   -0.39078  -0.38112  -0.37043  -0.35571  -0.34293
 Alpha  occ. eigenvalues --   -0.33887  -0.30551  -0.27889  -0.26738
 Alpha virt. eigenvalues --   -0.04354   0.07769   0.08020   0.11242   0.11425
 Alpha virt. eigenvalues --    0.13071   0.14058   0.14119   0.15507   0.15740
 Alpha virt. eigenvalues --    0.16655   0.18371   0.19398   0.21249   0.22577

 Mulliken charges:
               1
     1  C   -0.399383
     2  C    0.015041
     3  C   -0.394862
     4  C    0.068390
     5  O   -0.237646
     6  C    0.424575
     7  O   -0.345538
     8  C   -0.231958
     9  C   -0.089054
    10  H    0.117023
    11  H    0.140255
    12  H    0.115373
    13  H    0.078272
    14  H    0.114809
    15  H    0.111594
    16  H    0.142244
    17  H    0.106730
    18  H    0.135375
    19  H    0.128760
 Sum of Mulliken charges =   0.00000

 Dipole moment (field-independent basis, Debye):
    X=             -2.7638    Y=              3.5979    Z=             -0.9615  Tot=              4.6377
 Quadrupole moment (field-independent basis, Debye-Ang):
   XX=            -57.5403   YY=            -53.9523   ZZ=            -52.5373
   XY=              6.1788   XZ=             -1.0490   YZ=             -0.1502

  Exact polarizability:  96.235  -3.289  73.546   8.223  -2.243  62.813
 Approx polarizability: 140.638 -17.480 115.531  20.116  -8.671  95.108

                      1                      2                      3
                      A                      A                      A
 Frequencies --     72.7197               102.5839               175.6796
 Red. masses --      2.8064                 5.3422                 3.5078
 Frc consts  --      0.0087                 0.0331                 0.0638
 IR Inten    --      1.4367                 0.4665                 2.9403

                      4                      5                      6
                      A                      A                      A
 Frequencies --    216.4203               237.6243               267.4107
 Red. masses --      1.0616                 1.3110                 2.5922
 Frc consts  --      0.0293                 0.0436                 0.1092
 IR Inten    --      0.0551                 0.1415                 0.5463

                      7                      8                      9
                      A                      A                      A
 Frequencies --    331.7874               348.6978               446.9988
 Red. masses --      3.0602                 2.4426                 3.0073
 Frc consts  --      0.1985                 0.1750                 0.3540
 IR Inten    --      1.6285                 0.3706                 0.6323

                     10                     11                     12
                      A                      A                      A
 Frequencies --    501.2314               580.5935               685.1569
 Red. masses --      4.2693                 3.1226                 2.4089
 Frc consts  --      0.6320                 0.6202                 0.6663
 IR Inten    --      2.2858                 1.1145                 1.5075

                     13                     14                     15
                      A                      A                      A
 Frequencies --    713.9775               803.6724               823.7199
 Red. masses --      5.0823                 5.7175                 4.1653
 Frc consts  --      1.5264                 2.1758                 1.6652
 IR Inten    --      5.5991                 3.1158                 3.6727

                     16                     17                     18
                      A                      A                      A
 Frequencies --    850.0282               894.5055               920.6264
 Red. masses --      1.9983                 4.0287                 1.8911
 Frc consts  --      0.8507                 1.8993                 0.9444
 IR Inten    --     39.4733                33.5478                 6.3248

                     19                     20                     21
                      A                      A                      A
 Frequencies --    936.6144               969.5066               976.4232
 Red. masses --      1.3099                 1.5674                 1.3087
 Frc consts  --      0.6770                 0.8680                 0.7352
 IR Inten    --      5.3245                 0.7885                 0.4085

                     22                     23                     24
                      A                      A                      A
 Frequencies --   1017.6830              1036.7310              1093.7149
 Red. masses --      2.2967                 2.0937                 1.2809
 Frc consts  --      1.4015                 1.3259                 0.9027
 IR Inten    --     41.5903                34.7199                27.9600

                     25                     26                     27
                      A                      A                      A
 Frequencies --   1121.3188              1141.2365              1166.8806
 Red. masses --      2.2329                 2.9024                 1.8343
 Frc consts  --      1.6542                 2.2272                 1.4715
 IR Inten    --      7.9884                66.3918                24.7154

                     28                     29                     30
                      A                      A                      A
 Frequencies --   1206.1429              1294.1944              1316.9891
 Red. masses --      1.8898                 1.3474                 1.4807
 Frc consts  --      1.6198                 1.3297                 1.5132
 IR Inten    --      0.9361                12.4914                16.7411

                     31                     32                     33
                      A                      A                      A
 Frequencies --   1350.3144              1358.8637              1378.2449
 Red. masses --      1.7159                 1.7149                 1.3897
 Frc consts  --      1.8434                 1.8657                 1.5553
 IR Inten    --      3.1616                 0.3035                 5.7838

                     34                     35                     36
                      A                      A                      A
 Frequencies --   1402.1536              1424.5207              1486.7069
 Red. masses --      1.2620                 1.2362                 1.0406
 Frc consts  --      1.4618                 1.4780                 1.3552
 IR Inten    --      5.2164                 4.4121                 0.6593

                     37                     38                     39
                      A                      A                      A
 Frequencies --   1496.3853              1504.1989              1514.1700
 Red. masses --      1.0517                 1.0426                 1.0574
 Frc consts  --      1.3875                 1.3899                 1.4284
 IR Inten    --      0.8717                 8.6742                 5.1677

                     40                     41                     42
                      A                      A                      A
 Frequencies --   1661.3120              1871.3511              2995.5362
 Red. masses --      6.6718                12.6632                 1.0822
 Frc consts  --     10.8492                26.1278                 5.7213
 IR Inten    --      8.7035               440.7008                14.5542

                     43                     44                     45
                      A                      A                      A
 Frequencies --   3007.5249              3036.4978              3044.3849
 Red. masses --      1.0829                 1.0354                 1.0354
 Frc consts  --      5.7710                 5.6250                 5.6540
 IR Inten    --     34.2270                28.0416                10.8544

                     46                     47                     48
                      A                      A                      A
 Frequencies --   3103.6854              3112.0496              3116.3605
 Red. masses --      1.1011                 1.1014                 1.1020
 Frc consts  --      6.2493                 6.2848                 6.3057
 IR Inten    --     24.7638                25.9744                 5.9711

                     49                     50                     51
                      A                      A                      A
 Frequencies --   3120.5350              3215.8540              3256.6521
 Red. masses --      1.1013                 1.0908                 1.1042
 Frc consts  --      6.3187                 6.6467                 6.9001
 IR Inten    --     32.6455                 2.3172                 0.8084

 - Thermochemistry -
 -------------------
 Temperature   298.150 Kelvin.  Pressure   1.00000 Atm.
 Atom     1 has atomic number  6 and mass  12.00000

 Molecular mass:   126.06808 amu.
 Principal axes and moments of inertia in atomic units:
                           1         2         3
     Eigenvalues --   602.828871520.707401682.07284
           X            0.99934   0.03609  -0.00422
           Y           -0.03591   0.99865   0.03763
           Z            0.00558  -0.03746   0.99928
 This molecule is an asymmetric top.
 Rotational symmetry number  1.
 Warning -- assumption of classical behavior for rotation
           may cause significant error
 Rotational temperatures (Kelvin)      0.14368     0.05696     0.05149
 Rotational constants (GHZ):           2.99379     1.18678     1.07293
 Zero-point vibrational energy     416947.5 (Joules/Mol)
                                   99.65283 (Kcal/Mol)
 Warning -- explicit consideration of  11 degrees of freedom as
           vibrations may cause significant error
 Vibrational temperatures:    104.63   147.60   252.76   311.38   341.89
          (Kelvin)            384.74   477.37   501.70   643.13   721.16
                              835.34   985.79  1027.25  1156.30  1185.15
                             1223.00  1286.99  1324.57  1347.58  1394.90
                             1404.85  1464.22  1491.62  1573.61  1613.33
                             1641.98  1678.88  1735.37  1862.05  1894.85
                             1942.80  1955.10  1982.98  2017.38  2049.56
                             2139.04  2152.96  2164.20  2178.55  2390.25
                             2692.45  4309.90  4327.15  4368.84  4380.19
                             4465.51  4477.54  4483.74  4489.75  4626.89
                             4685.59

 Zero-point correction=                           0.158807 (Hartree/Particle)
 Thermal correction to Energy=                    0.167595
 Thermal correction to Enthalpy=                  0.168539
 Thermal correction to Gibbs Free Energy=         0.125163
 Sum of electronic and zero-point Energies=           -423.086530
 Sum of electronic and thermal Energies=              -423.077742
 Sum of electronic and thermal Enthalpies=            -423.076798
 Sum of electronic and thermal Free Energies=         -423.120174

                     E (Thermal)             CV                S
                      KCal/Mol        Cal/Mol-Kelvin    Cal/Mol-Kelvin
 Total                  105.168             32.831             91.293
 Electronic               0.000              0.000              0.000
 Translational            0.889              2.981             40.409
 Rotational               0.889              2.981             28.824
 Vibrational            103.390             26.870             22.060
 Vibration     1          0.599              1.967              4.078
 Vibration     2          0.605              1.947              3.405
 Vibration     3          0.628              1.872              2.374
 Vibration     4          0.645              1.816              1.989
 Vibration     5          0.656              1.783              1.821
 Vibration     6          0.673              1.733              1.613
 Vibration     7          0.714              1.612              1.251
 Vibration     8          0.726              1.578              1.172
 Vibration     9          0.806              1.368              0.805
 Vibration    10          0.857              1.247              0.655
 Vibration    11          0.937              1.073              0.484

 Optimization completed.
    -- Stationary point found.
 Normal termination of Gaussian 09 at Mon Jan 27 16:17:54 2020.
