 Gaussian 09, Revision D.01,
 Gaussian 09:  ES64L-G09RevD.01 24-Apr-2013

 -----------------------------
 # b3lyp 6-31G(2df,p) opt Freq
 -----------------------------

 -----
 titel
 -----
 Symbolic Z-matrix:
 Charge =  0 Multiplicity = 1

 SCF Done:  E(RB3LYP) =  -423.165340069     A.U. after   14 cycles
 Optimization completed.
    -- Stationary point found.
 Normal termination of Gaussian 09 at Tue Jan 28 12:36:59 2020.

 ----------------------------------------------------------------------
 #N Geom=AllCheck Guess=TCheck SCRF=Check GenChk RB3LYP/6-31G(2df,p) Fr
 eq
 ----------------------------------------------------------------------

 Structure from the checkpoint file:  "/scratch/puck/g09_c51ef1a8-927e-4ab2-a362-ddccdff336f7/Gau-142084.chk"
 -----
 titel
 -----
 Charge =  0 Multiplicity = 1

                         Standard orientation:
 ---------------------------------------------------------------------
 Center     Atomic      Atomic             Coordinates (Angstroms)
 Number     Number       Type             X           Y           Z
 ---------------------------------------------------------------------
      1          6           0       -2.661664   -0.315582    0.103543
      2          8           0       -1.402466   -0.896345    0.377059
      3          6           0       -0.365682   -0.400453   -0.416789
      4          6           0        1.027502   -1.063306   -0.190502
      5          8           0        1.448732   -2.158531   -0.432281
      6          6           0        1.649524    0.232716    0.205057
      7          6           0        0.819562    0.859166    1.324735
      8          6           0        0.289393    0.957288   -0.059637
      9          6           0        0.071614    2.245808   -0.799972
     10          1           0       -2.940523   -0.442106   -0.953618
     11          1           0       -3.396129   -0.828824    0.728315
     12          1           0       -2.682055    0.757547    0.343085
     13          1           0       -0.622869   -0.451050   -1.488546
     14          1           0        2.662305    0.559595    0.003277
     15          1           0        0.330281    0.224207    2.055952
     16          1           0        1.257471    1.764193    1.734545
     17          1           0        0.107486    2.093715   -1.884230
     18          1           0       -0.903601    2.683275   -0.557380
     19          1           0        0.836017    2.984640   -0.538240
 ---------------------------------------------------------------------

 SCF Done:  E(RB3LYP) =  -423.165340069     A.U. after    1 cycles

 The electronic state is 1-A.
 Alpha  occ. eigenvalues --  -19.15151 -19.12728 -10.26427 -10.24125 -10.23205
 Alpha  occ. eigenvalues --  -10.21804 -10.20658 -10.20611 -10.19621  -1.04949
 Alpha  occ. eigenvalues --   -1.03337  -0.90819  -0.74185  -0.73380  -0.68089
 Alpha  occ. eigenvalues --   -0.62570  -0.56259  -0.54443  -0.50169  -0.48998
 Alpha  occ. eigenvalues --   -0.46461  -0.45456  -0.43781  -0.42267  -0.41904
 Alpha  occ. eigenvalues --   -0.40229  -0.39335  -0.38133  -0.37412  -0.32779
 Alpha  occ. eigenvalues --   -0.31224  -0.28274  -0.26207  -0.23663
 Alpha virt. eigenvalues --   -0.01258   0.06951   0.09818   0.10636   0.11847
 Alpha virt. eigenvalues --    0.13141   0.13880   0.14340   0.14569   0.15506
 Alpha virt. eigenvalues --    0.16658   0.17298   0.18877   0.20128   0.21860

 Mulliken charges:
               1
     1  C   -0.239220
     2  O   -0.236578
     3  C   -0.074415
     4  C    0.411877
     5  O   -0.320493
     6  C   -0.234019
     7  C   -0.325594
     8  C    0.328174
     9  C   -0.503049
    10  H    0.109877
    11  H    0.134257
    12  H    0.110035
    13  H    0.085925
    14  H    0.110817
    15  H    0.138500
    16  H    0.122393
    17  H    0.126224
    18  H    0.129346
    19  H    0.125942
 Sum of Mulliken charges =   0.00000

 Dipole moment (field-independent basis, Debye):
    X=             -1.3852    Y=              4.0449    Z=             -0.1153  Tot=              4.2770
 Quadrupole moment (field-independent basis, Debye-Ang):
   XX=            -50.4080   YY=            -59.6743   ZZ=            -51.9641
   XY=              4.8138   XZ=              1.5416   YZ=             -0.5563

  Exact polarizability:  83.164  -1.523  81.940   1.647   3.062  66.812
 Approx polarizability: 114.337  -7.696 124.676   0.875   6.771 101.824

                      1                      2                      3
                      A                      A                      A
 Frequencies --     70.9428                98.9829               159.7225
 Red. masses --      2.9925                 3.3808                 3.2387
 Frc consts  --      0.0089                 0.0195                 0.0487
 IR Inten    --      2.4074                 1.0885                 0.1037

                      4                      5                      6
                      A                      A                      A
 Frequencies --    183.1159               200.1334               265.1089
 Red. masses --      1.2327                 1.0580                 2.9584
 Frc consts  --      0.0244                 0.0250                 0.1225
 IR Inten    --      0.1195                 0.1989                 1.8586

                      7                      8                      9
                      A                      A                      A
 Frequencies --    272.8918               334.0747               347.0166
 Red. masses --      3.7813                 3.1940                 2.4667
 Frc consts  --      0.1659                 0.2100                 0.1750
 IR Inten    --      4.0406                 1.4424                 1.3402

                     10                     11                     12
                      A                      A                      A
 Frequencies --    517.5415               534.6490               584.2750
 Red. masses --      3.4634                 3.0639                 6.1066
 Frc consts  --      0.5466                 0.5160                 1.2282
 IR Inten    --      6.0151                 3.3322                 0.7408

                     13                     14                     15
                      A                      A                      A
 Frequencies --    659.5803               724.3623               770.6172
 Red. masses --      3.8366                 4.0136                 3.7726
 Frc consts  --      0.9834                 1.2408                 1.3200
 IR Inten    --      2.8363                12.1396                38.6167

                     16                     17                     18
                      A                      A                      A
 Frequencies --    854.4268               929.8987               950.3044
 Red. masses --      1.9893                 1.7126                 1.9875
 Frc consts  --      0.8557                 0.8725                 1.0575
 IR Inten    --      0.7525                15.2601                11.3807

                     19                     20                     21
                      A                      A                      A
 Frequencies --    986.9094               998.8025              1029.1534
 Red. masses --      1.4802                 1.5506                 3.7069
 Frc consts  --      0.8494                 0.9114                 2.3133
 IR Inten    --      1.6466                 7.2147                22.0847

                     22                     23                     24
                      A                      A                      A
 Frequencies --   1056.9770              1080.6108              1109.3023
 Red. masses --      2.1495                 1.5395                 1.4654
 Frc consts  --      1.4149                 1.0592                 1.0624
 IR Inten    --     34.1679                14.2652                 2.5179

                     25                     26                     27
                      A                      A                      A
 Frequencies --   1134.8484              1150.9824              1177.0441
 Red. masses --      2.3831                 1.9451                 1.4214
 Frc consts  --      1.8083                 1.5182                 1.1602
 IR Inten    --     46.8210                56.3254                15.4402

                     28                     29                     30
                      A                      A                      A
 Frequencies --   1196.5058              1222.6472              1248.7055
 Red. masses --      1.9618                 1.7948                 2.2548
 Frc consts  --      1.6548                 1.5808                 2.0715
 IR Inten    --     30.2731                33.5710                27.6622

                     31                     32                     33
                      A                      A                      A
 Frequencies --   1275.3795              1351.9339              1399.7068
 Red. masses --      2.6454                 1.5302                 1.5656
 Frc consts  --      2.5353                 1.6479                 1.8072
 IR Inten    --      4.7207                18.0863                15.0853

                     34                     35                     36
                      A                      A                      A
 Frequencies --   1423.8660              1478.5039              1483.7283
 Red. masses --      1.5956                 1.1329                 1.0483
 Frc consts  --      1.9059                 1.4591                 1.3598
 IR Inten    --      1.8337                 1.4527                 2.9194

                     37                     38                     39
                      A                      A                      A
 Frequencies --   1490.2455              1495.1389              1499.2978
 Red. masses --      1.0835                 1.0645                 1.2243
 Frc consts  --      1.4177                 1.4021                 1.6215
 IR Inten    --      7.1149                 8.5624                 5.1040

                     40                     41                     42
                      A                      A                      A
 Frequencies --   1507.1591              1885.4613              2967.8745
 Red. masses --      1.0806                12.3908                 1.0790
 Frc consts  --      1.4462                25.9528                 5.5996
 IR Inten    --      4.3708               349.8714                33.3928

                     43                     44                     45
                      A                      A                      A
 Frequencies --   2982.2567              3026.4191              3032.6719
 Red. masses --      1.0389                 1.0366                 1.1021
 Frc consts  --      5.4441                 5.5939                 5.9718
 IR Inten    --     52.1724                28.4953                48.5376

                     46                     47                     48
                      A                      A                      A
 Frequencies --   3087.6834              3099.5712              3119.9915
 Red. masses --      1.1005                 1.1011                 1.0971
 Frc consts  --      6.1816                 6.2325                 6.2919
 IR Inten    --     20.9696                18.0571                26.6740

                     49                     50                     51
                      A                      A                      A
 Frequencies --   3127.5022              3194.8605              3212.8752
 Red. masses --      1.0536                 1.0950                 1.1159
 Frc consts  --      6.0719                 6.5854                 6.7867
 IR Inten    --     13.4455                 6.2219                 3.8925

 - Thermochemistry -
 -------------------
 Temperature   298.150 Kelvin.  Pressure   1.00000 Atm.
 Atom     1 has atomic number  6 and mass  12.00000

 Molecular mass:   126.06808 amu.
 Principal axes and moments of inertia in atomic units:
                           1         2         3
     Eigenvalues --   934.276711063.120231623.30157
           X            0.98533   0.16998   0.01537
           Y           -0.16971   0.98535  -0.01709
           Z           -0.01805   0.01423   0.99974
 This molecule is an asymmetric top.
 Rotational symmetry number  1.
 Warning -- assumption of classical behavior for rotation
           may cause significant error
 Rotational temperatures (Kelvin)      0.09271     0.08147     0.05336
 Rotational constants (GHZ):           1.93170     1.69759     1.11177
 Zero-point vibrational energy     412665.4 (Joules/Mol)
                                   98.62939 (Kcal/Mol)
 Warning -- explicit consideration of  12 degrees of freedom as
           vibrations may cause significant error
 Vibrational temperatures:    102.07   142.41   229.80   263.46   287.95
          (Kelvin)            381.43   392.63   480.66   499.28   744.63
                              769.24   840.64   948.99  1042.19  1108.74
                             1229.33  1337.92  1367.27  1419.94  1437.05
                             1480.72  1520.75  1554.76  1596.04  1632.79
                             1656.00  1693.50  1721.50  1759.11  1796.61
                             1834.98  1945.13  2013.86  2048.62  2127.23
                             2134.75  2144.13  2151.17  2157.15  2168.46
                             2712.75  4270.10  4290.80  4354.34  4363.33
                             4442.48  4459.59  4488.97  4499.77  4596.69
                             4622.61

 Zero-point correction=                           0.157176 (Hartree/Particle)
 Thermal correction to Energy=                    0.166396
 Thermal correction to Enthalpy=                  0.167341
 Thermal correction to Gibbs Free Energy=         0.122995
 Sum of electronic and zero-point Energies=           -423.008164
 Sum of electronic and thermal Energies=              -422.998944
 Sum of electronic and thermal Enthalpies=            -422.997999
 Sum of electronic and thermal Free Energies=         -423.042345

                     E (Thermal)             CV                S
                      KCal/Mol        Cal/Mol-Kelvin    Cal/Mol-Kelvin
 Total                  104.415             33.684             93.333
 Electronic               0.000              0.000              0.000
 Translational            0.889              2.981             40.409
 Rotational               0.889              2.981             28.868
 Vibrational            102.638             27.723             24.056
 Vibration     1          0.598              1.968              4.127
 Vibration     2          0.604              1.950              3.474
 Vibration     3          0.622              1.892              2.553
 Vibration     4          0.631              1.863              2.296
 Vibration     5          0.638              1.840              2.132
 Vibration     6          0.671              1.737              1.628
 Vibration     7          0.676              1.723              1.578
 Vibration     8          0.716              1.607              1.240
 Vibration     9          0.725              1.581              1.180
 Vibration    10          0.873              1.211              0.616
 Vibration    11          0.890              1.173              0.577
 Vibration    12          0.941              1.065              0.478

 Optimization completed.
    -- Stationary point found.
 Normal termination of Gaussian 09 at Tue Jan 28 13:19:28 2020.
