 Gaussian 09, Revision D.01,
 Gaussian 09:  ES64L-G09RevD.01 24-Apr-2013

 -----------------------------
 # b3lyp 6-31G(2df,p) opt Freq
 -----------------------------

 -----
 titel
 -----
 Symbolic Z-matrix:
 Charge =  0 Multiplicity = 1

 SCF Done:  E(RB3LYP) =  -423.182882019     A.U. after   14 cycles
 Optimization completed.
    -- Stationary point found.
 Normal termination of Gaussian 09 at Tue Jan 28 08:18:22 2020.

 ----------------------------------------------------------------------
 #N Geom=AllCheck Guess=TCheck SCRF=Check GenChk RB3LYP/6-31G(2df,p) Fr
 eq
 ----------------------------------------------------------------------

 Structure from the checkpoint file:  "/scratch/puck/g09_39281fa2-27a8-4f75-96bf-4f375bbd6f51/Gau-8483.chk"
 -----
 titel
 -----
 Charge =  0 Multiplicity = 1

                         Standard orientation:
 ---------------------------------------------------------------------
 Center     Atomic      Atomic             Coordinates (Angstroms)
 Number     Number       Type             X           Y           Z
 ---------------------------------------------------------------------
      1          6           0       -2.804731   -0.442828   -0.265066
      2          6           0       -1.557727   -1.291716   -0.007190
      3          6           0       -0.248114   -0.516476   -0.140913
      4          6           0        0.983113   -1.406786    0.100288
      5          6           0        2.246984   -0.705322   -0.081701
      6          6           0        3.278990   -0.110886   -0.240051
      7          8           0       -0.220668    0.527607    0.864355
      8          6           0       -0.182537    1.804424    0.449624
      9          8           0       -0.222007    2.199100   -0.682180
     10          1           0       -3.709344   -1.053359   -0.192590
     11          1           0       -2.889106    0.365833    0.466287
     12          1           0       -2.779703    0.008590   -1.261948
     13          1           0       -1.604562   -1.735888    0.995050
     14          1           0       -1.522317   -2.125887   -0.718657
     15          1           0       -0.179356   -0.038423   -1.120668
     16          1           0        0.925399   -1.818389    1.115736
     17          1           0        0.928881   -2.259402   -0.587841
     18          1           0        4.192900    0.410736   -0.381866
     19          1           0       -0.117257    2.450070    1.339144
 ---------------------------------------------------------------------

 SCF Done:  E(RB3LYP) =  -423.182882019     A.U. after    1 cycles

 The electronic state is 1-A.
 Alpha  occ. eigenvalues --  -19.18742 -19.13191 -10.30779 -10.25170 -10.21720
 Alpha  occ. eigenvalues --  -10.19560 -10.18395 -10.18104 -10.17359  -1.10249
 Alpha  occ. eigenvalues --   -1.02142  -0.82424  -0.77316  -0.72335  -0.67521
 Alpha  occ. eigenvalues --   -0.63131  -0.56994  -0.53642  -0.52431  -0.48203
 Alpha  occ. eigenvalues --   -0.47270  -0.46214  -0.44164  -0.43420  -0.41293
 Alpha  occ. eigenvalues --   -0.40357  -0.36677  -0.36448  -0.35737  -0.33856
 Alpha  occ. eigenvalues --   -0.30452  -0.27993  -0.26744  -0.26605
 Alpha virt. eigenvalues --    0.01126   0.04768   0.05513   0.09264   0.10896
 Alpha virt. eigenvalues --    0.11594   0.12895   0.13652   0.14213   0.15624
 Alpha virt. eigenvalues --    0.17123   0.17402   0.19076   0.20523   0.21416

 Mulliken charges:
               1
     1  C   -0.396741
     2  C   -0.178280
     3  C    0.109582
     4  C   -0.365745
     5  C    0.294980
     6  C   -0.429148
     7  O   -0.220552
     8  C    0.195005
     9  O   -0.303419
    10  H    0.116747
    11  H    0.127309
    12  H    0.129903
    13  H    0.106965
    14  H    0.104352
    15  H    0.129456
    16  H    0.138424
    17  H    0.134742
    18  H    0.198491
    19  H    0.107929
 Sum of Mulliken charges =   0.00000

 Dipole moment (field-independent basis, Debye):
    X=             -0.5805    Y=             -1.8559    Z=              0.9816  Tot=              2.1783
 Quadrupole moment (field-independent basis, Debye-Ang):
   XX=            -50.1554   YY=            -53.6845   ZZ=            -54.3663
   XY=              3.0360   XZ=             -0.6095   YZ=              4.4091

  Exact polarizability:  92.252   8.789  79.135  -1.672  -0.436  61.661
 Approx polarizability: 121.736  19.409 115.376  -4.514  -7.605 102.700

                      1                      2                      3
                      A                      A                      A
 Frequencies --     31.9170                65.7723                94.7601
 Red. masses --      8.5802                 3.2220                 2.0221
 Frc consts  --      0.0051                 0.0082                 0.0107
 IR Inten    --      1.0001                 0.1388                 0.3771

                      4                      5                      6
                      A                      A                      A
 Frequencies --    113.1339               198.7541               221.5734
 Red. masses --      3.2847                 3.2757                 1.6681
 Frc consts  --      0.0248                 0.0762                 0.0483
 IR Inten    --      0.4780                 3.0482                 2.3844

                      7                      8                      9
                      A                      A                      A
 Frequencies --    249.8827               282.0816               342.4289
 Red. masses --      1.9429                 2.9354                 3.0366
 Frc consts  --      0.0715                 0.1376                 0.2098
 IR Inten    --      4.2456                 7.7629                 3.8567

                     10                     11                     12
                      A                      A                      A
 Frequencies --    353.0391               417.7150               443.8530
 Red. masses --      3.1257                 5.0564                 2.9142
 Frc consts  --      0.2295                 0.5198                 0.3383
 IR Inten    --      5.7836                 1.8380                 4.6303

                     13                     14                     15
                      A                      A                      A
 Frequencies --    573.0968               623.6655               645.9648
 Red. masses --      3.4715                 1.2053                 1.2189
 Frc consts  --      0.6718                 0.2762                 0.2997
 IR Inten    --     12.5776                40.9930                43.9007

                     16                     17                     18
                      A                      A                      A
 Frequencies --    751.1572               787.2038               831.5960
 Red. masses --      2.1687                 2.5290                 2.1270
 Frc consts  --      0.7210                 0.9234                 0.8667
 IR Inten    --      0.8856                 1.5594                13.4318

                     19                     20                     21
                      A                      A                      A
 Frequencies --    918.5269               958.4858               966.4015
 Red. masses --      2.0158                 2.7365                 1.9825
 Frc consts  --      1.0020                 1.4812                 1.0909
 IR Inten    --      5.3967                 1.2627                20.1838

                     22                     23                     24
                      A                      A                      A
 Frequencies --   1039.1220              1044.4671              1075.9474
 Red. masses --      2.3187                 2.0140                 2.0925
 Frc consts  --      1.4751                 1.2945                 1.4272
 IR Inten    --      1.8443                 0.7317                13.9932

                     25                     26                     27
                      A                      A                      A
 Frequencies --   1124.3915              1148.7497              1199.2230
 Red. masses --      2.1847                 1.9322                 7.6781
 Frc consts  --      1.6273                 1.5023                 6.5059
 IR Inten    --     22.1250                 7.2427               344.5487

                     28                     29                     30
                      A                      A                      A
 Frequencies --   1240.3252              1292.1450              1307.2283
 Red. masses --      1.2589                 1.2725                 1.2044
 Frc consts  --      1.1411                 1.2517                 1.2126
 IR Inten    --      3.6451                 2.8521                 1.3050

                     31                     32                     33
                      A                      A                      A
 Frequencies --   1362.0971              1380.6074              1402.6614
 Red. masses --      1.3911                 1.2289                 1.5200
 Frc consts  --      1.5207                 1.3801                 1.7620
 IR Inten    --      1.5458                 6.1528                 0.5552

                     34                     35                     36
                      A                      A                      A
 Frequencies --   1412.8411              1416.0115              1458.2147
 Red. masses --      1.1423                 1.2346                 1.0935
 Frc consts  --      1.3435                 1.4585                 1.3699
 IR Inten    --      2.4013                 0.8395                 1.7671

                     37                     38                     39
                      A                      A                      A
 Frequencies --   1478.1672              1497.3817              1509.3693
 Red. masses --      1.0768                 1.0488                 1.0514
 Frc consts  --      1.3862                 1.3855                 1.4113
 IR Inten    --      1.0477                 5.8403                 5.1133

                     40                     41                     42
                      A                      A                      A
 Frequencies --   1822.7528              2243.0879              3023.3108
 Red. masses --      9.4193                 5.9175                 1.0588
 Frc consts  --     18.4384                17.5420                 5.7020
 IR Inten    --    249.1102                 1.0160                 4.3487

                     43                     44                     45
                      A                      A                      A
 Frequencies --   3028.6512              3029.5442              3043.2905
 Red. masses --      1.0758                 1.0735                 1.0356
 Frc consts  --      5.8142                 5.8052                 5.6508
 IR Inten    --     68.7641                27.7555                21.5110

                     46                     47                     48
                      A                      A                      A
 Frequencies --   3059.2859              3063.6083              3103.9972
 Red. masses --      1.1019                 1.0990                 1.0878
 Frc consts  --      6.0763                 6.0773                 6.1749
 IR Inten    --      0.5739                13.9872                 5.8722

                     49                     50                     51
                      A                      A                      A
 Frequencies --   3113.1345              3118.5729              3506.7442
 Red. masses --      1.1012                 1.1013                 1.1628
 Frc consts  --      6.2878                 6.3108                 8.4250
 IR Inten    --     28.0773                31.8936                65.5033

 - Thermochemistry -
 -------------------
 Temperature   298.150 Kelvin.  Pressure   1.00000 Atm.
 Atom     1 has atomic number  6 and mass  12.00000

 Molecular mass:   126.06808 amu.
 Principal axes and moments of inertia in atomic units:
                           1         2         3
     Eigenvalues --   826.134801477.599032075.55055
           X            0.99931   0.03696   0.00405
           Y           -0.03702   0.99919   0.01579
           Z           -0.00346  -0.01592   0.99987
 This molecule is an asymmetric top.
 Rotational symmetry number  1.
 Warning -- assumption of classical behavior for rotation
           may cause significant error
 Rotational temperatures (Kelvin)      0.10484     0.05862     0.04173
 Rotational constants (GHZ):           2.18456     1.22140     0.86952
 Zero-point vibrational energy     409218.2 (Joules/Mol)
                                   97.80550 (Kcal/Mol)
 Warning -- explicit consideration of  13 degrees of freedom as
           vibrations may cause significant error
 Vibrational temperatures:     45.92    94.63   136.34   162.77   285.96
          (Kelvin)            318.79   359.52   405.85   492.68   507.94
                              601.00   638.60   824.56   897.31   929.40
                             1080.75  1132.61  1196.48  1321.55  1379.05
                             1390.43  1495.06  1502.75  1548.05  1617.75
                             1652.79  1725.41  1784.55  1859.11  1880.81
                             1959.75  1986.38  2018.11  2032.76  2037.32
                             2098.04  2126.75  2154.40  2171.64  2622.53
                             3227.30  4349.86  4357.55  4358.83  4378.61
                             4401.62  4407.84  4465.95  4479.10  4486.93
                             5045.42

 Zero-point correction=                           0.155863 (Hartree/Particle)
 Thermal correction to Energy=                    0.166223
 Thermal correction to Enthalpy=                  0.167167
 Thermal correction to Gibbs Free Energy=         0.119278
 Sum of electronic and zero-point Energies=           -423.027019
 Sum of electronic and thermal Energies=              -423.016659
 Sum of electronic and thermal Enthalpies=            -423.015715
 Sum of electronic and thermal Free Energies=         -423.063604

                     E (Thermal)             CV                S
                      KCal/Mol        Cal/Mol-Kelvin    Cal/Mol-Kelvin
 Total                  104.306             36.258            100.790
 Electronic               0.000              0.000              0.000
 Translational            0.889              2.981             40.409
 Rotational               0.889              2.981             29.317
 Vibrational            102.529             30.296             31.064
 Vibration     1          0.594              1.983              5.707
 Vibration     2          0.597              1.971              4.276
 Vibration     3          0.603              1.953              3.559
 Vibration     4          0.607              1.939              3.214
 Vibration     5          0.637              1.842              2.145
 Vibration     6          0.648              1.808              1.946
 Vibration     7          0.663              1.763              1.731
 Vibration     8          0.681              1.707              1.521
 Vibration     9          0.722              1.591              1.201
 Vibration    10          0.729              1.569              1.153
 Vibration    11          0.781              1.432              0.900
 Vibration    12          0.803              1.374              0.815
 Vibration    13          0.929              1.089              0.498

 Optimization completed.
    -- Stationary point found.
 Normal termination of Gaussian 09 at Tue Jan 28 09:00:28 2020.
