 Gaussian 09, Revision D.01,
 Gaussian 09:  ES64L-G09RevD.01 24-Apr-2013

 -----------------------------
 # b3lyp 6-31G(2df,p) opt Freq
 -----------------------------

 -----
 titel
 -----
 Symbolic Z-matrix:
 Charge =  0 Multiplicity = 1

 SCF Done:  E(RB3LYP) =  -423.194413827     A.U. after   14 cycles
 Optimization completed.
    -- Stationary point found.
 Normal termination of Gaussian 09 at Tue Jan 28 03:06:22 2020.

 ----------------------------------------------------------------------
 #N Geom=AllCheck Guess=TCheck SCRF=Check GenChk RB3LYP/6-31G(2df,p) Fr
 eq
 ----------------------------------------------------------------------

 Structure from the checkpoint file:  "/scratch/puck/g09_8ff96a72-d393-4da9-b650-0ae6409fc94d/Gau-7305.chk"
 -----
 titel
 -----
 Charge =  0 Multiplicity = 1

                         Standard orientation:
 ---------------------------------------------------------------------
 Center     Atomic      Atomic             Coordinates (Angstroms)
 Number     Number       Type             X           Y           Z
 ---------------------------------------------------------------------
      1          8           0       -2.660305   -0.084374    0.153889
      2          6           0       -1.259591   -0.006129    0.398436
      3          6           0       -0.635063   -1.286884   -0.183899
      4          6           0        0.890128   -1.119592   -0.367609
      5          8           0        1.088910   -0.006471   -1.244211
      6          6           0        0.887121    1.119959   -0.387896
      7          6           0       -0.641381    1.275479   -0.209423
      8          6           0        1.560655    0.677818    0.906103
      9          6           0        1.563414   -0.651908    0.917226
     10          1           0       -3.079119    0.666055    0.587905
     11          1           0       -1.076070    0.003610    1.481593
     12          1           0       -0.876391   -2.142441    0.456064
     13          1           0       -1.076247   -1.473459   -1.168202
     14          1           0        1.338699   -2.005769   -0.824454
     15          1           0        1.330829    2.000811   -0.859992
     16          1           0       -0.884094    2.145636    0.414473
     17          1           0       -1.080637    1.439087   -1.198911
     18          1           0        1.889129    1.351589    1.686713
     19          1           0        1.893367   -1.310821    1.709759
 ---------------------------------------------------------------------

 SCF Done:  E(RB3LYP) =  -423.194413827     A.U. after    1 cycles

 The electronic state is 1-A.
 Alpha  occ. eigenvalues --  -19.13120 -19.13064 -10.23422 -10.23291 -10.22914
 Alpha  occ. eigenvalues --  -10.18580 -10.18488 -10.17901 -10.17623  -1.03973
 Alpha  occ. eigenvalues --   -1.01202  -0.79927  -0.76434  -0.75887  -0.64246
 Alpha  occ. eigenvalues --   -0.61842  -0.55888  -0.54519  -0.52175  -0.50365
 Alpha  occ. eigenvalues --   -0.46242  -0.43763  -0.41944  -0.40461  -0.40223
 Alpha  occ. eigenvalues --   -0.39363  -0.37243  -0.35556  -0.33293  -0.32350
 Alpha  occ. eigenvalues --   -0.30965  -0.26960  -0.25548  -0.23720
 Alpha virt. eigenvalues --    0.00871   0.07897   0.09685   0.12651   0.13259
 Alpha virt. eigenvalues --    0.14094   0.15165   0.15837   0.16437   0.17322
 Alpha virt. eigenvalues --    0.18119   0.18245   0.20244   0.21552   0.22662

 Mulliken charges:
               1
     1  O   -0.438185
     2  C    0.125209
     3  C   -0.203964
     4  C    0.014681
     5  O   -0.249274
     6  C    0.025257
     7  C   -0.241096
     8  C   -0.083165
     9  C   -0.079477
    10  H    0.276976
    11  H    0.069272
    12  H    0.097219
    13  H    0.118372
    14  H    0.081899
    15  H    0.081004
    16  H    0.082023
    17  H    0.115198
    18  H    0.103413
    19  H    0.104639
 Sum of Mulliken charges =   0.00000

 Dipole moment (field-independent basis, Debye):
    X=              0.1493    Y=              1.0059    Z=              2.1105  Tot=              2.3427
 Quadrupole moment (field-independent basis, Debye-Ang):
   XX=            -55.9100   YY=            -48.0810   ZZ=            -53.8004
   XY=             -3.7757   XZ=              0.4720   YZ=              0.7604

  Exact polarizability:  74.524  -1.412  83.212   3.640   0.574  65.424
 Approx polarizability: 100.980  -1.321 131.929   3.814   1.345 102.227

                      1                      2                      3
                      A                      A                      A
 Frequencies --    149.2730               248.4084               277.0285
 Red. masses --      3.7048                 2.1858                 1.1267
 Frc consts  --      0.0486                 0.0795                 0.0509
 IR Inten    --      0.1420                 6.9872                86.0985

                      4                      5                      6
                      A                      A                      A
 Frequencies --    335.0258               348.3094               409.7241
 Red. masses --      2.9696                 3.9533                 3.0315
 Frc consts  --      0.1964                 0.2826                 0.2998
 IR Inten    --      3.7673                10.1339                 2.0468

                      7                      8                      9
                      A                      A                      A
 Frequencies --    414.1674               470.8523               626.5091
 Red. masses --      4.9781                 2.1682                 2.8833
 Frc consts  --      0.5031                 0.2832                 0.6668
 IR Inten    --      7.6990                 5.6123                 5.0980

                     10                     11                     12
                      A                      A                      A
 Frequencies --    630.2216               724.5466               782.0948
 Red. masses --      3.9118                 2.2495                 2.3399
 Frc consts  --      0.9154                 0.6958                 0.8433
 IR Inten    --      2.1262                25.0808                14.1030

                     13                     14                     15
                      A                      A                      A
 Frequencies --    823.7549               848.3005               851.3908
 Red. masses --      3.5061                 2.7169                 3.8363
 Frc consts  --      1.4017                 1.1519                 1.6384
 IR Inten    --      4.0914                 4.7602                 7.6659

                     16                     17                     18
                      A                      A                      A
 Frequencies --    890.9265               896.5955               940.9405
 Red. masses --      1.9563                 2.6558                 1.3863
 Frc consts  --      0.9149                 1.2579                 0.7231
 IR Inten    --      3.0083                12.6253                 3.8980

                     19                     20                     21
                      A                      A                      A
 Frequencies --    964.9797               969.2634              1008.4691
 Red. masses --      2.2286                 1.8192                 1.9649
 Frc consts  --      1.2227                 1.0070                 1.1774
 IR Inten    --     47.9108                 2.9778                 5.8685

                     22                     23                     24
                      A                      A                      A
 Frequencies --   1059.1576              1065.9262              1087.1257
 Red. masses --      2.0561                 4.2691                 2.5476
 Frc consts  --      1.3590                 2.8579                 1.7740
 IR Inten    --     24.0121                33.7102                48.4887

                     25                     26                     27
                      A                      A                      A
 Frequencies --   1095.7881              1137.4630              1161.9136
 Red. masses --      2.3323                 1.6867                 1.2027
 Frc consts  --      1.6500                 1.2858                 0.9567
 IR Inten    --     16.1359                17.1036                 7.2603

                     28                     29                     30
                      A                      A                      A
 Frequencies --   1217.5181              1255.0672              1274.3328
 Red. masses --      1.2598                 1.5470                 1.4614
 Frc consts  --      1.1003                 1.4357                 1.3982
 IR Inten    --      8.3014                22.9213                21.8461

                     31                     32                     33
                      A                      A                      A
 Frequencies --   1289.3756              1299.9868              1327.0155
 Red. masses --      1.2595                 1.2804                 1.3364
 Frc consts  --      1.2337                 1.2749                 1.3865
 IR Inten    --      3.5081                35.0006                 1.1842

                     34                     35                     36
                      A                      A                      A
 Frequencies --   1349.5203              1356.4130              1370.6110
 Red. masses --      1.4586                 1.5899                 1.3784
 Frc consts  --      1.5651                 1.7235                 1.5257
 IR Inten    --      2.7744                 5.6656                 5.7310

                     37                     38                     39
                      A                      A                      A
 Frequencies --   1394.9661              1436.7141              1473.1122
 Red. masses --      1.3439                 1.4918                 1.0892
 Frc consts  --      1.5408                 1.8142                 1.3926
 IR Inten    --     16.1714                 8.6664                 0.5004

                     40                     41                     42
                      A                      A                      A
 Frequencies --   1486.0338              1663.2071              2996.4559
 Red. masses --      1.1072                 6.3952                 1.0833
 Frc consts  --      1.4406                10.4230                 5.7306
 IR Inten    --      1.3065                 0.3204                34.7455

                     43                     44                     45
                      A                      A                      A
 Frequencies --   3022.8327              3045.2993              3072.3013
 Red. masses --      1.0632                 1.0601                 1.0868
 Frc consts  --      5.7237                 5.7927                 6.0441
 IR Inten    --     35.4584                19.3482                71.3286

                     46                     47                     48
                      A                      A                      A
 Frequencies --   3077.7955              3084.6788              3095.2272
 Red. masses --      1.0892                 1.0991                 1.1036
 Frc consts  --      6.0789                 6.1616                 6.2294
 IR Inten    --     25.8598                17.7923                26.0266

                     49                     50                     51
                      A                      A                      A
 Frequencies --   3208.0424              3233.6360              3810.6134
 Red. masses --      1.0855                 1.1077                 1.0661
 Frc consts  --      6.5821                 6.8245                 9.1210
 IR Inten    --      3.3273                 9.6102                13.3491

 - Thermochemistry -
 -------------------
 Temperature   298.150 Kelvin.  Pressure   1.00000 Atm.
 Atom     1 has atomic number  8 and mass  15.99491

 Molecular mass:   126.06808 amu.
 Principal axes and moments of inertia in atomic units:
                           1         2         3
     Eigenvalues --   607.543631172.184791320.56202
           X            0.99984  -0.01266   0.01246
           Y            0.01258   0.99990   0.00629
           Z           -0.01254  -0.00614   0.99990
 This molecule is an asymmetric top.
 Rotational symmetry number  1.
 Warning -- assumption of classical behavior for rotation
           may cause significant error
 Rotational temperatures (Kelvin)      0.14256     0.07389     0.06559
 Rotational constants (GHZ):           2.97055     1.53964     1.36665
 Zero-point vibrational energy     425026.7 (Joules/Mol)
                                  101.58381 (Kcal/Mol)
 Warning -- explicit consideration of   8 degrees of freedom as
           vibrations may cause significant error
 Vibrational temperatures:    214.77   357.40   398.58   482.03   501.14
          (Kelvin)            589.50   595.89   677.45   901.41   906.75
                             1042.46  1125.26  1185.20  1220.51  1224.96
                             1281.84  1290.00  1353.80  1388.39  1394.55
                             1450.96  1523.89  1533.63  1564.13  1576.59
                             1636.55  1671.73  1751.73  1805.76  1833.48
                             1855.12  1870.39  1909.28  1941.66  1951.57
                             1972.00  2007.04  2067.11  2119.48  2138.07
                             2392.98  4311.23  4349.18  4381.50  4420.35
                             4428.26  4438.16  4453.34  4615.65  4652.48
                             5482.62

 Zero-point correction=                           0.161884 (Hartree/Particle)
 Thermal correction to Energy=                    0.169117
 Thermal correction to Enthalpy=                  0.170061
 Thermal correction to Gibbs Free Energy=         0.130656
 Sum of electronic and zero-point Energies=           -423.032530
 Sum of electronic and thermal Energies=              -423.025297
 Sum of electronic and thermal Enthalpies=            -423.024353
 Sum of electronic and thermal Free Energies=         -423.063757

                     E (Thermal)             CV                S
                      KCal/Mol        Cal/Mol-Kelvin    Cal/Mol-Kelvin
 Total                  106.122             29.976             82.934
 Electronic               0.000              0.000              0.000
 Translational            0.889              2.981             40.409
 Rotational               0.889              2.981             28.333
 Vibrational            104.345             24.014             14.193
 Vibration     1          0.618              1.903              2.681
 Vibration     2          0.662              1.765              1.742
 Vibration     3          0.678              1.716              1.552
 Vibration     4          0.716              1.606              1.236
 Vibration     5          0.726              1.579              1.174
 Vibration     6          0.774              1.449              0.928
 Vibration     7          0.778              1.439              0.912
 Vibration     8          0.828              1.315              0.735

 Optimization completed.
    -- Stationary point found.
 Normal termination of Gaussian 09 at Tue Jan 28 03:52:27 2020.
