 Gaussian 09, Revision D.01,
 Gaussian 09:  ES64L-G09RevD.01 24-Apr-2013

 -----------------------------
 # b3lyp 6-31G(2df,p) opt Freq
 -----------------------------

 -----
 titel
 -----
 Symbolic Z-matrix:
 Charge =  0 Multiplicity = 1

 SCF Done:  E(RB3LYP) =  -423.088113145     A.U. after   13 cycles
 Optimization completed.
    -- Stationary point found.
 Normal termination of Gaussian 09 at Tue Jan 28 12:47:33 2020.

 ----------------------------------------------------------------------
 #N Geom=AllCheck Guess=TCheck SCRF=Check GenChk RB3LYP/6-31G(2df,p) Fr
 eq
 ----------------------------------------------------------------------

 Structure from the checkpoint file:  "/scratch/puck/g09_a1e3649f-5022-4474-bf9b-07bb14573e34/Gau-10925.chk"
 -----
 titel
 -----
 Charge =  0 Multiplicity = 1

                         Standard orientation:
 ---------------------------------------------------------------------
 Center     Atomic      Atomic             Coordinates (Angstroms)
 Number     Number       Type             X           Y           Z
 ---------------------------------------------------------------------
      1          6           0        2.313342    1.408002   -0.004193
      2          6           0        1.391099    0.233225   -0.029472
      3          8           0        1.938586   -1.099413   -0.296676
      4          6           0        0.512713   -1.322771   -0.113188
      5          6           0        0.358785   -0.278259    1.035468
      6          6           0       -0.815170    0.444995    0.333154
      7          6           0       -2.214507   -0.134459    0.460953
      8          8           0       -3.133575    0.458980   -0.445607
      9          6           0        0.076551   -0.016939   -0.847960
     10          1           0        2.814969    1.522524   -0.969926
     11          1           0        1.755860    2.325429    0.208723
     12          1           0        3.076948    1.278293    0.768791
     13          1           0        0.136073   -2.340635   -0.196628
     14          1           0        0.547854   -0.441905    2.096959
     15          1           0       -0.846904    1.530368    0.481202
     16          1           0       -2.187837   -1.230269    0.342792
     17          1           0       -2.615699    0.070395    1.459831
     18          1           0       -2.813621    0.289753   -1.337652
     19          1           0       -0.044601    0.116753   -1.924404
 ---------------------------------------------------------------------

 SCF Done:  E(RB3LYP) =  -423.088113145     A.U. after    1 cycles

 The electronic state is 1-A.
 Alpha  occ. eigenvalues --  -19.13488 -19.12658 -10.25469 -10.24864 -10.22733
 Alpha  occ. eigenvalues --  -10.20268 -10.20208 -10.19628 -10.18886  -1.06060
 Alpha  occ. eigenvalues --   -1.01542  -0.86992  -0.75118  -0.71316  -0.64858
 Alpha  occ. eigenvalues --   -0.62741  -0.60036  -0.51393  -0.50948  -0.48845
 Alpha  occ. eigenvalues --   -0.46365  -0.45678  -0.44715  -0.42383  -0.40241
 Alpha  occ. eigenvalues --   -0.39720  -0.37173  -0.34594  -0.32241  -0.31036
 Alpha  occ. eigenvalues --   -0.30189  -0.30010  -0.26484  -0.23226
 Alpha virt. eigenvalues --    0.06460   0.08844   0.09560   0.10788   0.11209
 Alpha virt. eigenvalues --    0.12881   0.14166   0.14488   0.14774   0.15477
 Alpha virt. eigenvalues --    0.16672   0.18170   0.19469   0.19966   0.20338

 Mulliken charges:
               1
     1  C   -0.527204
     2  C    0.473905
     3  O   -0.361883
     4  C    0.079045
     5  C   -0.158980
     6  C   -0.053893
     7  C   -0.089539
     8  O   -0.419125
     9  C   -0.157159
    10  H    0.136886
    11  H    0.132248
    12  H    0.137522
    13  H    0.097064
    14  H    0.081061
    15  H    0.076050
    16  H    0.083763
    17  H    0.110743
    18  H    0.282687
    19  H    0.076809
 Sum of Mulliken charges =   0.00000

 Dipole moment (field-independent basis, Debye):
    X=              0.1153    Y=              0.5504    Z=             -0.0521  Tot=              0.5647
 Quadrupole moment (field-independent basis, Debye-Ang):
   XX=            -63.9211   YY=            -52.7925   ZZ=            -49.3899
   XY=              6.9099   XZ=              2.0587   YZ=             -0.3744

  Exact polarizability:  84.773   2.706  71.529  -0.320  -0.442  69.435
 Approx polarizability: 114.210  -1.781 109.084  -0.298   0.022 108.856

                      1                      2                      3
                      A                      A                      A
 Frequencies --     89.4164               133.0518               189.4720
 Red. masses --      3.7153                 4.0166                 2.0210
 Frc consts  --      0.0175                 0.0419                 0.0427
 IR Inten    --      3.7313                 1.5300                 5.1884

                      4                      5                      6
                      A                      A                      A
 Frequencies --    198.0475               281.2517               301.0594
 Red. masses --      1.0435                 1.9689                 2.2169
 Frc consts  --      0.0241                 0.0918                 0.1184
 IR Inten    --      0.1866                41.1211                10.1261

                      7                      8                      9
                      A                      A                      A
 Frequencies --    323.7685               412.2754               516.4827
 Red. masses --      1.6521                 5.5519                 3.5956
 Frc consts  --      0.1020                 0.5560                 0.5651
 IR Inten    --     57.1093                 6.1011                 1.2493

                     10                     11                     12
                      A                      A                      A
 Frequencies --    567.5397               649.3811               739.8510
 Red. masses --      3.2653                 3.4381                 3.5257
 Frc consts  --      0.6197                 0.8542                 1.1371
 IR Inten    --      1.5694                 4.3279                 0.7171

                     13                     14                     15
                      A                      A                      A
 Frequencies --    753.0410               785.5329               819.6130
 Red. masses --      2.8807                 3.3967                 1.9325
 Frc consts  --      0.9625                 1.2349                 0.7649
 IR Inten    --      7.2694                13.1862                 2.7164

                     16                     17                     18
                      A                      A                      A
 Frequencies --    852.0293               887.6640               925.4254
 Red. masses --      1.8816                 2.7667                 2.2231
 Frc consts  --      0.8048                 1.2844                 1.1217
 IR Inten    --      5.6191                29.5120                 5.5066

                     19                     20                     21
                      A                      A                      A
 Frequencies --    957.1346               990.0894              1016.5536
 Red. masses --      2.5394                 1.3830                 1.7460
 Frc consts  --      1.3707                 0.7987                 1.0631
 IR Inten    --     27.3413                 6.8819                29.6336

                     22                     23                     24
                      A                      A                      A
 Frequencies --   1061.3552              1068.8508              1086.9447
 Red. masses --      2.9623                 3.5186                 2.2283
 Frc consts  --      1.9661                 2.3684                 1.5511
 IR Inten    --     55.2060                 0.8979                23.8575

                     25                     26                     27
                      A                      A                      A
 Frequencies --   1111.3844              1132.5390              1136.8295
 Red. masses --      1.5423                 1.5849                 2.0088
 Frc consts  --      1.1224                 1.1978                 1.5296
 IR Inten    --      8.4494                 3.8055                13.5296

                     28                     29                     30
                      A                      A                      A
 Frequencies --   1164.5066              1172.0645              1196.0520
 Red. masses --      1.9561                 1.6073                 1.4531
 Frc consts  --      1.5629                 1.3009                 1.2247
 IR Inten    --      8.5106                 0.6095                 7.2997

                     31                     32                     33
                      A                      A                      A
 Frequencies --   1242.3680              1252.3978              1284.7209
 Red. masses --      1.5731                 1.7900                 1.9614
 Frc consts  --      1.4306                 1.6542                 1.9074
 IR Inten    --      7.3308                20.8335                23.0264

                     34                     35                     36
                      A                      A                      A
 Frequencies --   1352.1633              1371.0579              1401.3377
 Red. masses --      1.3754                 1.9619                 1.2489
 Frc consts  --      1.4817                 2.1729                 1.4450
 IR Inten    --      2.2673                 6.4971                20.1541

                     37                     38                     39
                      A                      A                      A
 Frequencies --   1418.9005              1428.1878              1473.4186
 Red. masses --      1.9700                 1.4063                 1.0458
 Frc consts  --      2.3368                 1.6901                 1.3377
 IR Inten    --     22.0158                42.8326                 4.3023

                     40                     41                     42
                      A                      A                      A
 Frequencies --   1491.6105              1503.3557              2969.9923
 Red. masses --      1.0501                 1.0857                 1.0703
 Frc consts  --      1.3766                 1.4458                 5.5626
 IR Inten    --      3.5296                 1.1143                42.4624

                     43                     44                     45
                      A                      A                      A
 Frequencies --   3039.4365              3046.3499              3066.6793
 Red. masses --      1.0355                 1.0815                 1.0928
 Frc consts  --      5.6364                 5.9134                 6.0550
 IR Inten    --     11.3137                32.2291                42.1858

                     46                     47                     48
                      A                      A                      A
 Frequencies --   3100.6763              3113.0425              3113.2195
 Red. masses --      1.0903                 1.0927                 1.0992
 Frc consts  --      6.1759                 6.2389                 6.2767
 IR Inten    --     46.7283                45.6350                 1.2758

                     49                     50                     51
                      A                      A                      A
 Frequencies --   3115.3561              3137.4625              3813.9376
 Red. masses --      1.1006                 1.0962                 1.0661
 Frc consts  --      6.2933                 6.3575                 9.1367
 IR Inten    --     13.2776                34.9776                11.1071

 - Thermochemistry -
 -------------------
 Temperature   298.150 Kelvin.  Pressure   1.00000 Atm.
 Atom     1 has atomic number  6 and mass  12.00000

 Molecular mass:   126.06808 amu.
 Principal axes and moments of inertia in atomic units:
                           1         2         3
     Eigenvalues --   480.316551650.632731815.24911
           X            0.99933   0.03668  -0.00045
           Y           -0.03669   0.99923  -0.01390
           Z           -0.00006   0.01391   0.99990
 This molecule is an asymmetric top.
 Rotational symmetry number  1.
 Warning -- assumption of classical behavior for rotation
           may cause significant error
 Rotational temperatures (Kelvin)      0.18033     0.05247     0.04771
 Rotational constants (GHZ):           3.75740     1.09336     0.99421
 Zero-point vibrational energy     414236.2 (Joules/Mol)
                                   99.00482 (Kcal/Mol)
 Warning -- explicit consideration of  10 degrees of freedom as
           vibrations may cause significant error
 Vibrational temperatures:    128.65   191.43   272.61   284.95   404.66
          (Kelvin)            433.16   465.83   593.17   743.10   816.56
                              934.31  1064.48  1083.46  1130.21  1179.24
                             1225.88  1277.15  1331.48  1377.10  1424.52
                             1462.59  1527.05  1537.84  1563.87  1599.03
                             1629.47  1635.64  1675.46  1686.34  1720.85
                             1787.49  1801.92  1848.42  1945.46  1972.64
                             2016.21  2041.48  2054.84  2119.92  2146.09
                             2162.99  4273.15  4373.07  4383.01  4412.26
                             4461.18  4478.97  4479.22  4482.30  4514.10
                             5487.40

 Zero-point correction=                           0.157774 (Hartree/Particle)
 Thermal correction to Energy=                    0.166186
 Thermal correction to Enthalpy=                  0.167130
 Thermal correction to Gibbs Free Energy=         0.124763
 Sum of electronic and zero-point Energies=           -422.930339
 Sum of electronic and thermal Energies=              -422.921927
 Sum of electronic and thermal Enthalpies=            -422.920983
 Sum of electronic and thermal Free Energies=         -422.963350

                     E (Thermal)             CV                S
                      KCal/Mol        Cal/Mol-Kelvin    Cal/Mol-Kelvin
 Total                  104.283             32.370             89.169
 Electronic               0.000              0.000              0.000
 Translational            0.889              2.981             40.409
 Rotational               0.889              2.981             28.755
 Vibrational            102.506             26.408             20.005
 Vibration     1          0.602              1.957              3.673
 Vibration     2          0.613              1.920              2.901
 Vibration     3          0.633              1.854              2.233
 Vibration     4          0.637              1.843              2.151
 Vibration     5          0.681              1.708              1.526
 Vibration     6          0.693              1.672              1.411
 Vibration     7          0.708              1.628              1.291
 Vibration     8          0.776              1.444              0.919
 Vibration     9          0.872              1.213              0.618
 Vibration    10          0.923              1.101              0.509

 Optimization completed.
    -- Stationary point found.
 Normal termination of Gaussian 09 at Tue Jan 28 14:45:52 2020.
