 Gaussian 09, Revision D.01,
 Gaussian 09:  ES64L-G09RevD.01 24-Apr-2013

 -----------------------------
 # b3lyp 6-31G(2df,p) opt Freq
 -----------------------------

 -----
 titel
 -----
 Symbolic Z-matrix:
 Charge =  0 Multiplicity = 1

 SCF Done:  E(RB3LYP) =  -423.202765455     A.U. after   14 cycles
 Optimization completed.
    -- Stationary point found.
 Normal termination of Gaussian 09 at Mon Jan 27 13:11:39 2020.

 ----------------------------------------------------------------------
 #N Geom=AllCheck Guess=TCheck SCRF=Check GenChk RB3LYP/6-31G(2df,p) Fr
 eq
 ----------------------------------------------------------------------

 Structure from the checkpoint file:  "/scratch/puck/g09_909cf0dc-0782-489d-ad05-9c514814522c/Gau-48059.chk"
 -----
 titel
 -----
 Charge =  0 Multiplicity = 1

                         Standard orientation:
 ---------------------------------------------------------------------
 Center     Atomic      Atomic             Coordinates (Angstroms)
 Number     Number       Type             X           Y           Z
 ---------------------------------------------------------------------
      1          8           0        0.900639    2.020341   -0.452744
      2          6           0        0.219360    1.082603   -0.111977
      3          6           0       -1.183420    1.230690    0.452084
      4          6           0       -2.160955    0.167587   -0.083969
      5          6           0       -1.601850   -1.249231    0.100070
      6          6           0       -0.252480   -1.402273   -0.617655
      7          6           0        0.737125   -0.353192   -0.154946
      8          6           0        2.184857   -0.556864   -0.198435
      9          8           0        1.477461   -0.667258    1.045739
     10          1           0       -1.086469    1.105720    1.540821
     11          1           0       -1.527375    2.251345    0.267972
     12          1           0       -3.124602    0.270555    0.425208
     13          1           0       -2.350527    0.350436   -1.149964
     14          1           0       -1.466408   -1.456351    1.169137
     15          1           0       -2.312327   -1.990449   -0.279889
     16          1           0        0.178373   -2.393946   -0.446854
     17          1           0       -0.400079   -1.292417   -1.701115
     18          1           0        2.574326   -1.495087   -0.590728
     19          1           0        2.834456    0.309605   -0.289581
 ---------------------------------------------------------------------

 SCF Done:  E(RB3LYP) =  -423.202765455     A.U. after    1 cycles

 The electronic state is 1-A.
 Alpha  occ. eigenvalues --  -19.15847 -19.13545 -10.27156 -10.24538 -10.23419
 Alpha  occ. eigenvalues --  -10.19731 -10.19706 -10.19447 -10.19345  -1.07660
 Alpha  occ. eigenvalues --   -1.04097  -0.83181  -0.75409  -0.71697  -0.66561
 Alpha  occ. eigenvalues --   -0.62180  -0.59991  -0.53189  -0.49568  -0.48920
 Alpha  occ. eigenvalues --   -0.46245  -0.44144  -0.43316  -0.43130  -0.40876
 Alpha  occ. eigenvalues --   -0.40595  -0.37694  -0.36342  -0.35866  -0.33795
 Alpha  occ. eigenvalues --   -0.33574  -0.30228  -0.28688  -0.23799
 Alpha virt. eigenvalues --   -0.02753   0.07767   0.09984   0.11030   0.12102
 Alpha virt. eigenvalues --    0.13071   0.14176   0.15557   0.16012   0.16232
 Alpha virt. eigenvalues --    0.16877   0.17303   0.18291   0.20029   0.21997

 Mulliken charges:
               1
     1  O   -0.305312
     2  C    0.339138
     3  C   -0.302699
     4  C   -0.207943
     5  C   -0.200465
     6  C   -0.291878
     7  C    0.330254
     8  C   -0.234824
     9  O   -0.279072
    10  H    0.136937
    11  H    0.120869
    12  H    0.105818
    13  H    0.105993
    14  H    0.113491
    15  H    0.099660
    16  H    0.110623
    17  H    0.108226
    18  H    0.113239
    19  H    0.137946
 Sum of Mulliken charges =   0.00000

 Dipole moment (field-independent basis, Debye):
    X=             -1.9216    Y=             -1.8746    Z=             -0.8459  Tot=              2.8146
 Quadrupole moment (field-independent basis, Debye-Ang):
   XX=            -50.6437   YY=            -56.9801   ZZ=            -54.1951
   XY=             -3.1099   XZ=             -2.1801   YZ=              3.3626

  Exact polarizability:  87.867  -0.587  77.206  -2.806   0.538  60.589
 Approx polarizability: 117.341   3.239 111.347  -3.212  -5.279 101.930

                      1                      2                      3
                      A                      A                      A
 Frequencies --     65.9879               132.4875               223.0707
 Red. masses --      4.2951                 2.7681                 4.8429
 Frc consts  --      0.0110                 0.0286                 0.1420
 IR Inten    --      3.3971                 0.4926                 4.9889

                      4                      5                      6
                      A                      A                      A
 Frequencies --    273.3628               296.7302               370.6060
 Red. masses --      2.3315                 2.9525                 2.1744
 Frc consts  --      0.1027                 0.1532                 0.1760
 IR Inten    --      1.9759                 4.6777                 2.0177

                      7                      8                      9
                      A                      A                      A
 Frequencies --    394.7635               435.8184               495.2063
 Red. masses --      3.3545                 3.4216                 2.2251
 Frc consts  --      0.3080                 0.3829                 0.3215
 IR Inten    --      5.8751                 0.7780                 3.9085

                     10                     11                     12
                      A                      A                      A
 Frequencies --    580.2579               639.1169               681.3906
 Red. masses --      3.0554                 4.0295                 2.7350
 Frc consts  --      0.6061                 0.9697                 0.7482
 IR Inten    --      4.3930                 6.6021                 5.1413

                     13                     14                     15
                      A                      A                      A
 Frequencies --    788.4982               825.7581               852.6935
 Red. masses --      2.7977                 1.9492                 2.2725
 Frc consts  --      1.0248                 0.7831                 0.9735
 IR Inten    --      3.6835                15.3109                 6.1814

                     16                     17                     18
                      A                      A                      A
 Frequencies --    869.5018               919.6487               930.9566
 Red. masses --      2.6863                 1.6579                 1.8193
 Frc consts  --      1.1966                 0.8261                 0.9290
 IR Inten    --     11.0668                 4.6208                 8.1516

                     19                     20                     21
                      A                      A                      A
 Frequencies --    980.8523               993.1918              1071.5104
 Red. masses --      1.7917                 4.2463                 1.7472
 Frc consts  --      1.0156                 2.4679                 1.1819
 IR Inten    --      8.6272                16.0669                 0.2812

                     22                     23                     24
                      A                      A                      A
 Frequencies --   1094.9331              1111.3725              1136.9866
 Red. masses --      1.9114                 1.5230                 1.4943
 Frc consts  --      1.3501                 1.1083                 1.1381
 IR Inten    --     10.8840                 2.9595                 5.0383

                     25                     26                     27
                      A                      A                      A
 Frequencies --   1140.5567              1162.2695              1179.0734
 Red. masses --      1.6509                 1.3971                 1.6239
 Frc consts  --      1.2653                 1.1119                 1.3301
 IR Inten    --     21.9388                 0.7601                10.9155

                     28                     29                     30
                      A                      A                      A
 Frequencies --   1258.1926              1277.9440              1298.0125
 Red. masses --      1.4347                 1.2977                 2.2352
 Frc consts  --      1.3382                 1.2486                 2.2189
 IR Inten    --      3.7243                 1.8233                18.0320

                     31                     32                     33
                      A                      A                      A
 Frequencies --   1339.5999              1354.0557              1368.5206
 Red. masses --      1.3984                 1.4904                 1.4399
 Frc consts  --      1.4786                 1.6100                 1.5888
 IR Inten    --      1.4086                 1.9900                 3.7121

                     34                     35                     36
                      A                      A                      A
 Frequencies --   1379.2036              1427.9250              1458.0964
 Red. masses --      1.5036                 2.4341                 1.0874
 Frc consts  --      1.6852                 2.9241                 1.3622
 IR Inten    --      1.8378                11.1396                 7.2481

                     37                     38                     39
                      A                      A                      A
 Frequencies --   1470.0335              1492.6621              1500.8148
 Red. masses --      1.1070                 1.0844                 1.0960
 Frc consts  --      1.4094                 1.4235                 1.4545
 IR Inten    --      8.7194                 4.9784                 1.1926

                     40                     41                     42
                      A                      A                      A
 Frequencies --   1517.9331              1816.7232              3011.8613
 Red. masses --      1.3802                12.0997                 1.0683
 Frc consts  --      1.8737                23.5290                 5.7095
 IR Inten    --      2.6603               144.7105                 2.6866

                     43                     44                     45
                      A                      A                      A
 Frequencies --   3016.2221              3024.2583              3032.5747
 Red. masses --      1.0660                 1.0650                 1.0604
 Frc consts  --      5.7140                 5.7392                 5.7457
 IR Inten    --     14.1461                25.3207                23.3348

                     46                     47                     48
                      A                      A                      A
 Frequencies --   3074.6114              3078.0404              3083.0121
 Red. masses --      1.0965                 1.0962                 1.1031
 Frc consts  --      6.1073                 6.1191                 6.1774
 IR Inten    --     35.9388                27.1676                31.8190

                     49                     50                     51
                      A                      A                      A
 Frequencies --   3095.3861              3105.3764              3194.6348
 Red. masses --      1.0522                 1.0944                 1.1181
 Frc consts  --      5.9400                 6.2181                 6.7232
 IR Inten    --     26.1345                16.2757                 8.5406

 - Thermochemistry -
 -------------------
 Temperature   298.150 Kelvin.  Pressure   1.00000 Atm.
 Atom     1 has atomic number  8 and mass  15.99491

 Molecular mass:   126.06808 amu.
 Principal axes and moments of inertia in atomic units:
                           1         2         3
     Eigenvalues --   759.379751055.496571545.86275
           X            0.99956  -0.02506  -0.01593
           Y            0.02563   0.99902   0.03612
           Z            0.01500  -0.03651   0.99922
 This molecule is an asymmetric top.
 Rotational symmetry number  1.
 Warning -- assumption of classical behavior for rotation
           may cause significant error
 Rotational temperatures (Kelvin)      0.11406     0.08206     0.05603
 Rotational constants (GHZ):           2.37660     1.70985     1.16747
 Zero-point vibrational energy     420620.7 (Joules/Mol)
                                  100.53077 (Kcal/Mol)
 Warning -- explicit consideration of  10 degrees of freedom as
           vibrations may cause significant error
 Vibrational temperatures:     94.94   190.62   320.95   393.31   426.93
          (Kelvin)            533.22   567.98   627.04   712.49   834.86
                              919.55   980.37  1134.47  1188.08  1226.83
                             1251.02  1323.17  1339.44  1411.23  1428.98
                             1541.66  1575.36  1599.02  1635.87  1641.00
                             1672.24  1696.42  1810.26  1838.67  1867.55
                             1927.38  1948.18  1968.99  1984.36  2054.46
                             2097.87  2115.05  2147.61  2159.34  2183.96
                             2613.86  4333.39  4339.67  4351.23  4363.19
                             4423.67  4428.61  4435.76  4453.56  4467.94
                             4596.36

 Zero-point correction=                           0.160206 (Hartree/Particle)
 Thermal correction to Energy=                    0.168225
 Thermal correction to Enthalpy=                  0.169169
 Thermal correction to Gibbs Free Energy=         0.127482
 Sum of electronic and zero-point Energies=           -423.042559
 Sum of electronic and thermal Energies=              -423.034541
 Sum of electronic and thermal Enthalpies=            -423.033597
 Sum of electronic and thermal Free Energies=         -423.075284

                     E (Thermal)             CV                S
                      KCal/Mol        Cal/Mol-Kelvin    Cal/Mol-Kelvin
 Total                  105.563             31.006             87.738
 Electronic               0.000              0.000              0.000
 Translational            0.889              2.981             40.409
 Rotational               0.889              2.981             28.607
 Vibrational            103.785             25.045             18.723
 Vibration     1          0.597              1.970              4.270
 Vibration     2          0.613              1.921              2.910
 Vibration     3          0.649              1.806              1.934
 Vibration     4          0.676              1.722              1.575
 Vibration     5          0.690              1.680              1.435
 Vibration     6          0.743              1.533              1.077
 Vibration     7          0.762              1.481              0.982
 Vibration     8          0.796              1.392              0.840
 Vibration     9          0.851              1.261              0.670
 Vibration    10          0.937              1.074              0.485

 Optimization completed.
    -- Stationary point found.
 Normal termination of Gaussian 09 at Mon Jan 27 13:55:19 2020.
