 Gaussian 09, Revision D.01,
 Gaussian 09:  ES64L-G09RevD.01 24-Apr-2013

 -----------------------------
 # b3lyp 6-31G(2df,p) opt Freq
 -----------------------------

 -----
 titel
 -----
 Symbolic Z-matrix:
 Charge =  0 Multiplicity = 1

 SCF Done:  E(RB3LYP) =  -423.139329408     A.U. after   13 cycles
 Optimization completed.
    -- Stationary point found.
 Normal termination of Gaussian 09 at Tue Jan 28 11:40:51 2020.

 ----------------------------------------------------------------------
 #N Geom=AllCheck Guess=TCheck SCRF=Check GenChk RB3LYP/6-31G(2df,p) Fr
 eq
 ----------------------------------------------------------------------

 Structure from the checkpoint file:  "/scratch/puck/g09_cf5cd64f-78a4-446f-b62e-4467d7579f6c/Gau-26367.chk"
 -----
 titel
 -----
 Charge =  0 Multiplicity = 1

                         Standard orientation:
 ---------------------------------------------------------------------
 Center     Atomic      Atomic             Coordinates (Angstroms)
 Number     Number       Type             X           Y           Z
 ---------------------------------------------------------------------
      1          6           0       -3.217351   -0.170301   -0.260558
      2          8           0       -1.917301   -0.710207   -0.150513
      3          6           0       -1.017462    0.140727    0.489975
      4          6           0       -0.347420    1.339357   -0.310314
      5          6           0        1.012722    0.951262    0.376546
      6          8           0        2.207227    0.709722   -0.340789
      7          6           0        2.468903   -0.707411   -0.295317
      8          6           0        1.164246   -1.350521    0.149463
      9          6           0        0.385904   -0.385229    0.620314
     10          1           0       -3.232992    0.740639   -0.876786
     11          1           0       -3.842314   -0.929033   -0.736636
     12          1           0       -3.640324    0.072253    0.726731
     13          1           0       -1.437792    0.510823    1.439131
     14          1           0       -0.325245    1.106020   -1.376406
     15          1           0       -0.735534    2.345154   -0.133365
     16          1           0        1.214791    1.584492    1.250735
     17          1           0        2.758885   -1.046938   -1.298483
     18          1           0        3.317922   -0.907495    0.377861
     19          1           0        0.905941   -2.379339   -0.063027
 ---------------------------------------------------------------------

 SCF Done:  E(RB3LYP) =  -423.139329409     A.U. after    1 cycles

 The electronic state is 1-A.
 Alpha  occ. eigenvalues --  -19.14754 -19.13316 -10.24816 -10.22999 -10.22903
 Alpha  occ. eigenvalues --  -10.22857 -10.18801 -10.18451 -10.18311  -1.04347
 Alpha  occ. eigenvalues --   -1.02921  -0.84619  -0.76163  -0.70614  -0.66857
 Alpha  occ. eigenvalues --   -0.61930  -0.58187  -0.54605  -0.49713  -0.49657
 Alpha  occ. eigenvalues --   -0.47235  -0.45638  -0.44043  -0.42712  -0.41748
 Alpha  occ. eigenvalues --   -0.37747  -0.37128  -0.36122  -0.34006  -0.31584
 Alpha  occ. eigenvalues --   -0.31181  -0.27359  -0.24633  -0.22899
 Alpha virt. eigenvalues --    0.00489   0.09005   0.10610   0.11338   0.12508
 Alpha virt. eigenvalues --    0.13310   0.14481   0.15076   0.15532   0.16508
 Alpha virt. eigenvalues --    0.18032   0.18540   0.18738   0.19342   0.20677

 Mulliken charges:
               1
     1  C   -0.239402
     2  O   -0.237366
     3  C    0.065697
     4  C   -0.303311
     5  C    0.094167
     6  O   -0.280344
     7  C   -0.106966
     8  C   -0.225280
     9  C    0.174268
    10  H    0.112283
    11  H    0.130889
    12  H    0.107352
    13  H    0.075954
    14  H    0.123082
    15  H    0.099039
    16  H    0.078705
    17  H    0.113154
    18  H    0.104851
    19  H    0.113229
 Sum of Mulliken charges =   0.00000

 Dipole moment (field-independent basis, Debye):
    X=             -1.5582    Y=              0.0201    Z=              0.4383  Tot=              1.6188
 Quadrupole moment (field-independent basis, Debye-Ang):
   XX=            -50.7500   YY=            -52.6612   ZZ=            -53.0855
   XY=             -5.2899   XZ=              0.4986   YZ=              1.9910

  Exact polarizability:  98.412 -10.382  78.835  -2.728   5.018  61.329
 Approx polarizability: 125.137 -17.576 123.724  -7.950  10.664  96.557

                      1                      2                      3
                      A                      A                      A
 Frequencies --     76.5212               111.3382               135.7612
 Red. masses --      2.9629                 3.2145                 2.7404
 Frc consts  --      0.0102                 0.0235                 0.0298
 IR Inten    --      1.9678                 1.1821                 6.5019

                      4                      5                      6
                      A                      A                      A
 Frequencies --    187.9855               254.0912               322.5135
 Red. masses --      1.2335                 2.4031                 2.9232
 Frc consts  --      0.0257                 0.0914                 0.1791
 IR Inten    --      1.2356                 0.5220                 1.1053

                      7                      8                      9
                      A                      A                      A
 Frequencies --    361.1610               436.7087               473.8317
 Red. masses --      3.1936                 3.2435                 4.2881
 Frc consts  --      0.2454                 0.3645                 0.5672
 IR Inten    --      0.3416                 3.7978                 3.5767

                     10                     11                     12
                      A                      A                      A
 Frequencies --    671.9852               700.7714               740.3505
 Red. masses --      2.3223                 3.0552                 4.1302
 Frc consts  --      0.6179                 0.8840                 1.3338
 IR Inten    --     10.5912                 2.2791                 5.8608

                     13                     14                     15
                      A                      A                      A
 Frequencies --    801.6622               816.0735               871.1951
 Red. masses --      4.0426                 1.2693                 3.7280
 Frc consts  --      1.5307                 0.4980                 1.6671
 IR Inten    --      1.3402                15.8826                 2.5227

                     16                     17                     18
                      A                      A                      A
 Frequencies --    921.4251               950.4994               980.9831
 Red. masses --      2.1731                 3.5167                 2.7243
 Frc consts  --      1.0870                 1.8719                 1.5447
 IR Inten    --      3.8785                38.8679                 3.3879

                     19                     20                     21
                      A                      A                      A
 Frequencies --    996.2225              1028.1081              1035.4794
 Red. masses --      3.5849                 2.0020                 3.0183
 Frc consts  --      2.0963                 1.2468                 1.9068
 IR Inten    --      6.6095                13.8154                 3.4327

                     22                     23                     24
                      A                      A                      A
 Frequencies --   1082.1264              1110.4540              1126.3626
 Red. masses --      2.8453                 1.7889                 2.3994
 Frc consts  --      1.9631                 1.2997                 1.7935
 IR Inten    --    112.2159                10.6449                43.7537

                     25                     26                     27
                      A                      A                      A
 Frequencies --   1160.8409              1174.4449              1183.4668
 Red. masses --      1.9354                 1.4447                 1.3083
 Frc consts  --      1.5366                 1.1740                 1.0796
 IR Inten    --     16.9814                72.1267                 4.8151

                     28                     29                     30
                      A                      A                      A
 Frequencies --   1195.8150              1238.9685              1240.5824
 Red. masses --      1.0973                 1.7388                 1.8369
 Frc consts  --      0.9245                 1.5726                 1.6657
 IR Inten    --      3.9436                54.8472                66.5533

                     31                     32                     33
                      A                      A                      A
 Frequencies --   1259.0281              1289.2306              1344.5727
 Red. masses --      1.3839                 1.8240                 1.3110
 Frc consts  --      1.2925                 1.7862                 1.3964
 IR Inten    --      5.7122                 2.3182                 0.5442

                     34                     35                     36
                      A                      A                      A
 Frequencies --   1373.5278              1402.2763              1461.1747
 Red. masses --      1.3608                 1.3678                 1.1131
 Frc consts  --      1.5126                 1.5847                 1.4002
 IR Inten    --     62.3841                23.2909                 1.9810

                     37                     38                     39
                      A                      A                      A
 Frequencies --   1483.0923              1488.3713              1508.5775
 Red. masses --      1.1292                 1.0848                 1.0652
 Frc consts  --      1.4633                 1.4158                 1.4283
 IR Inten    --      4.1639                 2.8163                 5.6712

                     40                     41                     42
                      A                      A                      A
 Frequencies --   1517.0162              1734.0381              2967.6042
 Red. masses --      1.0880                 8.5203                 1.0766
 Frc consts  --      1.4752                15.0946                 5.5860
 IR Inten    --      1.3387                 1.0088                26.5856

                     43                     44                     45
                      A                      A                      A
 Frequencies --   2974.0032              2979.6935              3010.2331
 Red. masses --      1.0688                 1.0423                 1.0842
 Frc consts  --      5.5697                 5.4525                 5.7884
 IR Inten    --    100.6749                69.3225                64.2779

                     46                     47                     48
                      A                      A                      A
 Frequencies --   3028.2539              3029.0376              3065.2005
 Red. masses --      1.1022                 1.0929                 1.0576
 Frc consts  --      5.9554                 5.9082                 5.8542
 IR Inten    --     43.2997                42.7831                35.7399

                     49                     50                     51
                      A                      A                      A
 Frequencies --   3120.6976              3143.3085              3224.1198
 Red. masses --      1.0966                 1.1093                 1.0959
 Frc consts  --      6.2924                 6.4575                 6.7120
 IR Inten    --     26.2681                20.0246                 3.3619

 - Thermochemistry -
 -------------------
 Temperature   298.150 Kelvin.  Pressure   1.00000 Atm.
 Atom     1 has atomic number  6 and mass  12.00000

 Molecular mass:   126.06808 amu.
 Principal axes and moments of inertia in atomic units:
                           1         2         3
     Eigenvalues --   432.818201659.913171921.80666
           X            0.99973  -0.02334   0.00101
           Y            0.02330   0.99932   0.02863
           Z           -0.00168  -0.02860   0.99959
 This molecule is an asymmetric top.
 Rotational symmetry number  1.
 Rotational temperatures (Kelvin)      0.20012     0.05218     0.04507
 Rotational constants (GHZ):           4.16974     1.08725     0.93909
 Zero-point vibrational energy     417441.6 (Joules/Mol)
                                   99.77094 (Kcal/Mol)
 Warning -- explicit consideration of   9 degrees of freedom as
           vibrations may cause significant error
 Vibrational temperatures:    110.10   160.19   195.33   270.47   365.58
          (Kelvin)            464.02   519.63   628.33   681.74   966.84
                             1008.25  1065.20  1153.41  1174.15  1253.45
                             1325.72  1367.55  1411.41  1433.34  1479.22
                             1489.82  1556.94  1597.69  1620.58  1670.19
                             1689.76  1702.74  1720.51  1782.60  1784.92
                             1811.46  1854.91  1934.54  1976.20  2017.56
                             2102.30  2133.84  2141.43  2170.50  2182.65
                             2494.89  4269.72  4278.92  4287.11  4331.05
                             4356.98  4358.10  4410.13  4489.98  4522.51
                             4638.78

 Zero-point correction=                           0.158995 (Hartree/Particle)
 Thermal correction to Energy=                    0.167347
 Thermal correction to Enthalpy=                  0.168291
 Thermal correction to Gibbs Free Energy=         0.125612
 Sum of electronic and zero-point Energies=           -422.980334
 Sum of electronic and thermal Energies=              -422.971983
 Sum of electronic and thermal Enthalpies=            -422.971039
 Sum of electronic and thermal Free Energies=         -423.013718

                     E (Thermal)             CV                S
                      KCal/Mol        Cal/Mol-Kelvin    Cal/Mol-Kelvin
 Total                  105.012             31.084             89.826
 Electronic               0.000              0.000              0.000
 Translational            0.889              2.981             40.409
 Rotational               0.889              2.981             28.714
 Vibrational            103.234             25.123             20.703
 Vibration     1          0.599              1.965              3.978
 Vibration     2          0.607              1.940              3.245
 Vibration     3          0.614              1.918              2.863
 Vibration     4          0.633              1.856              2.248
 Vibration     5          0.665              1.756              1.702
 Vibration     6          0.708              1.630              1.297
 Vibration     7          0.735              1.552              1.117
 Vibration     8          0.797              1.390              0.837
 Vibration     9          0.831              1.308              0.727

 Optimization completed.
    -- Stationary point found.
 Normal termination of Gaussian 09 at Tue Jan 28 12:20:52 2020.
