 Gaussian 09, Revision D.01,
 Gaussian 09:  ES64L-G09RevD.01 24-Apr-2013

 -----------------------------
 # b3lyp 6-31G(2df,p) opt Freq
 -----------------------------

 -----
 titel
 -----
 Symbolic Z-matrix:
 Charge =  0 Multiplicity = 1

 SCF Done:  E(RB3LYP) =  -423.183987510     A.U. after   14 cycles
 Optimization completed.
    -- Stationary point found.
 Normal termination of Gaussian 09 at Mon Jan 27 18:33:00 2020.

 ----------------------------------------------------------------------
 #N Geom=AllCheck Guess=TCheck SCRF=Check GenChk RB3LYP/6-31G(2df,p) Fr
 eq
 ----------------------------------------------------------------------

 Structure from the checkpoint file:  "/scratch/puck/g09_e4eb5b25-2976-4fe1-a48c-1c7928292336/Gau-171749.chk"
 -----
 titel
 -----
 Charge =  0 Multiplicity = 1

                         Standard orientation:
 ---------------------------------------------------------------------
 Center     Atomic      Atomic             Coordinates (Angstroms)
 Number     Number       Type             X           Y           Z
 ---------------------------------------------------------------------
      1          6           0        1.459917   -1.212141    1.202743
      2          6           0        0.851865   -0.490047    0.024154
      3          6           0        1.687987    0.529858   -0.780285
      4          6           0        0.502919    1.535933   -0.777429
      5          6           0       -0.315507    0.639341    0.190757
      6          8           0       -0.736740    1.272595    1.346281
      7          6           0       -1.254089   -0.379387   -0.416473
      8          8           0       -2.428293   -0.552806   -0.216598
      9          6           0       -0.123100   -1.307348   -0.883619
     10          1           0        1.905384   -0.502760    1.907599
     11          1           0        0.709041   -1.795570    1.747418
     12          1           0        2.246511   -1.904954    0.880265
     13          1           0        2.546705    0.904438   -0.216738
     14          1           0        2.041257    0.186840   -1.756636
     15          1           0        0.730030    2.488353   -0.295444
     16          1           0        0.030977    1.740500   -1.741545
     17          1           0       -1.559425    0.848045    1.624059
     18          1           0       -0.287177   -2.347852   -0.591361
     19          1           0        0.097008   -1.272606   -1.954164
 ---------------------------------------------------------------------

 SCF Done:  E(RB3LYP) =  -423.183987510     A.U. after    1 cycles

 The electronic state is 1-A.
 Alpha  occ. eigenvalues --  -19.15274 -19.14009 -10.26799 -10.24030 -10.20594
 Alpha  occ. eigenvalues --  -10.19433 -10.19291 -10.18951 -10.18403  -1.05564
 Alpha  occ. eigenvalues --   -1.03083  -0.87643  -0.75774  -0.73076  -0.66694
 Alpha  occ. eigenvalues --   -0.61933  -0.56691  -0.54451  -0.48805  -0.48118
 Alpha  occ. eigenvalues --   -0.45814  -0.44920  -0.42950  -0.41985  -0.40667
 Alpha  occ. eigenvalues --   -0.39758  -0.37734  -0.36472  -0.35325  -0.33845
 Alpha  occ. eigenvalues --   -0.32891  -0.30768  -0.25494  -0.24123
 Alpha virt. eigenvalues --   -0.02285   0.06926   0.09177   0.10567   0.10885
 Alpha virt. eigenvalues --    0.12469   0.14292   0.14412   0.15572   0.16371
 Alpha virt. eigenvalues --    0.17759   0.18098   0.19939   0.21105   0.22320

 Mulliken charges:
               1
     1  C   -0.488259
     2  C    0.272341
     3  C   -0.273360
     4  C   -0.284156
     5  C    0.293660
     6  O   -0.470713
     7  C    0.318756
     8  O   -0.326118
     9  C   -0.404705
    10  H    0.127578
    11  H    0.118965
    12  H    0.121934
    13  H    0.106492
    14  H    0.099238
    15  H    0.128127
    16  H    0.111289
    17  H    0.294454
    18  H    0.131429
    19  H    0.123047
 Sum of Mulliken charges =   0.00000

 Dipole moment (field-independent basis, Debye):
    X=              2.2561    Y=             -0.5405    Z=             -0.5368  Tot=              2.3812
 Quadrupole moment (field-independent basis, Debye-Ang):
   XX=            -58.7333   YY=            -53.5338   ZZ=            -51.5184
   XY=             -1.4236   XZ=             -1.9283   YZ=             -1.6962

  Exact polarizability:  83.245   1.115  75.258  -2.009   0.556  69.391
 Approx polarizability: 127.192   2.642 107.878  -4.654   4.512 103.008

                      1                      2                      3
                      A                      A                      A
 Frequencies --     67.7751               141.1989               165.4030
 Red. masses --      4.1880                 2.4141                 2.6074
 Frc consts  --      0.0113                 0.0284                 0.0420
 IR Inten    --      2.9169                 5.8387                 0.6656

                      4                      5                      6
                      A                      A                      A
 Frequencies --    186.2442               242.0492               317.1726
 Red. masses --      1.1607                 2.4130                 2.2508
 Frc consts  --      0.0237                 0.0833                 0.1334
 IR Inten    --      0.4132                27.6301                 2.3181

                      7                      8                      9
                      A                      A                      A
 Frequencies --    345.7203               373.1659               426.6694
 Red. masses --      2.1064                 1.7382                 2.6821
 Frc consts  --      0.1483                 0.1426                 0.2877
 IR Inten    --      1.4683                45.8655                 2.6960

                     10                     11                     12
                      A                      A                      A
 Frequencies --    478.5960               518.5860               609.9896
 Red. masses --      3.1611                 2.9997                 3.5278
 Frc consts  --      0.4266                 0.4753                 0.7734
 IR Inten    --      5.7478                 0.9381                 1.9017

                     13                     14                     15
                      A                      A                      A
 Frequencies --    636.3321               697.8374               740.6122
 Red. masses --      2.6874                 4.2808                 1.4076
 Frc consts  --      0.6411                 1.2282                 0.4549
 IR Inten    --      1.8381                 1.4933                 5.2277

                     16                     17                     18
                      A                      A                      A
 Frequencies --    814.5458               839.9341               890.3852
 Red. masses --      3.0070                 2.5013                 2.5825
 Frc consts  --      1.1755                 1.0397                 1.2063
 IR Inten    --     12.1851                 5.9672                 2.0759

                     19                     20                     21
                      A                      A                      A
 Frequencies --    947.9046               959.2731               993.1284
 Red. masses --      1.7518                 2.6469                 1.8595
 Frc consts  --      0.9274                 1.4351                 1.0806
 IR Inten    --      2.1763                 1.2618                 0.5528

                     22                     23                     24
                      A                      A                      A
 Frequencies --   1021.6016              1034.7192              1081.8190
 Red. masses --      1.4767                 3.4153                 1.5843
 Frc consts  --      0.9080                 2.1544                 1.0925
 IR Inten    --      7.5460                11.3592                19.7574

                     25                     26                     27
                      A                      A                      A
 Frequencies --   1114.0783              1129.1716              1200.6333
 Red. masses --      1.7989                 2.5604                 1.4420
 Frc consts  --      1.3155                 1.9234                 1.2247
 IR Inten    --     33.7947                96.1612                 0.7500

                     28                     29                     30
                      A                      A                      A
 Frequencies --   1216.1533              1230.2639              1248.8035
 Red. masses --      1.4615                 2.1205                 1.5964
 Frc consts  --      1.2736                 1.8910                 1.4668
 IR Inten    --     11.5291                 3.9682                 3.2234

                     31                     32                     33
                      A                      A                      A
 Frequencies --   1267.0532              1317.0061              1338.8693
 Red. masses --      1.5993                 2.7310                 3.1075
 Frc consts  --      1.5128                 2.7909                 3.2820
 IR Inten    --      5.2791                20.8059                17.5371

                     34                     35                     36
                      A                      A                      A
 Frequencies --   1381.1905              1413.9905              1447.1763
 Red. masses --      1.5295                 1.2933                 1.1026
 Frc consts  --      1.7191                 1.5235                 1.3605
 IR Inten    --     56.9599                 0.7323                14.0164

                     37                     38                     39
                      A                      A                      A
 Frequencies --   1471.2253              1488.0131              1490.8163
 Red. masses --      1.0840                 1.0591                 1.0506
 Frc consts  --      1.3824                 1.3817                 1.3758
 IR Inten    --      1.2417                 5.1548                 4.0253

                     40                     41                     42
                      A                      A                      A
 Frequencies --   1496.6017              1846.3890              3022.1706
 Red. masses --      1.1073                12.5923                 1.0359
 Frc consts  --      1.4613                25.2931                 5.5746
 IR Inten    --      0.9241               300.6287                26.6784

                     43                     44                     45
                      A                      A                      A
 Frequencies --   3053.8601              3060.5935              3069.0946
 Red. masses --      1.0581                 1.0589                 1.0615
 Frc consts  --      5.8139                 5.8441                 5.8911
 IR Inten    --     36.8667                10.2295                25.5751

                     46                     47                     48
                      A                      A                      A
 Frequencies --   3084.4771              3097.2588              3101.4521
 Red. masses --      1.1002                 1.1024                 1.1061
 Frc consts  --      6.1670                 6.2306                 6.2689
 IR Inten    --     18.4166                 9.6327                20.0538

                     49                     50                     51
                      A                      A                      A
 Frequencies --   3116.2683              3130.2345              3760.2077
 Red. masses --      1.1062                 1.1063                 1.0656
 Frc consts  --      6.3290                 6.3869                 8.8772
 IR Inten    --      8.2686                17.3354                35.3017

 - Thermochemistry -
 -------------------
 Temperature   298.150 Kelvin.  Pressure   1.00000 Atm.
 Atom     1 has atomic number  6 and mass  12.00000

 Molecular mass:   126.06808 amu.
 Principal axes and moments of inertia in atomic units:
                           1         2         3
     Eigenvalues --   819.460881110.822681261.10489
           X            0.99941  -0.03446   0.00150
           Y            0.03440   0.99292  -0.11367
           Z            0.00243   0.11366   0.99352
 This molecule is an asymmetric top.
 Rotational symmetry number  1.
 Warning -- assumption of classical behavior for rotation
           may cause significant error
 Rotational temperatures (Kelvin)      0.10570     0.07797     0.06868
 Rotational constants (GHZ):           2.20235     1.62469     1.43108
 Zero-point vibrational energy     413451.6 (Joules/Mol)
                                   98.81731 (Kcal/Mol)
 Warning -- explicit consideration of  12 degrees of freedom as
           vibrations may cause significant error
 Vibrational temperatures:     97.51   203.15   237.98   267.96   348.25
          (Kelvin)            456.34   497.41   536.90   613.88   688.59
                              746.13   877.64   915.54  1004.03  1065.57
                             1171.95  1208.48  1281.06  1363.82  1380.18
                             1428.89  1469.85  1488.73  1556.49  1602.91
                             1624.62  1727.44  1749.77  1770.07  1796.75
                             1823.00  1894.88  1926.33  1987.22  2034.41
                             2082.16  2116.76  2140.92  2144.95  2153.27
                             2656.54  4348.22  4393.82  4403.51  4415.74
                             4437.87  4456.26  4462.29  4483.61  4503.70
                             5410.09

 Zero-point correction=                           0.157475 (Hartree/Particle)
 Thermal correction to Energy=                    0.166405
 Thermal correction to Enthalpy=                  0.167349
 Thermal correction to Gibbs Free Energy=         0.124030
 Sum of electronic and zero-point Energies=           -423.026512
 Sum of electronic and thermal Energies=              -423.017582
 Sum of electronic and thermal Enthalpies=            -423.016638
 Sum of electronic and thermal Free Energies=         -423.059958

                     E (Thermal)             CV                S
                      KCal/Mol        Cal/Mol-Kelvin    Cal/Mol-Kelvin
 Total                  104.421             33.911             91.173
 Electronic               0.000              0.000              0.000
 Translational            0.889              2.981             40.409
 Rotational               0.889              2.981             28.531
 Vibrational            102.643             27.950             22.234
 Vibration     1          0.598              1.970              4.217
 Vibration     2          0.615              1.912              2.788
 Vibration     3          0.624              1.885              2.487
 Vibration     4          0.632              1.859              2.265
 Vibration     5          0.658              1.776              1.788
 Vibration     6          0.704              1.641              1.325
 Vibration     7          0.724              1.584              1.186
 Vibration     8          0.745              1.527              1.067
 Vibration     9          0.788              1.412              0.870
 Vibration    10          0.835              1.298              0.714
 Vibration    11          0.874              1.209              0.613
 Vibration    12          0.969              1.011              0.433

 Optimization completed.
    -- Stationary point found.
 Normal termination of Gaussian 09 at Mon Jan 27 19:17:40 2020.
