 Gaussian 09, Revision D.01,
 Gaussian 09:  ES64L-G09RevD.01 24-Apr-2013

 -----------------------------
 # b3lyp 6-31G(2df,p) opt Freq
 -----------------------------

 -----
 titel
 -----
 Symbolic Z-matrix:
 Charge =  0 Multiplicity = 1

 SCF Done:  E(RB3LYP) =  -423.227995512     A.U. after   14 cycles
 Optimization completed.
    -- Stationary point found.
 Normal termination of Gaussian 09 at Tue Jan 28 00:39:36 2020.

 ----------------------------------------------------------------------
 #N Geom=AllCheck Guess=TCheck SCRF=Check GenChk RB3LYP/6-31G(2df,p) Fr
 eq
 ----------------------------------------------------------------------

 Structure from the checkpoint file:  "/scratch/puck/g09_cec2c23b-5615-428c-aa41-b5a2e3e6fa93/Gau-71560.chk"
 -----
 titel
 -----
 Charge =  0 Multiplicity = 1

                         Standard orientation:
 ---------------------------------------------------------------------
 Center     Atomic      Atomic             Coordinates (Angstroms)
 Number     Number       Type             X           Y           Z
 ---------------------------------------------------------------------
      1          6           0        0.400166    2.167262    0.449819
      2          6           0        0.235471    0.972939   -0.483944
      3          8           0       -1.175067    0.704830   -0.665501
      4          6           0       -1.575052   -0.393908    0.032184
      5          8           0       -2.712783   -0.761893    0.049363
      6          6           0       -0.368289   -1.005041    0.739545
      7          6           0        0.804193   -0.347125    0.041771
      8          6           0        2.233054   -0.498671    0.473383
      9          6           0        1.755869   -1.158870   -0.799248
     10          1           0        0.029705    1.936985    1.453628
     11          1           0        1.454349    2.448322    0.529486
     12          1           0       -0.158601    3.024579    0.065545
     13          1           0        0.632356    1.215389   -1.474715
     14          1           0       -0.431070   -0.748152    1.804291
     15          1           0       -0.396739   -2.093224    0.662478
     16          1           0        2.893332    0.357967    0.384140
     17          1           0        2.441074   -1.127053    1.333055
     18          1           0        2.088475   -0.740414   -1.743835
     19          1           0        1.637446   -2.237404   -0.806030
 ---------------------------------------------------------------------

 SCF Done:  E(RB3LYP) =  -423.227995512     A.U. after    1 cycles

 The electronic state is 1-A.
 Alpha  occ. eigenvalues --  -19.17611 -19.11740 -10.30050 -10.25434 -10.21546
 Alpha  occ. eigenvalues --  -10.20416 -10.20208 -10.19987 -10.18936  -1.09474
 Alpha  occ. eigenvalues --   -1.01649  -0.88192  -0.77085  -0.75985  -0.65905
 Alpha  occ. eigenvalues --   -0.61733  -0.58983  -0.55064  -0.50922  -0.48749
 Alpha  occ. eigenvalues --   -0.48313  -0.47119  -0.43039  -0.42245  -0.41487
 Alpha  occ. eigenvalues --   -0.40055  -0.38282  -0.37584  -0.36540  -0.34608
 Alpha  occ. eigenvalues --   -0.31224  -0.29808  -0.28613  -0.25996
 Alpha virt. eigenvalues --    0.01751   0.07385   0.08828   0.09444   0.09912
 Alpha virt. eigenvalues --    0.11818   0.12935   0.14693   0.16183   0.17050
 Alpha virt. eigenvalues --    0.17886   0.18307   0.20574   0.20999   0.22861

 Mulliken charges:
               1
     1  C   -0.391869
     2  C    0.040999
     3  O   -0.227670
     4  C    0.434047
     5  O   -0.336960
     6  C   -0.460029
     7  C    0.353300
     8  C   -0.328035
     9  C   -0.315843
    10  H    0.123598
    11  H    0.121564
    12  H    0.135292
    13  H    0.097054
    14  H    0.137693
    15  H    0.139392
    16  H    0.117731
    17  H    0.120436
    18  H    0.119078
    19  H    0.120222
 Sum of Mulliken charges =   0.00000

 Dipole moment (field-independent basis, Debye):
    X=              4.3360    Y=              0.4644    Z=              0.7246  Tot=              4.4206
 Quadrupole moment (field-independent basis, Debye-Ang):
   XX=            -64.5061   YY=            -50.6357   ZZ=            -51.5711
   XY=             -1.2568   XZ=             -1.5831   YZ=             -0.3368

  Exact polarizability:  84.437   3.080  76.161  -1.620  -1.137  64.756
 Approx polarizability: 120.561   8.132 106.436  -2.049  -3.524  99.752

                      1                      2                      3
                      A                      A                      A
 Frequencies --     83.1110               113.5462               216.7579
 Red. masses --      3.1614                 5.0246                 1.9532
 Frc consts  --      0.0129                 0.0382                 0.0541
 IR Inten    --      3.2700                 0.3340                 0.0656

                      4                      5                      6
                      A                      A                      A
 Frequencies --    239.3245               275.0627               303.3053
 Red. masses --      1.1670                 2.7449                 2.2065
 Frc consts  --      0.0394                 0.1224                 0.1196
 IR Inten    --      0.2228                 1.9736                 0.9286

                      7                      8                      9
                      A                      A                      A
 Frequencies --    375.3525               483.5739               511.0846
 Red. masses --      3.0990                 3.8237                 2.9354
 Frc consts  --      0.2572                 0.5268                 0.4517
 IR Inten    --      1.0344                 4.2351                 2.5835

                     10                     11                     12
                      A                      A                      A
 Frequencies --    520.0709               571.1061               684.1848
 Red. masses --      4.6972                 2.9591                 5.1344
 Frc consts  --      0.7485                 0.5686                 1.4161
 IR Inten    --      2.1208                 6.1627                 3.1623

                     13                     14                     15
                      A                      A                      A
 Frequencies --    759.2987               784.4228               829.6994
 Red. masses --      1.8787                 1.1985                 3.7594
 Frc consts  --      0.6382                 0.4345                 1.5248
 IR Inten    --      1.5559                 0.2931                 5.7699

                     16                     17                     18
                      A                      A                      A
 Frequencies --    863.5791               923.6376               930.7653
 Red. masses --      2.3099                 2.2083                 1.5034
 Frc consts  --      1.0149                 1.1100                 0.7674
 IR Inten    --      2.1804                 9.4168                 3.1509

                     19                     20                     21
                      A                      A                      A
 Frequencies --    969.1505               988.6828              1017.2909
 Red. masses --      2.3520                 2.2759                 2.0177
 Frc consts  --      1.3016                 1.3107                 1.2303
 IR Inten    --     36.1197                 6.2560                 3.1534

                     22                     23                     24
                      A                      A                      A
 Frequencies --   1054.9960              1061.2075              1086.2045
 Red. masses --      1.9767                 1.5273                 1.4417
 Frc consts  --      1.2963                 1.0134                 1.0022
 IR Inten    --     10.0405                 6.4936                 8.4979

                     25                     26                     27
                      A                      A                      A
 Frequencies --   1095.2843              1132.6723              1163.0082
 Red. masses --      2.4765                 2.1862                 2.5335
 Frc consts  --      1.7504                 1.6526                 2.0190
 IR Inten    --     94.9069                 6.9035               140.7739

                     28                     29                     30
                      A                      A                      A
 Frequencies --   1181.2792              1189.3207              1256.6955
 Red. masses --      1.4420                 1.3151                 1.4793
 Frc consts  --      1.1855                 1.0960                 1.3765
 IR Inten    --     32.8116                 0.7478                 0.2503

                     31                     32                     33
                      A                      A                      A
 Frequencies --   1302.8518              1319.3912              1373.5389
 Red. masses --      3.1043                 1.8947                 1.3041
 Frc consts  --      3.1046                 1.9433                 1.4495
 IR Inten    --      3.0101                50.2962                 4.7961

                     34                     35                     36
                      A                      A                      A
 Frequencies --   1401.0937              1409.2497              1464.3243
 Red. masses --      2.0379                 1.2718                 1.0976
 Frc consts  --      2.3570                 1.4881                 1.3866
 IR Inten    --      9.9494                 7.5348                 8.2544

                     37                     38                     39
                      A                      A                      A
 Frequencies --   1469.0781              1487.0672              1492.9518
 Red. masses --      1.0983                 1.0601                 1.0602
 Frc consts  --      1.3965                 1.3812                 1.3923
 IR Inten    --      3.7265                 0.9256                 3.8557

                     40                     41                     42
                      A                      A                      A
 Frequencies --   1507.0498              1884.0833              3040.1680
 Red. masses --      1.4445                12.8711                 1.0633
 Frc consts  --      1.9329                26.9195                 5.7901
 IR Inten    --      1.0866               416.4880                 8.8771

                     43                     44                     45
                      A                      A                      A
 Frequencies --   3043.9910              3058.1367              3116.9294
 Red. masses --      1.0400                 1.0864                 1.0983
 Frc consts  --      5.6778                 5.9864                 6.2868
 IR Inten    --     12.7525                18.5807                22.0165

                     46                     47                     48
                      A                      A                      A
 Frequencies --   3118.3725              3124.6639              3125.5699
 Red. masses --      1.0970                 1.0705                 1.0816
 Frc consts  --      6.2853                 6.1583                 6.2254
 IR Inten    --      8.0524                12.6587                17.9446

                     49                     50                     51
                      A                      A                      A
 Frequencies --   3129.7487              3203.8667              3218.3147
 Red. masses --      1.0585                 1.1180                 1.1156
 Frc consts  --      6.1087                 6.7613                 6.8079
 IR Inten    --     11.9753                 0.0045                14.9014

 - Thermochemistry -
 -------------------
 Temperature   298.150 Kelvin.  Pressure   1.00000 Atm.
 Atom     1 has atomic number  6 and mass  12.00000

 Molecular mass:   126.06808 amu.
 Principal axes and moments of inertia in atomic units:
                           1         2         3
     Eigenvalues --   697.093011233.006111621.31712
           X            0.99992  -0.01106  -0.00618
           Y            0.01115   0.99984   0.01418
           Z            0.00602  -0.01425   0.99988
 This molecule is an asymmetric top.
 Rotational symmetry number  1.
 Warning -- assumption of classical behavior for rotation
           may cause significant error
 Rotational temperatures (Kelvin)      0.12425     0.07025     0.05342
 Rotational constants (GHZ):           2.58895     1.46369     1.11313
 Zero-point vibrational energy     418418.5 (Joules/Mol)
                                  100.00443 (Kcal/Mol)
 Warning -- explicit consideration of  11 degrees of freedom as
           vibrations may cause significant error
 Vibrational temperatures:    119.58   163.37   311.87   344.33   395.75
          (Kelvin)            436.39   540.05   695.75   735.34   748.27
                              821.69   984.39  1092.46  1128.61  1193.75
                             1242.50  1328.91  1339.16  1394.39  1422.49
                             1463.65  1517.90  1526.84  1562.80  1575.87
                             1629.66  1673.31  1699.60  1711.17  1808.10
                             1874.51  1898.31  1976.21  2015.86  2027.59
                             2106.83  2113.67  2139.56  2148.02  2168.31
                             2710.77  4374.12  4379.62  4399.97  4484.56
                             4486.64  4495.69  4496.99  4503.00  4609.64
                             4630.43

 Zero-point correction=                           0.159367 (Hartree/Particle)
 Thermal correction to Energy=                    0.167664
 Thermal correction to Enthalpy=                  0.168608
 Thermal correction to Gibbs Free Energy=         0.126434
 Sum of electronic and zero-point Energies=           -423.068628
 Sum of electronic and thermal Energies=              -423.060332
 Sum of electronic and thermal Enthalpies=            -423.059388
 Sum of electronic and thermal Free Energies=         -423.101562

                     E (Thermal)             CV                S
                      KCal/Mol        Cal/Mol-Kelvin    Cal/Mol-Kelvin
 Total                  105.211             31.998             88.763
 Electronic               0.000              0.000              0.000
 Translational            0.889              2.981             40.409
 Rotational               0.889              2.981             28.723
 Vibrational            103.433             26.036             19.631
 Vibration     1          0.600              1.961              3.816
 Vibration     2          0.607              1.938              3.207
 Vibration     3          0.646              1.816              1.986
 Vibration     4          0.657              1.780              1.808
 Vibration     5          0.677              1.719              1.564
 Vibration     6          0.695              1.667              1.399
 Vibration     7          0.746              1.523              1.058
 Vibration     8          0.840              1.286              0.700
 Vibration     9          0.866              1.225              0.631
 Vibration    10          0.875              1.206              0.610
 Vibration    11          0.927              1.094              0.502

 Normal termination of Gaussian 09 at Tue Jan 28 01:22:28 2020.
