 Gaussian 09, Revision D.01,
 Gaussian 09:  ES64L-G09RevD.01 24-Apr-2013

 -----------------------------
 # b3lyp 6-31G(2df,p) opt Freq
 -----------------------------

 -----
 titel
 -----
 Symbolic Z-matrix:
 Charge =  0 Multiplicity = 1

 SCF Done:  E(RB3LYP) =  -423.186807730     A.U. after   13 cycles
 Optimization completed.
    -- Stationary point found.
 Normal termination of Gaussian 09 at Mon Jan 27 22:07:03 2020.

 ----------------------------------------------------------------------
 #N Geom=AllCheck Guess=TCheck SCRF=Check GenChk RB3LYP/6-31G(2df,p) Fr
 eq
 ----------------------------------------------------------------------

 Structure from the checkpoint file:  "/scratch/puck/g09_266a09b1-1001-4b33-8534-7f2bdfaa124d/Gau-116802.chk"
 -----
 titel
 -----
 Charge =  0 Multiplicity = 1

                         Standard orientation:
 ---------------------------------------------------------------------
 Center     Atomic      Atomic             Coordinates (Angstroms)
 Number     Number       Type             X           Y           Z
 ---------------------------------------------------------------------
      1          6           0       -2.568790   -0.569963   -0.005701
      2          6           0       -1.205473   -0.297067   -0.636687
      3          6           0       -0.705911    1.140331   -0.469869
      4          6           0        0.085699    1.119572    0.814201
      5          8           0        0.067189   -0.202878    1.339315
      6          6           0       -0.003944   -0.934715    0.097103
      7          6           0        1.220617   -0.367385   -0.663860
      8          8           0        2.458798   -0.697926   -0.081055
      9          6           0        0.821974    1.099982   -0.504274
     10          1           0       -3.345119    0.047251   -0.469924
     11          1           0       -2.859113   -1.618553   -0.130132
     12          1           0       -2.548842   -0.346013    1.064221
     13          1           0       -1.203192   -0.603815   -1.688800
     14          1           0       -1.277378    2.002533   -0.788169
     15          1           0        0.121960    1.902352    1.557556
     16          1           0       -0.016203   -2.003842    0.298514
     17          1           0        1.257185   -0.702188   -1.703528
     18          1           0        2.359890   -0.531526    0.865289
     19          1           0        1.437883    1.915697   -0.856590
 ---------------------------------------------------------------------

 SCF Done:  E(RB3LYP) =  -423.186807730     A.U. after    1 cycles

 The electronic state is 1-A.
 Alpha  occ. eigenvalues --  -19.15092 -19.13111 -10.23557 -10.23187 -10.23016
 Alpha  occ. eigenvalues --  -10.19479 -10.19388 -10.18849 -10.17473  -1.06381
 Alpha  occ. eigenvalues --   -1.01068  -0.86125  -0.77706  -0.72862  -0.65421
 Alpha  occ. eigenvalues --   -0.59560  -0.57334  -0.56068  -0.53817  -0.49752
 Alpha  occ. eigenvalues --   -0.46358  -0.45287  -0.41287  -0.40572  -0.39484
 Alpha  occ. eigenvalues --   -0.38518  -0.38365  -0.36185  -0.34545  -0.33056
 Alpha  occ. eigenvalues --   -0.30999  -0.28791  -0.26514  -0.23489
 Alpha virt. eigenvalues --    0.08887   0.09633   0.11746   0.12410   0.13739
 Alpha virt. eigenvalues --    0.14030   0.14302   0.15509   0.16387   0.17164
 Alpha virt. eigenvalues --    0.17381   0.18543   0.19071   0.21077   0.22812

 Mulliken charges:
               1
     1  C   -0.412698
     2  C    0.013235
     3  C   -0.117008
     4  C    0.075635
     5  O   -0.276727
     6  C   -0.012747
     7  C    0.169098
     8  O   -0.453953
     9  C   -0.169941
    10  H    0.112000
    11  H    0.112224
    12  H    0.133644
    13  H    0.077726
    14  H    0.090206
    15  H    0.106028
    16  H    0.082802
    17  H    0.089536
    18  H    0.285743
    19  H    0.095197
 Sum of Mulliken charges =   0.00000

 Dipole moment (field-independent basis, Debye):
    X=             -1.4188    Y=              1.0039    Z=             -0.5434  Tot=              1.8210
 Quadrupole moment (field-independent basis, Debye-Ang):
   XX=            -57.6270   YY=            -49.9198   ZZ=            -53.2033
   XY=              2.0316   XZ=              2.6603   YZ=              0.9861

  Exact polarizability:  80.835   1.055  71.324   0.958   1.191  65.572
 Approx polarizability: 110.015  -1.067 105.213   1.718   1.063 107.819

                      1                      2                      3
                      A                      A                      A
 Frequencies --    175.5633               212.4923               231.5251
 Red. masses --      3.3340                 1.0668                 3.2554
 Frc consts  --      0.0605                 0.0284                 0.1028
 IR Inten    --      1.8244                 0.1157                 4.7728

                      4                      5                      6
                      A                      A                      A
 Frequencies --    244.0099               348.2217               444.3586
 Red. masses --      3.4993                 2.7467                 1.2455
 Frc consts  --      0.1228                 0.1962                 0.1449
 IR Inten    --      1.7961                 6.0802                72.7387

                      7                      8                      9
                      A                      A                      A
 Frequencies --    469.2620               556.5773               611.3757
 Red. masses --      4.2446                 3.9456                 4.7973
 Frc consts  --      0.5507                 0.7201                 1.0565
 IR Inten    --      0.9954                 0.2644                 9.3710

                     10                     11                     12
                      A                      A                      A
 Frequencies --    717.2618               747.4391               805.8188
 Red. masses --      3.1439                 5.0181                 1.5486
 Frc consts  --      0.9529                 1.6517                 0.5925
 IR Inten    --      3.8402                 3.5137                13.8145

                     13                     14                     15
                      A                      A                      A
 Frequencies --    813.8894               819.1104               861.3121
 Red. masses --      3.8988                 1.6066                 2.4569
 Frc consts  --      1.5216                 0.6351                 1.0739
 IR Inten    --     15.2551                21.1585                 4.8183

                     16                     17                     18
                      A                      A                      A
 Frequencies --    903.7477               931.9250               959.3880
 Red. masses --      2.3953                 2.5128                 3.1060
 Frc consts  --      1.1527                 1.2858                 1.6844
 IR Inten    --      6.6742                23.4766                 8.0680

                     19                     20                     21
                      A                      A                      A
 Frequencies --    979.7993              1000.1652              1006.7569
 Red. masses --      2.4035                 1.7473                 2.7485
 Frc consts  --      1.3595                 1.0298                 1.6413
 IR Inten    --      7.6536                 0.8545                23.4070

                     22                     23                     24
                      A                      A                      A
 Frequencies --   1041.7182              1051.5620              1061.7405
 Red. masses --      1.5056                 2.1211                 1.3512
 Frc consts  --      0.9626                 1.3819                 0.8975
 IR Inten    --      4.9497                32.1668                 2.2205

                     25                     26                     27
                      A                      A                      A
 Frequencies --   1082.2879              1095.7807              1115.0651
 Red. masses --      1.9734                 1.8733                 1.7829
 Frc consts  --      1.3619                 1.3253                 1.3061
 IR Inten    --     15.2356                22.1576                40.5197

                     28                     29                     30
                      A                      A                      A
 Frequencies --   1135.7824              1201.1109              1237.2349
 Red. masses --      2.5406                 1.5544                 1.5678
 Frc consts  --      1.9309                 1.3212                 1.4140
 IR Inten    --     61.4111                 1.9426                 4.6712

                     31                     32                     33
                      A                      A                      A
 Frequencies --   1253.8356              1267.0207              1277.3553
 Red. masses --      1.5097                 1.6946                 1.4178
 Frc consts  --      1.3984                 1.6028                 1.3629
 IR Inten    --      2.1848                 4.5096                10.5465

                     34                     35                     36
                      A                      A                      A
 Frequencies --   1303.4700              1331.1871              1374.7242
 Red. masses --      1.5707                 1.7965                 1.6304
 Frc consts  --      1.5723                 1.8757                 1.8155
 IR Inten    --      4.3612                 5.1198                 6.3920

                     37                     38                     39
                      A                      A                      A
 Frequencies --   1386.1077              1406.7517              1439.5566
 Red. masses --      2.1426                 1.2543                 1.2712
 Frc consts  --      2.4254                 1.4625                 1.5521
 IR Inten    --      7.8843                 4.8765                86.5748

                     40                     41                     42
                      A                      A                      A
 Frequencies --   1495.1390              1502.3450              3034.9806
 Red. masses --      1.0455                 1.0504                 1.0378
 Frc consts  --      1.3770                 1.3969                 5.6324
 IR Inten    --      4.1188                 3.5250                29.0883

                     43                     44                     45
                      A                      A                      A
 Frequencies --   3044.2092              3088.9202              3097.3729
 Red. masses --      1.0818                 1.0865                 1.1013
 Frc consts  --      5.9069                 6.1078                 6.2250
 IR Inten    --     17.3186                27.5981                22.9903

                     46                     47                     48
                      A                      A                      A
 Frequencies --   3120.9046              3151.8184              3198.8743
 Red. masses --      1.1006                 1.0909                 1.0914
 Frc consts  --      6.3158                 6.3851                 6.5801
 IR Inten    --     20.3175                20.9343                 8.5295

                     49                     50                     51
                      A                      A                      A
 Frequencies --   3215.0920              3231.6925              3775.2228
 Red. masses --      1.0920                 1.0974                 1.0650
 Frc consts  --      6.6507                 6.7527                 8.9428
 IR Inten    --      5.5907                10.2502                21.3441

 - Thermochemistry -
 -------------------
 Temperature   298.150 Kelvin.  Pressure   1.00000 Atm.
 Atom     1 has atomic number  6 and mass  12.00000

 Molecular mass:   126.06808 amu.
 Principal axes and moments of inertia in atomic units:
                           1         2         3
     Eigenvalues --   551.490261172.195831263.03118
           X            0.99967   0.02486   0.00667
           Y           -0.02504   0.99926   0.02911
           Z           -0.00594  -0.02926   0.99955
 This molecule is an asymmetric top.
 Rotational symmetry number  1.
 Warning -- assumption of classical behavior for rotation
           may cause significant error
 Rotational temperatures (Kelvin)      0.15705     0.07389     0.06858
 Rotational constants (GHZ):           3.27248     1.53962     1.42890
 Zero-point vibrational energy     423830.1 (Joules/Mol)
                                  101.29783 (Kcal/Mol)
 Warning -- explicit consideration of   9 degrees of freedom as
           vibrations may cause significant error
 Vibrational temperatures:    252.60   305.73   333.11   351.08   501.01
          (Kelvin)            639.33   675.16   800.79   879.63  1031.98
                             1075.40  1159.39  1171.00  1178.52  1239.23
                             1300.29  1340.83  1380.34  1409.71  1439.01
                             1448.50  1498.80  1512.96  1527.61  1557.17
                             1576.58  1604.33  1634.14  1728.13  1780.10
                             1803.99  1822.96  1837.83  1875.40  1915.28
                             1977.92  1994.30  2024.00  2071.20  2151.17
                             2161.54  4366.65  4379.93  4444.26  4456.42
                             4490.28  4534.76  4602.46  4625.79  4649.68
                             5431.70

 Zero-point correction=                           0.161428 (Hartree/Particle)
 Thermal correction to Energy=                    0.168692
 Thermal correction to Enthalpy=                  0.169636
 Thermal correction to Gibbs Free Energy=         0.130168
 Sum of electronic and zero-point Energies=           -423.025379
 Sum of electronic and thermal Energies=              -423.018116
 Sum of electronic and thermal Enthalpies=            -423.017172
 Sum of electronic and thermal Free Energies=         -423.056639

                     E (Thermal)             CV                S
                      KCal/Mol        Cal/Mol-Kelvin    Cal/Mol-Kelvin
 Total                  105.856             29.936             83.066
 Electronic               0.000              0.000              0.000
 Translational            0.889              2.981             40.409
 Rotational               0.889              2.981             28.192
 Vibrational            104.078             23.974             14.466
 Vibration     1          0.628              1.872              2.375
 Vibration     2          0.644              1.822              2.022
 Vibration     3          0.653              1.793              1.867
 Vibration     4          0.659              1.773              1.773
 Vibration     5          0.726              1.579              1.174
 Vibration     6          0.804              1.373              0.813
 Vibration     7          0.826              1.318              0.740
 Vibration     8          0.912              1.125              0.531
 Vibration     9          0.971              1.008              0.431

 Normal termination of Gaussian 09 at Mon Jan 27 23:04:49 2020.
