 Gaussian 09, Revision D.01,
 Gaussian 09:  ES64L-G09RevD.01 24-Apr-2013

 -----------------------------
 # b3lyp 6-31G(2df,p) opt Freq
 -----------------------------

 -----
 titel
 -----
 Symbolic Z-matrix:
 Charge =  0 Multiplicity = 1

 SCF Done:  E(RB3LYP) =  -423.156331317     A.U. after   14 cycles
 Optimization completed.
    -- Stationary point found.
 Normal termination of Gaussian 09 at Mon Jan 27 14:29:30 2020.

 ----------------------------------------------------------------------
 #N Geom=AllCheck Guess=TCheck SCRF=Check GenChk RB3LYP/6-31G(2df,p) Fr
 eq
 ----------------------------------------------------------------------

 Structure from the checkpoint file:  "/scratch/puck/g09_ee176bd9-d966-4e1a-89a4-46a39d5dd05b/Gau-30973.chk"
 -----
 titel
 -----
 Charge =  0 Multiplicity = 1

                         Standard orientation:
 ---------------------------------------------------------------------
 Center     Atomic      Atomic             Coordinates (Angstroms)
 Number     Number       Type             X           Y           Z
 ---------------------------------------------------------------------
      1          6           0       -2.144854   -1.181598   -0.863211
      2          6           0       -1.168842   -0.357009   -0.004270
      3          8           0       -1.210106   -0.809509    1.354425
      4          6           0        0.283589   -0.590530   -0.470138
      5          6           0        1.324202    0.183380    0.352180
      6          6           0        2.730628   -0.272434    0.048271
      7          8           0        3.637790    0.445670   -0.285033
      8          6           0       -1.527772    1.068508   -0.075052
      9          6           0       -1.861888    2.222704   -0.117819
     10          1           0       -2.095975   -0.881207   -1.913625
     11          1           0       -1.893757   -2.242552   -0.779955
     12          1           0       -3.172071   -1.036297   -0.516370
     13          1           0       -2.029985   -0.492049    1.747435
     14          1           0        0.470899   -1.668101   -0.387272
     15          1           0        0.359994   -0.325181   -1.529291
     16          1           0        1.253671    1.260609    0.184804
     17          1           0        1.131022   -0.016748    1.414422
     18          1           0        2.886909   -1.372609    0.160777
     19          1           0       -2.142560    3.246728   -0.155820
 ---------------------------------------------------------------------

 SCF Done:  E(RB3LYP) =  -423.156331317     A.U. after    1 cycles

 The electronic state is 1-A.
 Alpha  occ. eigenvalues --  -19.15186 -19.13401 -10.27398 -10.26657 -10.20142
 Alpha  occ. eigenvalues --  -10.19136 -10.18945 -10.18866 -10.18786  -1.04085
 Alpha  occ. eigenvalues --   -1.03654  -0.82054  -0.76921  -0.73807  -0.67419
 Alpha  occ. eigenvalues --   -0.61907  -0.57147  -0.55961  -0.51741  -0.47687
 Alpha  occ. eigenvalues --   -0.46233  -0.45437  -0.42952  -0.42094  -0.40735
 Alpha  occ. eigenvalues --   -0.39351  -0.38309  -0.35884  -0.35590  -0.34597
 Alpha  occ. eigenvalues --   -0.29897  -0.28129  -0.27530  -0.24587
 Alpha virt. eigenvalues --   -0.01614   0.02767   0.04352   0.07203   0.11334
 Alpha virt. eigenvalues --    0.11827   0.12190   0.13004   0.14787   0.14941
 Alpha virt. eigenvalues --    0.16152   0.18439   0.19086   0.21147   0.21611

 Mulliken charges:
               1
     1  C   -0.411766
     2  C    0.161491
     3  O   -0.442673
     4  C   -0.205532
     5  C   -0.281759
     6  C    0.155926
     7  O   -0.240175
     8  C    0.335357
     9  C   -0.501796
    10  H    0.128101
    11  H    0.125889
    12  H    0.118827
    13  H    0.287521
    14  H    0.110826
    15  H    0.117934
    16  H    0.128686
    17  H    0.139728
    18  H    0.067727
    19  H    0.205690
 Sum of Mulliken charges =   0.00000

 Dipole moment (field-independent basis, Debye):
    X=             -3.5867    Y=             -0.6296    Z=              0.1303  Tot=              3.6438
 Quadrupole moment (field-independent basis, Debye-Ang):
   XX=            -62.1177   YY=            -49.8669   ZZ=            -52.6386
   XY=             -5.3105   XZ=              0.7158   YZ=              1.4795

  Exact polarizability:  87.229  -4.397  88.304  -1.096  -0.875  60.509
 Approx polarizability: 112.031  -6.032 140.891  -4.856  -6.525  92.609

                      1                      2                      3
                      A                      A                      A
 Frequencies --     53.2675                62.6062                99.7602
 Red. masses --      4.7584                 3.4363                 2.7297
 Frc consts  --      0.0080                 0.0079                 0.0160
 IR Inten    --      2.4403                 5.2449                 0.9567

                      4                      5                      6
                      A                      A                      A
 Frequencies --    157.4558               184.4847               192.4433
 Red. masses --      3.0083                 2.8331                 2.9194
 Frc consts  --      0.0439                 0.0568                 0.0637
 IR Inten    --      1.8810                 1.7852                 1.0541

                      7                      8                      9
                      A                      A                      A
 Frequencies --    238.9607               267.9708               303.6641
 Red. masses --      1.0783                 1.1450                 3.6983
 Frc consts  --      0.0363                 0.0484                 0.2009
 IR Inten    --      0.8803                91.0472                 3.0202

                     10                     11                     12
                      A                      A                      A
 Frequencies --    349.1599               406.7288               412.9475
 Red. masses --      2.8988                 2.9830                 3.8899
 Frc consts  --      0.2082                 0.2907                 0.3908
 IR Inten    --      3.0750                 7.5833                 1.5697

                     13                     14                     15
                      A                      A                      A
 Frequencies --    521.2466               572.0753               605.1093
 Red. masses --      2.6921                 5.3226                 4.0634
 Frc consts  --      0.4309                 1.0263                 0.8766
 IR Inten    --     21.9469                11.2570                 4.7964

                     16                     17                     18
                      A                      A                      A
 Frequencies --    640.7528               671.9645               725.2162
 Red. masses --      1.2304                 1.2530                 3.6407
 Frc consts  --      0.2976                 0.3333                 1.1282
 IR Inten    --     44.2283                35.4215                 4.6879

                     19                     20                     21
                      A                      A                      A
 Frequencies --    773.8217               844.3345               929.6293
 Red. masses --      1.4573                 1.6625                 2.2835
 Frc consts  --      0.5141                 0.6983                 1.1627
 IR Inten    --      1.4451                 1.9037                27.3243

                     22                     23                     24
                      A                      A                      A
 Frequencies --    937.4679              1017.5968              1053.0060
 Red. masses --      1.8417                 2.1319                 2.4704
 Frc consts  --      0.9536                 1.3007                 1.6139
 IR Inten    --      6.2025                16.8988                29.0396

                     25                     26                     27
                      A                      A                      A
 Frequencies --   1069.1371              1113.7759              1144.0294
 Red. masses --      2.1488                 2.3104                 2.2926
 Frc consts  --      1.4471                 1.6887                 1.7679
 IR Inten    --     25.1783                20.3859                57.0091

                     28                     29                     30
                      A                      A                      A
 Frequencies --   1172.8647              1226.9978              1275.4991
 Red. masses --      1.9618                 1.6010                 1.5143
 Frc consts  --      1.5900                 1.4201                 1.4515
 IR Inten    --     10.3916                19.2203                11.7438

                     31                     32                     33
                      A                      A                      A
 Frequencies --   1319.6632              1367.8423              1378.7316
 Red. masses --      1.1891                 1.4597                 1.5811
 Frc consts  --      1.2201                 1.6091                 1.7708
 IR Inten    --      8.1851                72.3458                11.0364

                     34                     35                     36
                      A                      A                      A
 Frequencies --   1404.1355              1431.2582              1463.8946
 Red. masses --      1.2383                 1.1963                 1.0799
 Frc consts  --      1.4384                 1.4439                 1.3634
 IR Inten    --      3.8782                 6.9964                 0.6604

                     37                     38                     39
                      A                      A                      A
 Frequencies --   1478.2972              1486.7837              1489.9619
 Red. masses --      1.0940                 1.0599                 1.0616
 Frc consts  --      1.4086                 1.3804                 1.3885
 IR Inten    --      4.2676                 6.5688                 1.5583

                     40                     41                     42
                      A                      A                      A
 Frequencies --   1836.0663              2228.8574              2841.0935
 Red. masses --     10.1373                 5.8944                 1.0812
 Frc consts  --     20.1349                17.2526                 5.1419
 IR Inten    --    201.9683                 1.4008               118.1150

                     43                     44                     45
                      A                      A                      A
 Frequencies --   3032.7052              3037.7846              3042.3642
 Red. masses --      1.0595                 1.0603                 1.0379
 Frc consts  --      5.7416                 5.7651                 5.6602
 IR Inten    --      6.3580                 8.8230                24.0315

                     46                     47                     48
                      A                      A                      A
 Frequencies --   3086.7818              3117.7042              3118.2648
 Red. masses --      1.0993                 1.1009                 1.1005
 Frc consts  --      6.1713                 6.3047                 6.3049
 IR Inten    --      8.9581                18.8398                11.2469

                     49                     50                     51
                      A                      A                      A
 Frequencies --   3126.6526              3498.1087              3817.6825
 Red. masses --      1.1030                 1.1626                 1.0664
 Frc consts  --      6.3530                 8.3817                 9.1571
 IR Inten    --     21.8651                65.1005                26.9413

 - Thermochemistry -
 -------------------
 Temperature   298.150 Kelvin.  Pressure   1.00000 Atm.
 Atom     1 has atomic number  6 and mass  12.00000

 Molecular mass:   126.06808 amu.
 Principal axes and moments of inertia in atomic units:
                           1         2         3
     Eigenvalues --   680.925342079.074822360.20078
           X            0.99993   0.00003   0.01169
           Y           -0.00059   0.99886   0.04773
           Z           -0.01168  -0.04773   0.99879
 This molecule is an asymmetric top.
 Rotational symmetry number  1.
 Warning -- assumption of classical behavior for rotation
           may cause significant error
 Rotational temperatures (Kelvin)      0.12720     0.04166     0.03670
 Rotational constants (GHZ):           2.65042     0.86805     0.76466
 Zero-point vibrational energy     404508.9 (Joules/Mol)
                                   96.67995 (Kcal/Mol)
 Warning -- explicit consideration of  15 degrees of freedom as
           vibrations may cause significant error
 Vibrational temperatures:     76.64    90.08   143.53   226.54   265.43
          (Kelvin)            276.88   343.81   385.55   436.90   502.36
                              585.19   594.14   749.96   823.09   870.62
                              921.90   966.81  1043.42  1113.36  1214.81
                             1337.53  1348.81  1464.09  1515.04  1538.25
                             1602.47  1646.00  1687.49  1765.37  1835.16
                             1898.70  1968.02  1983.68  2020.24  2059.26
                             2106.22  2126.94  2139.15  2143.72  2641.69
                             3206.82  4087.69  4363.38  4370.69  4377.28
                             4441.18  4485.68  4486.48  4498.55  5032.99
                             5492.79

 Zero-point correction=                           0.154069 (Hartree/Particle)
 Thermal correction to Energy=                    0.164807
 Thermal correction to Enthalpy=                  0.165751
 Thermal correction to Gibbs Free Energy=         0.117647
 Sum of electronic and zero-point Energies=           -423.002262
 Sum of electronic and thermal Energies=              -422.991524
 Sum of electronic and thermal Enthalpies=            -422.990580
 Sum of electronic and thermal Free Energies=         -423.038685

                     E (Thermal)             CV                S
                      KCal/Mol        Cal/Mol-Kelvin    Cal/Mol-Kelvin
 Total                  103.418             38.227            101.244
 Electronic               0.000              0.000              0.000
 Translational            0.889              2.981             40.409
 Rotational               0.889              2.981             29.592
 Vibrational            101.640             32.266             31.243
 Vibration     1          0.596              1.976              4.692
 Vibration     2          0.597              1.972              4.373
 Vibration     3          0.604              1.949              3.459
 Vibration     4          0.621              1.894              2.580
 Vibration     5          0.631              1.861              2.283
 Vibration     6          0.634              1.850              2.204
 Vibration     7          0.657              1.781              1.811
 Vibration     8          0.673              1.732              1.609
 Vibration     9          0.695              1.667              1.397
 Vibration    10          0.726              1.577              1.170
 Vibration    11          0.772              1.456              0.938
 Vibration    12          0.777              1.442              0.916
 Vibration    13          0.876              1.203              0.607
 Vibration    14          0.928              1.092              0.500
 Vibration    15          0.964              1.021              0.441

 Optimization completed.
    -- Stationary point found.
 Normal termination of Gaussian 09 at Mon Jan 27 15:15:19 2020.
