 Gaussian 09, Revision D.01,
 Gaussian 09:  ES64L-G09RevD.01 24-Apr-2013

 -----------------------------
 # b3lyp 6-31G(2df,p) opt Freq
 -----------------------------

 -----
 titel
 -----
 Symbolic Z-matrix:
 Charge =  0 Multiplicity = 1

 SCF Done:  E(RB3LYP) =  -423.169218441     A.U. after   12 cycles
 Optimization completed.
    -- Stationary point found.
 Normal termination of Gaussian 09 at Mon Jan 27 18:57:17 2020.

 ----------------------------------------------------------------------
 #N Geom=AllCheck Guess=TCheck SCRF=Check GenChk RB3LYP/6-31G(2df,p) Fr
 eq
 ----------------------------------------------------------------------

 Structure from the checkpoint file:  "/scratch/puck/g09_ac74980c-45e1-4c52-b52b-9402f355a607/Gau-54846.chk"
 -----
 titel
 -----
 Charge =  0 Multiplicity = 1

                         Standard orientation:
 ---------------------------------------------------------------------
 Center     Atomic      Atomic             Coordinates (Angstroms)
 Number     Number       Type             X           Y           Z
 ---------------------------------------------------------------------
      1          6           0       -0.086185    2.172028    0.008892
      2          6           0        0.281757    0.716852    0.017938
      3          8           0        1.696128    0.533620    0.035426
      4          6           0        1.832517   -0.901675    0.016897
      5          6           0        0.371955   -1.324380   -0.004700
      6          6           0       -0.304794   -0.347300    1.020071
      7          6           0       -1.776834   -0.415410    0.641351
      8          8           0       -1.683091   -0.374179   -0.802200
      9          6           0       -0.278403   -0.320801   -1.007108
     10          1           0       -1.163822    2.291787   -0.128362
     11          1           0        0.208949    2.658239    0.943982
     12          1           0        0.424253    2.682184   -0.813602
     13          1           0        2.391263   -1.215582   -0.873655
     14          1           0        2.375610   -1.240367    0.908054
     15          1           0        0.130576   -2.386764   -0.029364
     16          1           0       -0.032376   -0.340413    2.075758
     17          1           0       -2.271251   -1.342354    0.957496
     18          1           0       -2.364578    0.436102    1.004531
     19          1           0       -0.042999   -0.294242   -2.070686
 ---------------------------------------------------------------------

 SCF Done:  E(RB3LYP) =  -423.169218441     A.U. after    1 cycles

 The electronic state is 1-A.
 Alpha  occ. eigenvalues --  -19.13846 -19.13581 -10.23775 -10.23158 -10.22929
 Alpha  occ. eigenvalues --  -10.22844 -10.19610 -10.19562 -10.17701  -1.05737
 Alpha  occ. eigenvalues --   -1.02683  -0.82327  -0.76048  -0.72801  -0.67936
 Alpha  occ. eigenvalues --   -0.58900  -0.58177  -0.55750  -0.52215  -0.48893
 Alpha  occ. eigenvalues --   -0.45649  -0.44975  -0.42864  -0.41459  -0.40766
 Alpha  occ. eigenvalues --   -0.37620  -0.37131  -0.35841  -0.34333  -0.33876
 Alpha  occ. eigenvalues --   -0.31994  -0.30441  -0.26673  -0.21752
 Alpha virt. eigenvalues --    0.09310   0.09657   0.10780   0.12193   0.13205
 Alpha virt. eigenvalues --    0.13642   0.15008   0.15271   0.16604   0.16999
 Alpha virt. eigenvalues --    0.17254   0.18041   0.19904   0.20577   0.22286

 Mulliken charges:
               1
     1  C   -0.503004
     2  C    0.456314
     3  O   -0.323667
     4  C   -0.105084
     5  C   -0.102464
     6  C   -0.133930
     7  C   -0.107255
     8  O   -0.283142
     9  C    0.064506
    10  H    0.133968
    11  H    0.125689
    12  H    0.131470
    13  H    0.102860
    14  H    0.102424
    15  H    0.075970
    16  H    0.074070
    17  H    0.103413
    18  H    0.103795
    19  H    0.084067
 Sum of Mulliken charges =   0.00000

 Dipole moment (field-independent basis, Debye):
    X=              0.0264    Y=             -0.8039    Z=              1.0146  Tot=              1.2947
 Quadrupole moment (field-independent basis, Debye-Ang):
   XX=            -57.1856   YY=            -51.0888   ZZ=            -51.7581
   XY=             -3.3300   XZ=             -3.3899   YZ=             -0.5754

  Exact polarizability:  78.086  -3.353  75.790  -3.814  -0.473  67.765
 Approx polarizability: 111.670  -2.079 107.103  -3.024  -0.309 106.165

                      1                      2                      3
                      A                      A                      A
 Frequencies --    183.6838               231.4232               252.9029
 Red. masses --      1.0793                 2.9319                 2.4687
 Frc consts  --      0.0215                 0.0925                 0.0930
 IR Inten    --      0.2569                 3.5430                 0.3623

                      4                      5                      6
                      A                      A                      A
 Frequencies --    296.0490               341.0318               408.1551
 Red. masses --      2.2894                 2.5175                 3.0930
 Frc consts  --      0.1182                 0.1725                 0.3036
 IR Inten    --      3.1413                 3.4173                 0.9307

                      7                      8                      9
                      A                      A                      A
 Frequencies --    429.4696               609.0460               646.9680
 Red. masses --      3.4382                 5.5435                 3.2351
 Frc consts  --      0.3736                 1.2115                 0.7978
 IR Inten    --      5.1275                 0.2570                 0.3684

                     10                     11                     12
                      A                      A                      A
 Frequencies --    685.1387               698.1937               772.5857
 Red. masses --      4.6489                 4.2457                 3.2127
 Frc consts  --      1.2857                 1.2194                 1.1298
 IR Inten    --      3.5081                 3.5300                 1.6890

                     13                     14                     15
                      A                      A                      A
 Frequencies --    901.7074               913.2776               933.0127
 Red. masses --      2.4180                 2.6611                 3.1361
 Frc consts  --      1.1583                 1.3077                 1.6085
 IR Inten    --      9.7352                11.0900                 7.5372

                     16                     17                     18
                      A                      A                      A
 Frequencies --    944.1090               955.1613               966.7369
 Red. masses --      2.5267                 1.6679                 1.8319
 Frc consts  --      1.3269                 0.8965                 1.0087
 IR Inten    --     12.1767                16.2545                 7.2555

                     19                     20                     21
                      A                      A                      A
 Frequencies --    999.9899              1009.6810              1024.8871
 Red. masses --      2.1680                 2.3360                 1.3389
 Frc consts  --      1.2773                 1.4031                 0.8286
 IR Inten    --     14.4343                11.4832                 6.2462

                     22                     23                     24
                      A                      A                      A
 Frequencies --   1032.2786              1082.9767              1100.0592
 Red. masses --      2.6513                 3.3904                 2.2256
 Frc consts  --      1.6646                 2.3428                 1.5868
 IR Inten    --     48.9685                31.1560                32.6018

                     25                     26                     27
                      A                      A                      A
 Frequencies --   1144.3461              1156.7170              1172.6602
 Red. masses --      1.7800                 1.5059                 1.4646
 Frc consts  --      1.3734                 1.1871                 1.1866
 IR Inten    --      9.5388                 5.7632                 4.1005

                     28                     29                     30
                      A                      A                      A
 Frequencies --   1194.4926              1221.4696              1235.9364
 Red. masses --      1.3187                 2.1493                 1.5253
 Frc consts  --      1.1086                 1.8894                 1.3728
 IR Inten    --      8.9860                27.5592                 4.7122

                     31                     32                     33
                      A                      A                      A
 Frequencies --   1248.3099              1267.7205              1317.9298
 Red. masses --      1.5616                 1.5351                 1.9821
 Frc consts  --      1.4337                 1.4535                 2.0284
 IR Inten    --      1.9386                12.3729                 2.7055

                     34                     35                     36
                      A                      A                      A
 Frequencies --   1329.3824              1364.1344              1392.6135
 Red. masses --      2.4357                 1.4237                 1.5427
 Frc consts  --      2.5362                 1.5609                 1.7627
 IR Inten    --     14.0213                 8.5163                 1.8107

                     37                     38                     39
                      A                      A                      A
 Frequencies --   1417.4810              1480.9429              1493.2632
 Red. masses --      1.5961                 1.0477                 1.0558
 Frc consts  --      1.8895                 1.3539                 1.3872
 IR Inten    --     16.5684                 3.2962                 3.0058

                     40                     41                     42
                      A                      A                      A
 Frequencies --   1528.8659              1529.7168              3014.6528
 Red. masses --      1.0941                 1.1005                 1.0561
 Frc consts  --      1.5067                 1.5173                 5.6548
 IR Inten    --      0.4979                 0.4008                91.7948

                     43                     44                     45
                      A                      A                      A
 Frequencies --   3017.9184              3043.1479              3050.2832
 Red. masses --      1.0565                 1.0360                 1.1101
 Frc consts  --      5.6692                 5.6529                 6.0857
 IR Inten    --     60.7333                13.5940                35.8907

                     46                     47                     48
                      A                      A                      A
 Frequencies --   3054.4185              3109.9511              3117.2312
 Red. masses --      1.1090                 1.1011                 1.0879
 Frc consts  --      6.0959                 6.2748                 6.2284
 IR Inten    --     40.5804                13.0367                28.5250

                     49                     50                     51
                      A                      A                      A
 Frequencies --   3123.2892              3126.3287              3133.6582
 Red. masses --      1.0885                 1.1004                 1.0936
 Frc consts  --      6.2561                 6.3366                 6.3270
 IR Inten    --     36.6613                15.5133                19.3192

 - Thermochemistry -
 -------------------
 Temperature   298.150 Kelvin.  Pressure   1.00000 Atm.
 Atom     1 has atomic number  6 and mass  12.00000

 Molecular mass:   126.06808 amu.
 Principal axes and moments of inertia in atomic units:
                           1         2         3
     Eigenvalues --   674.58633 900.713901192.97529
           X            0.99628  -0.08068  -0.03028
           Y            0.08045   0.99672  -0.00881
           Z            0.03089   0.00634   0.99950
 This molecule is an asymmetric top.
 Rotational symmetry number  1.
 Warning -- assumption of classical behavior for rotation
           may cause significant error
 Rotational temperatures (Kelvin)      0.12840     0.09616     0.07260
 Rotational constants (GHZ):           2.67533     2.00368     1.51281
 Zero-point vibrational energy     422912.1 (Joules/Mol)
                                  101.07842 (Kcal/Mol)
 Warning -- explicit consideration of   8 degrees of freedom as
           vibrations may cause significant error
 Vibrational temperatures:    264.28   332.97   363.87   425.95   490.67
          (Kelvin)            587.24   617.91   876.28   930.84   985.76
                             1004.54  1111.58  1297.35  1314.00  1342.40
                             1358.36  1374.26  1390.92  1438.76  1452.70
                             1474.58  1485.22  1558.16  1582.74  1646.46
                             1664.26  1687.19  1718.61  1757.42  1778.23
                             1796.04  1823.96  1896.20  1912.68  1962.68
                             2003.66  2039.44  2130.74  2148.47  2199.69
                             2200.92  4337.41  4342.11  4378.41  4388.67
                             4394.62  4474.52  4484.99  4493.71  4498.08
                             4508.63

 Zero-point correction=                           0.161079 (Hartree/Particle)
 Thermal correction to Energy=                    0.168153
 Thermal correction to Enthalpy=                  0.169097
 Thermal correction to Gibbs Free Energy=         0.130063
 Sum of electronic and zero-point Energies=           -423.008140
 Sum of electronic and thermal Energies=              -423.001066
 Sum of electronic and thermal Enthalpies=            -423.000122
 Sum of electronic and thermal Free Energies=         -423.039155

                     E (Thermal)             CV                S
                      KCal/Mol        Cal/Mol-Kelvin    Cal/Mol-Kelvin
 Total                  105.517             29.097             82.153
 Electronic               0.000              0.000              0.000
 Translational            0.889              2.981             40.409
 Rotational               0.889              2.981             28.074
 Vibrational            103.740             23.136             13.671
 Vibration     1          0.631              1.862              2.291
 Vibration     2          0.653              1.793              1.868
 Vibration     3          0.664              1.758              1.710
 Vibration     4          0.690              1.681              1.439
 Vibration     5          0.721              1.593              1.207
 Vibration     6          0.773              1.453              0.933
 Vibration     7          0.791              1.406              0.860
 Vibration     8          0.968              1.013              0.434

 Optimization completed.
    -- Stationary point found.
 Normal termination of Gaussian 09 at Mon Jan 27 19:41:27 2020.
