 Gaussian 09, Revision D.01,
 Gaussian 09:  ES64L-G09RevD.01 24-Apr-2013

 -----------------------------
 # b3lyp 6-31G(2df,p) opt Freq
 -----------------------------

 -----
 titel
 -----
 Symbolic Z-matrix:
 Charge =  0 Multiplicity = 1

 SCF Done:  E(RB3LYP) =  -423.093325097     A.U. after   14 cycles
 Optimization completed.
    -- Stationary point found.
 Normal termination of Gaussian 09 at Tue Jan 28 00:08:00 2020.

 ----------------------------------------------------------------------
 #N Geom=AllCheck Guess=TCheck SCRF=Check GenChk RB3LYP/6-31G(2df,p) Fr
 eq
 ----------------------------------------------------------------------

 Structure from the checkpoint file:  "/scratch/puck/g09_ee85273b-b3ec-4bd3-944d-9757976d6fe1/Gau-56731.chk"
 -----
 titel
 -----
 Charge =  0 Multiplicity = 1

                         Standard orientation:
 ---------------------------------------------------------------------
 Center     Atomic      Atomic             Coordinates (Angstroms)
 Number     Number       Type             X           Y           Z
 ---------------------------------------------------------------------
      1          6           0        1.501505    1.695489   -0.255397
      2          6           0        0.098397    1.107554   -0.366004
      3          6           0       -0.698632    0.759047    0.897958
      4          8           0       -1.970715    0.317706    0.302225
      5          6           0       -1.574073   -0.551728   -0.812775
      6          6           0       -0.086253   -0.465098   -0.533884
      7          8           0        1.054255   -1.258165   -0.809336
      8          6           0        1.408351   -1.160160    0.619453
      9          6           0       -0.010958   -0.625593    0.997860
     10          1           0        1.463347    2.775810   -0.422231
     11          1           0        1.957563    1.541830    0.725529
     12          1           0        2.166473    1.263892   -1.011041
     13          1           0       -0.492445    1.686287   -1.080811
     14          1           0       -0.934209    1.438126    1.716997
     15          1           0       -1.997423   -1.551662   -0.680526
     16          1           0       -1.919037   -0.118258   -1.757040
     17          1           0        1.598193   -2.156822    1.025582
     18          1           0        2.282155   -0.526947    0.773173
     19          1           0       -0.622958   -1.385644    1.483982
 ---------------------------------------------------------------------

 SCF Done:  E(RB3LYP) =  -423.093325097     A.U. after    1 cycles

 The electronic state is 1-A.
 Alpha  occ. eigenvalues --  -19.14903 -19.13929 -10.24667 -10.24652 -10.24529
 Alpha  occ. eigenvalues --  -10.23287 -10.19018 -10.18836 -10.18127  -1.05956
 Alpha  occ. eigenvalues --   -1.02558  -0.82516  -0.73818  -0.72986  -0.69245
 Alpha  occ. eigenvalues --   -0.62077  -0.57816  -0.52354  -0.51177  -0.50458
 Alpha  occ. eigenvalues --   -0.46715  -0.45031  -0.43740  -0.41386  -0.40381
 Alpha  occ. eigenvalues --   -0.39434  -0.37588  -0.35133  -0.34183  -0.33617
 Alpha  occ. eigenvalues --   -0.32083  -0.26593  -0.25173  -0.24506
 Alpha virt. eigenvalues --    0.05638   0.07559   0.10295   0.10756   0.12316
 Alpha virt. eigenvalues --    0.12952   0.13662   0.14305   0.16060   0.17067
 Alpha virt. eigenvalues --    0.17404   0.18327   0.19270   0.20159   0.21746

 Mulliken charges:
               1
     1  C   -0.448773
     2  C   -0.015684
     3  C    0.036619
     4  O   -0.293919
     5  C   -0.157536
     6  C    0.383533
     7  O   -0.345631
     8  C   -0.148920
     9  C   -0.092488
    10  H    0.119002
    11  H    0.121671
    12  H    0.135325
    13  H    0.077572
    14  H    0.079833
    15  H    0.111345
    16  H    0.106623
    17  H    0.120243
    18  H    0.117706
    19  H    0.093478
 Sum of Mulliken charges =   0.00000

 Dipole moment (field-independent basis, Debye):
    X=              0.9451    Y=              0.3040    Z=              0.7259  Tot=              1.2299
 Quadrupole moment (field-independent basis, Debye-Ang):
   XX=            -56.5705   YY=            -51.9570   ZZ=            -52.6656
   XY=              2.3078   XZ=              3.9783   YZ=             -2.1817

  Exact polarizability:  79.291   0.573  76.344   4.087  -2.521  66.836
 Approx polarizability: 114.880  -4.302 109.833   3.417   0.037 107.281

                      1                      2                      3
                      A                      A                      A
 Frequencies --    166.7571               211.1136               256.9993
 Red. masses --      1.2754                 2.5641                 2.5304
 Frc consts  --      0.0209                 0.0673                 0.0985
 IR Inten    --      0.4149                 1.1716                 2.3829

                      4                      5                      6
                      A                      A                      A
 Frequencies --    340.3376               371.0050               394.0947
 Red. masses --      2.1303                 2.9500                 4.1580
 Frc consts  --      0.1454                 0.2392                 0.3805
 IR Inten    --      1.5375                 7.6977                 6.0839

                      7                      8                      9
                      A                      A                      A
 Frequencies --    447.5927               529.8880               589.7345
 Red. masses --      3.3750                 3.5984                 5.1869
 Frc consts  --      0.3984                 0.5953                 1.0628
 IR Inten    --      4.0906                 1.2939                 0.7213

                     10                     11                     12
                      A                      A                      A
 Frequencies --    643.6442               731.0745               787.4173
 Red. masses --      3.1362                 3.2608                 3.4554
 Frc consts  --      0.7655                 1.0268                 1.2623
 IR Inten    --      1.9405                 5.3752                10.2084

                     13                     14                     15
                      A                      A                      A
 Frequencies --    828.0983               850.6730               865.5261
 Red. masses --      2.6266                 4.2854                 3.1663
 Frc consts  --      1.0612                 1.8271                 1.3975
 IR Inten    --      9.4121                14.9397                18.4809

                     16                     17                     18
                      A                      A                      A
 Frequencies --    905.6497               918.9457               956.1971
 Red. masses --      4.9138                 3.9450                 2.8371
 Frc consts  --      2.3746                 1.9628                 1.5283
 IR Inten    --     74.5985                12.6522                23.8105

                     19                     20                     21
                      A                      A                      A
 Frequencies --   1010.6199              1031.7505              1044.9071
 Red. masses --      2.0880                 1.1942                 1.6661
 Frc consts  --      1.2565                 0.7490                 1.0718
 IR Inten    --     14.0410                 4.6071                11.6171

                     22                     23                     24
                      A                      A                      A
 Frequencies --   1074.7296              1098.3305              1116.5871
 Red. masses --      2.1783                 2.1290                 1.7863
 Frc consts  --      1.4824                 1.5132                 1.3122
 IR Inten    --      7.3319                10.2680                 2.7962

                     25                     26                     27
                      A                      A                      A
 Frequencies --   1126.3596              1154.4088              1175.1047
 Red. masses --      2.3407                 1.2004                 1.4054
 Frc consts  --      1.7497                 0.9425                 1.1434
 IR Inten    --      3.5503                 7.5579                 1.1792

                     28                     29                     30
                      A                      A                      A
 Frequencies --   1193.8698              1209.0355              1250.2672
 Red. masses --      1.8908                 1.8094                 1.4363
 Frc consts  --      1.5879                 1.5583                 1.3228
 IR Inten    --     10.0487                13.7114                32.8349

                     31                     32                     33
                      A                      A                      A
 Frequencies --   1260.9528              1270.7039              1313.3197
 Red. masses --      1.8062                 1.9626                 1.3228
 Frc consts  --      1.6920                 1.8671                 1.3442
 IR Inten    --      4.3297                14.4720                 1.6114

                     34                     35                     36
                      A                      A                      A
 Frequencies --   1337.1106              1357.5059              1397.5594
 Red. masses --      1.3661                 1.7893                 1.4686
 Frc consts  --      1.4390                 1.9427                 1.6901
 IR Inten    --      3.9099                12.5464                 0.4331

                     37                     38                     39
                      A                      A                      A
 Frequencies --   1410.8177              1495.8646              1499.5944
 Red. masses --      1.2624                 1.0690                 1.0512
 Frc consts  --      1.4804                 1.4093                 1.3928
 IR Inten    --      1.1588                 6.2028                 6.7007

                     40                     41                     42
                      A                      A                      A
 Frequencies --   1525.9631              1528.3152              3039.1189
 Red. masses --      1.1035                 1.0767                 1.0551
 Frc consts  --      1.5139                 1.4817                 5.7417
 IR Inten    --      0.2383                 1.3485                66.2610

                     43                     44                     45
                      A                      A                      A
 Frequencies --   3039.8145              3065.8495              3068.5104
 Red. masses --      1.0369                 1.0814                 1.0639
 Frc consts  --      5.6455                 5.9889                 5.9018
 IR Inten    --     15.9152                40.8969                24.1031

                     46                     47                     48
                      A                      A                      A
 Frequencies --   3091.0472              3104.4704              3104.9931
 Red. masses --      1.1114                 1.0983                 1.0897
 Frc consts  --      6.2563                 6.2363                 6.1900
 IR Inten    --     24.6783                 6.3108                25.5698

                     49                     50                     51
                      A                      A                      A
 Frequencies --   3113.9932              3123.9864              3135.4116
 Red. masses --      1.1011                 1.0925                 1.1060
 Frc consts  --      6.2906                 6.2818                 6.4059
 IR Inten    --     44.0710                50.3295                26.6465

 - Thermochemistry -
 -------------------
 Temperature   298.150 Kelvin.  Pressure   1.00000 Atm.
 Atom     1 has atomic number  6 and mass  12.00000

 Molecular mass:   126.06808 amu.
 Principal axes and moments of inertia in atomic units:
                           1         2         3
     Eigenvalues --   715.36232 929.318461181.33218
           X            0.99157   0.12517   0.03350
           Y           -0.12330   0.99094  -0.05319
           Z           -0.03985   0.04862   0.99802
 This molecule is an asymmetric top.
 Rotational symmetry number  1.
 Warning -- assumption of classical behavior for rotation
           may cause significant error
 Rotational temperatures (Kelvin)      0.12108     0.09320     0.07332
 Rotational constants (GHZ):           2.52284     1.94201     1.52772
 Zero-point vibrational energy     422076.1 (Joules/Mol)
                                  100.87862 (Kcal/Mol)
 Warning -- explicit consideration of   9 degrees of freedom as
           vibrations may cause significant error
 Vibrational temperatures:    239.93   303.75   369.76   489.67   533.79
          (Kelvin)            567.01   643.99   762.39   848.50   926.06
                             1051.85  1132.92  1191.45  1223.93  1245.30
                             1303.03  1322.16  1375.75  1454.05  1484.46
                             1503.39  1546.29  1580.25  1606.52  1620.58
                             1660.93  1690.71  1717.71  1739.53  1798.85
                             1814.23  1828.26  1889.57  1923.80  1953.15
                             2010.77  2029.85  2152.21  2157.58  2195.52
                             2198.90  4372.61  4373.61  4411.07  4414.90
                             4447.32  4466.63  4467.39  4480.34  4494.71
                             4511.15

 Zero-point correction=                           0.160760 (Hartree/Particle)
 Thermal correction to Energy=                    0.167924
 Thermal correction to Enthalpy=                  0.168868
 Thermal correction to Gibbs Free Energy=         0.129639
 Sum of electronic and zero-point Energies=           -422.932565
 Sum of electronic and thermal Energies=              -422.925402
 Sum of electronic and thermal Enthalpies=            -422.924457
 Sum of electronic and thermal Free Energies=         -422.963686

                     E (Thermal)             CV                S
                      KCal/Mol        Cal/Mol-Kelvin    Cal/Mol-Kelvin
 Total                  105.374             29.548             82.563
 Electronic               0.000              0.000              0.000
 Translational            0.889              2.981             40.409
 Rotational               0.889              2.981             28.154
 Vibrational            103.596             23.587             14.001
 Vibration     1          0.624              1.883              2.472
 Vibration     2          0.643              1.824              2.034
 Vibration     3          0.667              1.751              1.682
 Vibration     4          0.720              1.595              1.211
 Vibration     5          0.743              1.532              1.076
 Vibration     6          0.761              1.483              0.985
 Vibration     7          0.807              1.366              0.803
 Vibration     8          0.885              1.184              0.587
 Vibration     9          0.947              1.054              0.468

 Optimization completed.
    -- Stationary point found.
 Normal termination of Gaussian 09 at Tue Jan 28 01:33:32 2020.
