 Gaussian 09, Revision D.01,
 Gaussian 09:  ES64L-G09RevD.01 24-Apr-2013

 -----------------------------
 # b3lyp 6-31G(2df,p) opt Freq
 -----------------------------

 -----
 titel
 -----
 Symbolic Z-matrix:
 Charge =  0 Multiplicity = 1

 SCF Done:  E(RB3LYP) =  -423.179679508     A.U. after   14 cycles
 Optimization completed.
    -- Stationary point found.
 Normal termination of Gaussian 09 at Mon Jan 27 23:03:08 2020.

 ----------------------------------------------------------------------
 #N Geom=AllCheck Guess=TCheck SCRF=Check GenChk RB3LYP/6-31G(2df,p) Fr
 eq
 ----------------------------------------------------------------------

 Structure from the checkpoint file:  "/scratch/puck/g09_626018de-e475-43b7-8389-04d6bab8b133/Gau-102367.chk"
 -----
 titel
 -----
 Charge =  0 Multiplicity = 1

                         Standard orientation:
 ---------------------------------------------------------------------
 Center     Atomic      Atomic             Coordinates (Angstroms)
 Number     Number       Type             X           Y           Z
 ---------------------------------------------------------------------
      1          6           0       -2.370125   -1.313575    0.108546
      2          6           0       -1.022672   -0.670131    0.062470
      3          6           0        0.170541   -1.251048   -0.103778
      4          6           0        1.286187   -0.255042   -0.040677
      5          6           0        2.600241   -0.484344   -0.730729
      6          8           0        1.353668    0.416320    1.254756
      7          6           0        0.641728    1.046133    0.190494
      8          6           0       -0.872728    0.833167    0.248733
      9          8           0       -1.565029    1.506209   -0.796618
     10          1           0       -2.834656   -1.188913    1.095306
     11          1           0       -3.041659   -0.843752   -0.618296
     12          1           0       -2.312532   -2.383795   -0.105912
     13          1           0        0.336183   -2.314383   -0.237561
     14          1           0        3.114657   -1.353962   -0.307013
     15          1           0        2.448380   -0.671315   -1.798883
     16          1           0        3.251718    0.384980   -0.614141
     17          1           0        1.039681    1.993260   -0.170684
     18          1           0       -1.264303    1.133014    1.233805
     19          1           0       -1.645606    2.433679   -0.552079
 ---------------------------------------------------------------------

 SCF Done:  E(RB3LYP) =  -423.179679508     A.U. after    1 cycles

 The electronic state is 1-A.
 Alpha  occ. eigenvalues --  -19.14245 -19.13970 -10.23620 -10.23610 -10.22470
 Alpha  occ. eigenvalues --  -10.19045 -10.18161 -10.18060 -10.17837  -1.06105
 Alpha  occ. eigenvalues --   -1.02205  -0.81989  -0.74881  -0.71606  -0.68413
 Alpha  occ. eigenvalues --   -0.62013  -0.56458  -0.53561  -0.51911  -0.48471
 Alpha  occ. eigenvalues --   -0.44681  -0.43868  -0.41811  -0.40884  -0.40547
 Alpha  occ. eigenvalues --   -0.39172  -0.38166  -0.36231  -0.35487  -0.33660
 Alpha  occ. eigenvalues --   -0.29876  -0.28724  -0.25005  -0.23628
 Alpha virt. eigenvalues --    0.00279   0.07792   0.11101   0.11292   0.11810
 Alpha virt. eigenvalues --    0.13796   0.14330   0.14850   0.15691   0.17329
 Alpha virt. eigenvalues --    0.17697   0.19040   0.20137   0.21651   0.22304

 Mulliken charges:
               1
     1  C   -0.493908
     2  C    0.323461
     3  C   -0.249070
     4  C    0.408491
     5  C   -0.491314
     6  O   -0.301919
     7  C   -0.080854
     8  C   -0.018714
     9  O   -0.429863
    10  H    0.127157
    11  H    0.144123
    12  H    0.122623
    13  H    0.094647
    14  H    0.127606
    15  H    0.127986
    16  H    0.130516
    17  H    0.087599
    18  H    0.084522
    19  H    0.286911
 Sum of Mulliken charges =   0.00000

 Dipole moment (field-independent basis, Debye):
    X=             -0.5321    Y=              0.4810    Z=             -0.6161  Tot=              0.9456
 Quadrupole moment (field-independent basis, Debye-Ang):
   XX=            -51.9405   YY=            -45.4064   ZZ=            -57.6815
   XY=             -1.7962   XZ=             -5.1850   YZ=              0.6946

  Exact polarizability:  94.477  -3.723  80.180  -3.583   2.218  57.796
 Approx polarizability: 129.579 -13.018 117.518  -0.616   4.659  94.466

                      1                      2                      3
                      A                      A                      A
 Frequencies --    116.5057               155.4599               178.7381
 Red. masses --      3.4617                 1.9776                 1.1690
 Frc consts  --      0.0277                 0.0282                 0.0220
 IR Inten    --      0.7384                 2.2617                 0.7355

                      4                      5                      6
                      A                      A                      A
 Frequencies --    185.9427               230.0778               259.9516
 Red. masses --      1.1776                 3.0797                 1.1270
 Frc consts  --      0.0240                 0.0961                 0.0449
 IR Inten    --      0.5045                 3.5506                91.3816

                      7                      8                      9
                      A                      A                      A
 Frequencies --    280.9429               347.6973               381.8451
 Red. masses --      2.6169                 3.3985                 3.1279
 Frc consts  --      0.1217                 0.2421                 0.2687
 IR Inten    --      4.8755                10.5268                 8.1847

                     10                     11                     12
                      A                      A                      A
 Frequencies --    453.8804               482.0971               568.3027
 Red. masses --      5.3219                 3.5508                 3.9709
 Frc consts  --      0.6460                 0.4862                 0.7556
 IR Inten    --      1.5634                 7.5369                 5.2796

                     13                     14                     15
                      A                      A                      A
 Frequencies --    625.2936               651.6612               745.6565
 Red. masses --      3.8387                 3.8322                 5.7252
 Frc consts  --      0.8843                 0.9588                 1.8755
 IR Inten    --      3.1357                 0.6623                10.9415

                     16                     17                     18
                      A                      A                      A
 Frequencies --    817.7541               859.9644               879.6722
 Red. masses --      3.1986                 2.2770                 1.6043
 Frc consts  --      1.2602                 0.9921                 0.7314
 IR Inten    --      2.3423                18.6300                12.6165

                     19                     20                     21
                      A                      A                      A
 Frequencies --    936.2936               996.6223              1007.0959
 Red. masses --      2.0991                 2.0443                 1.3859
 Frc consts  --      1.0842                 1.1963                 0.8282
 IR Inten    --      4.4683                 4.7452                 8.5413

                     22                     23                     24
                      A                      A                      A
 Frequencies --   1032.9519              1055.3553              1070.5157
 Red. masses --      1.9342                 1.9951                 2.2752
 Frc consts  --      1.2160                 1.3092                 1.5363
 IR Inten    --      1.1970                36.5830                 4.4647

                     25                     26                     27
                      A                      A                      A
 Frequencies --   1096.0406              1107.5084              1162.8841
 Red. masses --      2.5978                 2.1519                 1.7358
 Frc consts  --      1.8387                 1.5552                 1.3830
 IR Inten    --     85.2851                 8.9055                 4.0273

                     28                     29                     30
                      A                      A                      A
 Frequencies --   1219.0465              1242.6029              1272.9703
 Red. masses --      1.1252                 1.8596                 1.4241
 Frc consts  --      0.9852                 1.6917                 1.3596
 IR Inten    --     54.1501                10.2587                 5.9449

                     31                     32                     33
                      A                      A                      A
 Frequencies --   1313.7602              1337.1264              1396.4816
 Red. masses --      1.8990                 2.2565                 1.5014
 Frc consts  --      1.9311                 2.3770                 1.7251
 IR Inten    --     24.3570                 8.9368                 1.6927

                     34                     35                     36
                      A                      A                      A
 Frequencies --   1407.7141              1417.7720              1449.7261
 Red. masses --      1.2952                 1.5333                 2.6650
 Frc consts  --      1.5123                 1.8158                 3.3000
 IR Inten    --      1.5446                 3.3085                15.7806

                     37                     38                     39
                      A                      A                      A
 Frequencies --   1475.1459              1483.4910              1491.2412
 Red. masses --      1.0454                 1.0832                 1.0757
 Frc consts  --      1.3403                 1.4045                 1.4094
 IR Inten    --      6.8173                 5.2980                12.9706

                     40                     41                     42
                      A                      A                      A
 Frequencies --   1495.0544              1705.1441              2980.3641
 Red. masses --      1.1309                 7.4103                 1.0821
 Frc consts  --      1.4893                12.6944                 5.6634
 IR Inten    --      1.9644                15.3182                40.1949

                     43                     44                     45
                      A                      A                      A
 Frequencies --   3023.1533              3035.8492              3078.6868
 Red. masses --      1.0402                 1.0364                 1.0941
 Frc consts  --      5.6014                 5.6278                 6.1099
 IR Inten    --     27.1303                21.2635                13.0672

                     46                     47                     48
                      A                      A                      A
 Frequencies --   3097.5662              3117.9489              3124.5677
 Red. masses --      1.1003                 1.1011                 1.0969
 Frc consts  --      6.2199                 6.3067                 6.3095
 IR Inten    --     16.9635                14.5680                 5.0069

                     49                     50                     51
                      A                      A                      A
 Frequencies --   3125.9200              3192.4982              3816.6845
 Red. masses --      1.0951                 1.0941                 1.0663
 Frc consts  --      6.3047                 6.5700                 9.1518
 IR Inten    --     36.4674                11.8624                21.9297

 - Thermochemistry -
 -------------------
 Temperature   298.150 Kelvin.  Pressure   1.00000 Atm.
 Atom     1 has atomic number  6 and mass  12.00000

 Molecular mass:   126.06808 amu.
 Principal axes and moments of inertia in atomic units:
                           1         2         3
     Eigenvalues --   664.425231318.458981624.58290
           X            0.99931   0.01529  -0.03391
           Y           -0.01488   0.99981   0.01241
           Z            0.03409  -0.01189   0.99935
 This molecule is an asymmetric top.
 Rotational symmetry number  1.
 Warning -- assumption of classical behavior for rotation
           may cause significant error
 Rotational temperatures (Kelvin)      0.13036     0.06569     0.05331
 Rotational constants (GHZ):           2.71624     1.36883     1.11090
 Zero-point vibrational energy     412635.2 (Joules/Mol)
                                   98.62219 (Kcal/Mol)
 Warning -- explicit consideration of  12 degrees of freedom as
           vibrations may cause significant error
 Vibrational temperatures:    167.63   223.67   257.16   267.53   331.03
          (Kelvin)            374.01   404.21   500.26   549.39   653.03
                              693.63   817.66   899.66   937.59  1072.83
                             1176.56  1237.30  1265.65  1347.12  1433.92
                             1448.98  1486.19  1518.42  1540.23  1576.96
                             1593.46  1673.13  1753.93  1787.83  1831.52
                             1890.21  1923.82  2009.22  2025.38  2039.86
                             2085.83  2122.40  2134.41  2145.56  2151.05
                             2453.32  4288.07  4349.64  4367.90  4429.54
                             4456.70  4486.03  4495.55  4497.50  4593.29
                             5491.35

 Zero-point correction=                           0.157164 (Hartree/Particle)
 Thermal correction to Energy=                    0.166275
 Thermal correction to Enthalpy=                  0.167219
 Thermal correction to Gibbs Free Energy=         0.123831
 Sum of electronic and zero-point Energies=           -423.022515
 Sum of electronic and thermal Energies=              -423.013404
 Sum of electronic and thermal Enthalpies=            -423.012460
 Sum of electronic and thermal Free Energies=         -423.055849

                     E (Thermal)             CV                S
                      KCal/Mol        Cal/Mol-Kelvin    Cal/Mol-Kelvin
 Total                  104.339             34.472             91.319
 Electronic               0.000              0.000              0.000
 Translational            0.889              2.981             40.409
 Rotational               0.889              2.981             28.744
 Vibrational            102.562             28.511             22.166
 Vibration     1          0.608              1.936              3.158
 Vibration     2          0.620              1.897              2.604
 Vibration     3          0.629              1.868              2.342
 Vibration     4          0.632              1.859              2.268
 Vibration     5          0.652              1.795              1.878
 Vibration     6          0.668              1.746              1.662
 Vibration     7          0.681              1.709              1.528
 Vibration     8          0.725              1.580              1.177
 Vibration     9          0.751              1.509              1.032
 Vibration    10          0.812              1.352              0.784
 Vibration    11          0.838              1.290              0.704
 Vibration    12          0.924              1.100              0.508

 Normal termination of Gaussian 09 at Mon Jan 27 23:45:12 2020.
