 Gaussian 09, Revision D.01,
 Gaussian 09:  ES64L-G09RevD.01 24-Apr-2013

 -----------------------------
 # b3lyp 6-31G(2df,p) opt Freq
 -----------------------------

 -----
 titel
 -----
 Symbolic Z-matrix:
 Charge =  0 Multiplicity = 1

 SCF Done:  E(RB3LYP) =  -423.127158903     A.U. after   12 cycles
 Optimization completed.
    -- Stationary point found.
 Normal termination of Gaussian 09 at Tue Jan 28 01:54:00 2020.

 ----------------------------------------------------------------------
 #N Geom=AllCheck Guess=TCheck SCRF=Check GenChk RB3LYP/6-31G(2df,p) Fr
 eq
 ----------------------------------------------------------------------

 Structure from the checkpoint file:  "/scratch/puck/g09_b5fd7515-41e8-4b3b-b0d3-9dd180e6396e/Gau-193551.chk"
 -----
 titel
 -----
 Charge =  0 Multiplicity = 1

                         Standard orientation:
 ---------------------------------------------------------------------
 Center     Atomic      Atomic             Coordinates (Angstroms)
 Number     Number       Type             X           Y           Z
 ---------------------------------------------------------------------
      1          8           0       -2.490533    0.240186   -0.179113
      2          6           0       -1.504022   -0.703609   -0.465195
      3          6           0       -0.943864   -1.544598    0.657258
      4          6           0       -0.094997   -0.482134   -0.000186
      5          6           0        1.202079   -0.653095   -0.772500
      6          6           0        2.339397   -0.687290    0.208732
      7          6           0        1.734455    0.645017   -0.144816
      8          6           0        0.403855    0.861397    0.583012
      9          8           0       -0.319879    2.002296    0.117183
     10          1           0       -2.041235    1.084266   -0.027209
     11          1           0       -1.641457   -1.192118   -1.429868
     12          1           0       -1.330779   -1.335911    1.649664
     13          1           0       -0.702846   -2.585151    0.462566
     14          1           0        1.297787   -1.012991   -1.790248
     15          1           0        2.189780   -1.115434    1.196831
     16          1           0        3.324551   -0.864563   -0.211367
     17          1           0        2.315917    1.445524   -0.587914
     18          1           0        0.432688    0.963348    1.671795
     19          1           0       -0.182531    2.059046   -0.836629
 ---------------------------------------------------------------------

 SCF Done:  E(RB3LYP) =  -423.127158903     A.U. after    1 cycles

 The electronic state is 1-A.
 Alpha  occ. eigenvalues --  -19.15985 -19.12196 -10.24621 -10.23125 -10.20308
 Alpha  occ. eigenvalues --  -10.20168 -10.19705 -10.19686 -10.17696  -1.04128
 Alpha  occ. eigenvalues --   -1.00909  -0.90441  -0.82680  -0.70357  -0.63473
 Alpha  occ. eigenvalues --   -0.60184  -0.58946  -0.55618  -0.53364  -0.49168
 Alpha  occ. eigenvalues --   -0.48019  -0.45859  -0.43928  -0.41971  -0.40661
 Alpha  occ. eigenvalues --   -0.37951  -0.36841  -0.36034  -0.32342  -0.31694
 Alpha  occ. eigenvalues --   -0.29695  -0.27305  -0.25552  -0.23697
 Alpha virt. eigenvalues --    0.06158   0.08930   0.09447   0.10563   0.11837
 Alpha virt. eigenvalues --    0.13433   0.14531   0.15367   0.16280   0.16471
 Alpha virt. eigenvalues --    0.17115   0.18660   0.20261   0.21821   0.23397

 Mulliken charges:
               1
     1  O   -0.440412
     2  C    0.034168
     3  C   -0.376205
     4  C    0.282286
     5  C   -0.143847
     6  C   -0.285523
     7  C   -0.087116
     8  C    0.045985
     9  O   -0.436541
    10  H    0.294738
    11  H    0.088361
    12  H    0.117853
    13  H    0.108969
    14  H    0.090892
    15  H    0.115685
    16  H    0.115603
    17  H    0.092348
    18  H    0.094366
    19  H    0.288391
 Sum of Mulliken charges =   0.00000

 Dipole moment (field-independent basis, Debye):
    X=              2.7555    Y=             -0.2183    Z=             -1.0585  Tot=              2.9599
 Quadrupole moment (field-independent basis, Debye-Ang):
   XX=            -59.1985   YY=            -53.0914   ZZ=            -50.0286
   XY=              0.2643   XZ=             -0.9474   YZ=             -2.0010

  Exact polarizability:  84.470   0.410  75.552  -0.422  -1.288  66.143
 Approx polarizability: 114.376  -0.460 113.317   1.007  -0.993 102.859

                      1                      2                      3
                      A                      A                      A
 Frequencies --     96.2139               181.9264               227.9588
 Red. masses --      4.6028                 3.4443                 3.6230
 Frc consts  --      0.0251                 0.0672                 0.1109
 IR Inten    --      2.9551                 0.9554                 4.4686

                      4                      5                      6
                      A                      A                      A
 Frequencies --    247.0756               292.3752               341.5813
 Red. masses --      2.8138                 1.2985                 4.0425
 Frc consts  --      0.1012                 0.0654                 0.2779
 IR Inten    --      0.6746                50.9519                 1.7435

                      7                      8                      9
                      A                      A                      A
 Frequencies --    377.9409               436.9894               485.3362
 Red. masses --      3.5706                 2.3996                 2.7534
 Frc consts  --      0.3005                 0.2700                 0.3821
 IR Inten    --     26.8907                18.4828                 1.2624

                     10                     11                     12
                      A                      A                      A
 Frequencies --    566.6507               604.0657               636.2309
 Red. masses --      3.1562                 1.0823                 3.4824
 Frc consts  --      0.5971                 0.2327                 0.8305
 IR Inten    --      1.0253                60.0937                 1.6631

                     13                     14                     15
                      A                      A                      A
 Frequencies --    768.4118               801.2411               838.3332
 Red. masses --      1.8381                 1.7581                 2.1282
 Frc consts  --      0.6395                 0.6650                 0.8812
 IR Inten    --      0.0906                14.5183                 6.2670

                     16                     17                     18
                      A                      A                      A
 Frequencies --    848.5594               901.1492               929.2669
 Red. masses --      2.1032                 1.8511                 3.1870
 Frc consts  --      0.8923                 0.8857                 1.6215
 IR Inten    --     24.9382                35.5845                15.2094

                     19                     20                     21
                      A                      A                      A
 Frequencies --    940.8063               965.6872              1013.8741
 Red. masses --      2.0178                 2.1704                 2.6935
 Frc consts  --      1.0523                 1.1925                 1.6313
 IR Inten    --     10.6490                 5.4951                 9.6255

                     22                     23                     24
                      A                      A                      A
 Frequencies --   1016.9334              1027.9062              1045.7501
 Red. masses --      1.3813                 1.6344                 1.5583
 Frc consts  --      0.8416                 1.0174                 1.0040
 IR Inten    --      3.0763                14.2188                11.9693

                     25                     26                     27
                      A                      A                      A
 Frequencies --   1056.9678              1089.7512              1091.1194
 Red. masses --      1.3389                 1.5032                 1.9678
 Frc consts  --      0.8813                 1.0518                 1.3803
 IR Inten    --      2.2137                 3.8021                29.6227

                     28                     29                     30
                      A                      A                      A
 Frequencies --   1105.9504              1154.4537              1191.2491
 Red. masses --      1.5542                 2.4298                 1.9204
 Frc consts  --      1.1200                 1.9080                 1.6056
 IR Inten    --     15.1053                87.6220                18.1043

                     31                     32                     33
                      A                      A                      A
 Frequencies --   1209.5042              1231.0131              1268.7491
 Red. masses --      1.8870                 1.4867                 1.5451
 Frc consts  --      1.6265                 1.3274                 1.4654
 IR Inten    --      1.8386                 9.7247                10.4404

                     34                     35                     36
                      A                      A                      A
 Frequencies --   1277.8767              1309.6654              1359.9770
 Red. masses --      1.7922                 1.8600                 1.8007
 Frc consts  --      1.7243                 1.8797                 1.9623
 IR Inten    --      3.5181                 3.2378                 3.3211

                     37                     38                     39
                      A                      A                      A
 Frequencies --   1404.6049              1420.8021              1423.8471
 Red. masses --      1.6664                 1.2573                 1.2512
 Frc consts  --      1.9371                 1.4954                 1.4945
 IR Inten    --     16.8000                98.7984                41.3542

                     40                     41                     42
                      A                      A                      A
 Frequencies --   1477.9520              1488.7581              3070.3018
 Red. masses --      1.6545                 1.2455                 1.0867
 Frc consts  --      2.1293                 1.6265                 6.0354
 IR Inten    --     45.9995                 0.6936                36.2907

                     43                     44                     45
                      A                      A                      A
 Frequencies --   3100.4870              3111.1066              3121.7077
 Red. masses --      1.0872                 1.0554                 1.0543
 Frc consts  --      6.1575                 6.0188                 6.0533
 IR Inten    --     35.0124                18.4164                10.6929

                     46                     47                     48
                      A                      A                      A
 Frequencies --   3173.0560              3181.2677              3202.3786
 Red. masses --      1.0888                 1.0998                 1.1122
 Frc consts  --      6.4586                 6.5581                 6.7202
 IR Inten    --     16.3986                 7.9874                15.9277

                     49                     50                     51
                      A                      A                      A
 Frequencies --   3213.4136              3706.1687              3783.0767
 Red. masses --      1.1169                 1.0663                 1.0656
 Frc consts  --      6.7953                 8.6293                 8.9851
 IR Inten    --      7.1581               145.8763                18.4157

 - Thermochemistry -
 -------------------
 Temperature   298.150 Kelvin.  Pressure   1.00000 Atm.
 Atom     1 has atomic number  8 and mass  15.99491

 Molecular mass:   126.06808 amu.
 Principal axes and moments of inertia in atomic units:
                           1         2         3
     Eigenvalues --   652.366671165.435821574.27363
           X            0.99999  -0.00001  -0.00386
           Y           -0.00006   0.99985  -0.01756
           Z            0.00386   0.01756   0.99984
 This molecule is an asymmetric top.
 Rotational symmetry number  1.
 Warning -- assumption of classical behavior for rotation
           may cause significant error
 Rotational temperatures (Kelvin)      0.13277     0.07432     0.05502
 Rotational constants (GHZ):           2.76645     1.54855     1.14640
 Zero-point vibrational energy     417601.2 (Joules/Mol)
                                   99.80908 (Kcal/Mol)
 Warning -- explicit consideration of  11 degrees of freedom as
           vibrations may cause significant error
 Vibrational temperatures:    138.43   261.75   327.98   355.49   420.66
          (Kelvin)            491.46   543.77   628.73   698.29   815.28
                              869.11   915.39  1105.57  1152.81  1206.17
                             1220.89  1296.55  1337.01  1353.61  1389.41
                             1458.74  1463.14  1478.93  1504.60  1520.74
                             1567.91  1569.88  1591.21  1661.00  1713.94
                             1740.20  1771.15  1825.44  1838.58  1884.31
                             1956.70  2020.91  2044.21  2048.60  2126.44
                             2141.99  4417.47  4460.90  4476.18  4491.44
                             4565.31  4577.13  4607.50  4623.38  5332.34
                             5443.00

 Zero-point correction=                           0.159056 (Hartree/Particle)
 Thermal correction to Energy=                    0.167222
 Thermal correction to Enthalpy=                  0.168166
 Thermal correction to Gibbs Free Energy=         0.126693
 Sum of electronic and zero-point Energies=           -422.968103
 Sum of electronic and thermal Energies=              -422.959937
 Sum of electronic and thermal Enthalpies=            -422.958992
 Sum of electronic and thermal Free Energies=         -423.000466

                     E (Thermal)             CV                S
                      KCal/Mol        Cal/Mol-Kelvin    Cal/Mol-Kelvin
 Total                  104.934             32.684             87.289
 Electronic               0.000              0.000              0.000
 Translational            0.889              2.981             40.409
 Rotational               0.889              2.981             28.572
 Vibrational            103.156             26.722             18.308
 Vibration     1          0.603              1.952              3.530
 Vibration     2          0.630              1.864              2.309
 Vibration     3          0.651              1.798              1.895
 Vibration     4          0.661              1.768              1.751
 Vibration     5          0.688              1.688              1.460
 Vibration     6          0.721              1.592              1.205
 Vibration     7          0.748              1.517              1.047
 Vibration     8          0.797              1.390              0.836
 Vibration     9          0.841              1.283              0.696
 Vibration    10          0.923              1.103              0.511
 Vibration    11          0.963              1.023              0.443

 Normal termination of Gaussian 09 at Tue Jan 28 02:41:51 2020.
