 Gaussian 09, Revision D.01,
 Gaussian 09:  ES64L-G09RevD.01 24-Apr-2013

 -----------------------------
 # b3lyp 6-31G(2df,p) opt Freq
 -----------------------------

 -----
 titel
 -----
 Symbolic Z-matrix:
 Charge =  0 Multiplicity = 1

 SCF Done:  E(RB3LYP) =  -423.148992642     A.U. after   13 cycles
 Optimization completed.
    -- Stationary point found.
 Normal termination of Gaussian 09 at Tue Jan 28 12:09:08 2020.

 ----------------------------------------------------------------------
 #N Geom=AllCheck Guess=TCheck SCRF=Check GenChk RB3LYP/6-31G(2df,p) Fr
 eq
 ----------------------------------------------------------------------

 Structure from the checkpoint file:  "/scratch/puck/g09_6eeb2705-9936-4b2e-af5c-f39adddde800/Gau-85233.chk"
 -----
 titel
 -----
 Charge =  0 Multiplicity = 1

                         Standard orientation:
 ---------------------------------------------------------------------
 Center     Atomic      Atomic             Coordinates (Angstroms)
 Number     Number       Type             X           Y           Z
 ---------------------------------------------------------------------
      1          8           0       -2.814090   -0.299753   -0.685278
      2          6           0       -2.096447    0.141343    0.460404
      3          6           0       -0.618940    0.203682    0.218187
      4          6           0        0.095187    1.161926   -0.738846
      5          6           0        1.394473    0.992105    0.113403
      6          6           0        2.228438   -0.161397   -0.440214
      7          8           0        1.330971   -1.283265   -0.430304
      8          6           0        0.310665   -0.975250    0.493033
      9          6           0        0.545153    0.300304    1.219719
     10          1           0       -2.421269   -1.133662   -0.964988
     11          1           0       -2.492644    1.138645    0.685447
     12          1           0       -2.303808   -0.494357    1.338124
     13          1           0        0.152949    0.877490   -1.794538
     14          1           0       -0.313987    2.172692   -0.659037
     15          1           0        1.955705    1.891864    0.360971
     16          1           0        2.561364    0.000474   -1.470591
     17          1           0        3.106272   -0.371632    0.189667
     18          1           0       -0.096754   -1.846296    0.994547
     19          1           0        0.565954    0.452653    2.290932
 ---------------------------------------------------------------------

 SCF Done:  E(RB3LYP) =  -423.148992642     A.U. after    1 cycles

 The electronic state is 1-A.
 Alpha  occ. eigenvalues --  -19.13947 -19.13164 -10.23585 -10.22836 -10.22764
 Alpha  occ. eigenvalues --  -10.19934 -10.19653 -10.19362 -10.18578  -1.04292
 Alpha  occ. eigenvalues --   -1.01237  -0.88775  -0.76308  -0.70433  -0.67891
 Alpha  occ. eigenvalues --   -0.60623  -0.58140  -0.53872  -0.52350  -0.48218
 Alpha  occ. eigenvalues --   -0.47304  -0.45686  -0.43912  -0.42450  -0.41111
 Alpha  occ. eigenvalues --   -0.38891  -0.35379  -0.34452  -0.33313  -0.32191
 Alpha  occ. eigenvalues --   -0.31652  -0.27509  -0.25646  -0.22946
 Alpha virt. eigenvalues --    0.07403   0.09379   0.10567   0.11818   0.12261
 Alpha virt. eigenvalues --    0.12908   0.14316   0.15106   0.15844   0.16746
 Alpha virt. eigenvalues --    0.17205   0.18206   0.18582   0.19653   0.21308

 Mulliken charges:
               1
     1  O   -0.413570
     2  C   -0.179607
     3  C    0.278517
     4  C   -0.279057
     5  C   -0.075113
     6  C   -0.078488
     7  O   -0.268354
     8  C    0.058191
     9  C   -0.189155
    10  H    0.284111
    11  H    0.107734
    12  H    0.082052
    13  H    0.100941
    14  H    0.102618
    15  H    0.077209
    16  H    0.108807
    17  H    0.092563
    18  H    0.099715
    19  H    0.090887
 Sum of Mulliken charges =   0.00000

 Dipole moment (field-independent basis, Debye):
    X=              1.2241    Y=              0.6643    Z=              1.2810  Tot=              1.8923
 Quadrupole moment (field-independent basis, Debye-Ang):
   XX=            -57.9509   YY=            -52.0342   ZZ=            -52.0370
   XY=              4.3292   XZ=             -2.0122   YZ=             -0.3156

  Exact polarizability:  84.987   0.497  69.181  -1.278  -1.134  69.030
 Approx polarizability: 112.902  -0.362 107.048   1.598   1.485 106.455

                      1                      2                      3
                      A                      A                      A
 Frequencies --     87.4916               128.4193               242.1860
 Red. masses --      3.6561                 4.1588                 2.8041
 Frc consts  --      0.0165                 0.0404                 0.0969
 IR Inten    --      3.3887                 0.2750                 2.2205

                      4                      5                      6
                      A                      A                      A
 Frequencies --    265.0533               335.5568               383.7122
 Red. masses --      1.8019                 1.4022                 2.8121
 Frc consts  --      0.0746                 0.0930                 0.2439
 IR Inten    --     25.0111                70.8716                12.6216

                      7                      8                      9
                      A                      A                      A
 Frequencies --    399.4645               469.0945               622.6631
 Red. masses --      2.1690                 3.2527                 3.0907
 Frc consts  --      0.2039                 0.4217                 0.7060
 IR Inten    --     16.4109                 3.2132                 5.3537

                     10                     11                     12
                      A                      A                      A
 Frequencies --    711.1554               733.4902               767.6304
 Red. masses --      3.3488                 4.3479                 4.1188
 Frc consts  --      0.9979                 1.3782                 1.4300
 IR Inten    --     12.1231                 0.7576                 8.1267

                     13                     14                     15
                      A                      A                      A
 Frequencies --    841.0537               861.6685               892.0327
 Red. masses --      2.2520                 2.2169                 1.8697
 Frc consts  --      0.9386                 0.9698                 0.8766
 IR Inten    --      8.6265                 5.9194                 9.8255

                     16                     17                     18
                      A                      A                      A
 Frequencies --    904.8295               933.6567               955.2051
 Red. masses --      1.9522                 2.6461                 1.9543
 Frc consts  --      0.9417                 1.3590                 1.0506
 IR Inten    --     19.6122                17.0921                 4.0670

                     19                     20                     21
                      A                      A                      A
 Frequencies --    969.6924              1019.2502              1026.5715
 Red. masses --      1.9971                 1.6245                 1.8100
 Frc consts  --      1.1064                 0.9943                 1.1239
 IR Inten    --      5.9542                 6.7559                23.0605

                     22                     23                     24
                      A                      A                      A
 Frequencies --   1051.4638              1056.2563              1076.6175
 Red. masses --      2.8687                 2.8966                 1.9273
 Frc consts  --      1.8686                 1.9040                 1.3162
 IR Inten    --     25.4739                88.6726                14.6703

                     25                     26                     27
                      A                      A                      A
 Frequencies --   1106.8776              1150.4710              1163.7738
 Red. masses --      2.8694                 1.4146                 1.3898
 Frc consts  --      2.0713                 1.1032                 1.1091
 IR Inten    --     52.7121                 5.9093                 6.6130

                     28                     29                     30
                      A                      A                      A
 Frequencies --   1188.1482              1219.3387              1238.9385
 Red. masses --      1.5362                 1.4088                 1.7543
 Frc consts  --      1.2777                 1.2341                 1.5866
 IR Inten    --      5.1311                10.2989                 4.4507

                     31                     32                     33
                      A                      A                      A
 Frequencies --   1240.5708              1279.9502              1290.6048
 Red. masses --      1.3565                 1.5309                 1.6435
 Frc consts  --      1.2300                 1.4776                 1.6129
 IR Inten    --      3.6403                 6.0214                 0.4610

                     34                     35                     36
                      A                      A                      A
 Frequencies --   1320.6968              1363.6279              1375.1627
 Red. masses --      2.2999                 1.3964                 1.3767
 Frc consts  --      2.3635                 1.5298                 1.5339
 IR Inten    --      6.0948                 0.1831                 0.2734

                     37                     38                     39
                      A                      A                      A
 Frequencies --   1417.0331              1432.8387              1493.2606
 Red. masses --      1.3937                 2.0622                 1.1648
 Frc consts  --      1.6489                 2.4945                 1.5303
 IR Inten    --     38.9836                46.9285                 2.0607

                     40                     41                     42
                      A                      A                      A
 Frequencies --   1503.2289              1512.8442              2958.4207
 Red. masses --      1.0891                 1.1003                 1.0711
 Frc consts  --      1.4500                 1.4837                 5.5232
 IR Inten    --      1.1084                 0.2672                62.5351

                     43                     44                     45
                      A                      A                      A
 Frequencies --   2988.4203              3044.4089              3053.6202
 Red. masses --      1.0682                 1.0585                 1.0903
 Frc consts  --      5.6205                 5.7804                 5.9899
 IR Inten    --     81.0116                34.8319                35.9191

                     46                     47                     48
                      A                      A                      A
 Frequencies --   3075.0803              3099.6522              3127.4249
 Red. masses --      1.0957                 1.1069                 1.0896
 Frc consts  --      6.1048                 6.2661                 6.2789
 IR Inten    --     32.4085                22.3000                30.2243

                     49                     50                     51
                      A                      A                      A
 Frequencies --   3176.8291              3197.0170              3806.2620
 Red. masses --      1.0899                 1.0961                 1.0660
 Frc consts  --      6.4807                 6.6005                 9.0993
 IR Inten    --     12.5406                13.3917                13.7116

 - Thermochemistry -
 -------------------
 Temperature   298.150 Kelvin.  Pressure   1.00000 Atm.
 Atom     1 has atomic number  8 and mass  15.99491

 Molecular mass:   126.06808 amu.
 Principal axes and moments of inertia in atomic units:
                           1         2         3
     Eigenvalues --   513.754631417.960351512.37683
           X            0.99982   0.01252  -0.01432
           Y           -0.01356   0.99706  -0.07539
           Z            0.01333   0.07557   0.99705
 This molecule is an asymmetric top.
 Rotational symmetry number  1.
 Warning -- assumption of classical behavior for rotation
           may cause significant error
 Rotational temperatures (Kelvin)      0.16859     0.06108     0.05727
 Rotational constants (GHZ):           3.51285     1.27277     1.19331
 Zero-point vibrational energy     422034.8 (Joules/Mol)
                                  100.86875 (Kcal/Mol)
 Warning -- explicit consideration of   8 degrees of freedom as
           vibrations may cause significant error
 Vibrational temperatures:    125.88   184.77   348.45   381.35   482.79
          (Kelvin)            552.08   574.74   674.92   895.87  1023.19
                             1055.33  1104.45  1210.09  1239.75  1283.43
                             1301.85  1343.32  1374.33  1395.17  1466.47
                             1477.01  1512.82  1519.72  1549.01  1592.55
                             1655.27  1674.41  1709.48  1754.35  1782.55
                             1784.90  1841.56  1856.89  1900.19  1961.95
                             1978.55  2038.79  2061.53  2148.47  2162.81
                             2176.64  4256.50  4299.66  4380.22  4393.47
                             4424.35  4459.70  4499.66  4570.74  4599.79
                             5476.36

 Zero-point correction=                           0.160745 (Hartree/Particle)
 Thermal correction to Energy=                    0.168416
 Thermal correction to Enthalpy=                  0.169361
 Thermal correction to Gibbs Free Energy=         0.128489
 Sum of electronic and zero-point Energies=           -422.988248
 Sum of electronic and thermal Energies=              -422.980576
 Sum of electronic and thermal Enthalpies=            -422.979632
 Sum of electronic and thermal Free Energies=         -423.020504

                     E (Thermal)             CV                S
                      KCal/Mol        Cal/Mol-Kelvin    Cal/Mol-Kelvin
 Total                  105.683             30.223             86.022
 Electronic               0.000              0.000              0.000
 Translational            0.889              2.981             40.409
 Rotational               0.889              2.981             28.490
 Vibrational            103.905             24.261             17.124
 Vibration     1          0.601              1.958              3.715
 Vibration     2          0.611              1.925              2.970
 Vibration     3          0.658              1.776              1.787
 Vibration     4          0.671              1.737              1.628
 Vibration     5          0.717              1.604              1.233
 Vibration     6          0.753              1.505              1.024
 Vibration     7          0.766              1.471              0.965
 Vibration     8          0.826              1.319              0.740

 Optimization completed.
    -- Stationary point found.
 Normal termination of Gaussian 09 at Tue Jan 28 12:56:33 2020.
