 Gaussian 09, Revision D.01,
 Gaussian 09:  ES64L-G09RevD.01 24-Apr-2013

 -----------------------------
 # b3lyp 6-31G(2df,p) opt Freq
 -----------------------------

 -----
 titel
 -----
 Symbolic Z-matrix:
 Charge =  0 Multiplicity = 1

 SCF Done:  E(RB3LYP) =  -423.218758411     A.U. after   14 cycles
 Optimization completed.
    -- Stationary point found.
 Normal termination of Gaussian 09 at Tue Jan 28 03:55:24 2020.

 ----------------------------------------------------------------------
 #N Geom=AllCheck Guess=TCheck SCRF=Check GenChk RB3LYP/6-31G(2df,p) Fr
 eq
 ----------------------------------------------------------------------

 Structure from the checkpoint file:  "/scratch/puck/g09_9dde1e80-7fd0-44d4-8347-40defb1429e7/Gau-62829.chk"
 -----
 titel
 -----
 Charge =  0 Multiplicity = 1

                         Standard orientation:
 ---------------------------------------------------------------------
 Center     Atomic      Atomic             Coordinates (Angstroms)
 Number     Number       Type             X           Y           Z
 ---------------------------------------------------------------------
      1          6           0       -2.409228   -0.888507    0.350598
      2          6           0       -1.277635   -0.089542   -0.312758
      3          6           0       -1.215251    1.384823    0.145255
      4          6           0        0.084149    2.039514   -0.258583
      5          6           0        1.229512    1.372138   -0.134470
      6          6           0        1.225077   -0.021788    0.447067
      7          8           0        2.432672   -0.700243    0.252491
      8          6           0        0.055668   -0.808592   -0.152739
      9          8           0        0.235117   -1.953925   -0.507751
     10          1           0       -2.411995   -1.917687   -0.015054
     11          1           0       -2.288290   -0.912106    1.439086
     12          1           0       -3.379854   -0.434532    0.130199
     13          1           0       -1.449353   -0.093810   -1.397788
     14          1           0       -2.074398    1.923599   -0.265335
     15          1           0       -1.329954    1.429016    1.239319
     16          1           0        0.064561    3.054836   -0.641782
     17          1           0        2.196054    1.779133   -0.411070
     18          1           0        0.999682    0.055335    1.531870
     19          1           0        2.177486   -1.578725   -0.073586
 ---------------------------------------------------------------------

 SCF Done:  E(RB3LYP) =  -423.218758411     A.U. after    1 cycles

 The electronic state is 1-A.
 Alpha  occ. eigenvalues --  -19.14667 -19.13090 -10.27655 -10.24298 -10.20931
 Alpha  occ. eigenvalues --  -10.20038 -10.19153 -10.18953 -10.18949  -1.06278
 Alpha  occ. eigenvalues --   -1.01356  -0.84416  -0.77731  -0.72271  -0.68218
 Alpha  occ. eigenvalues --   -0.62323  -0.57778  -0.52807  -0.49888  -0.49540
 Alpha  occ. eigenvalues --   -0.47724  -0.44900  -0.44015  -0.41382  -0.40445
 Alpha  occ. eigenvalues --   -0.39544  -0.38584  -0.37955  -0.35386  -0.34255
 Alpha  occ. eigenvalues --   -0.33007  -0.27481  -0.27315  -0.24311
 Alpha virt. eigenvalues --   -0.02625   0.00950   0.07912   0.09670   0.11784
 Alpha virt. eigenvalues --    0.13477   0.14015   0.15531   0.16326   0.17061
 Alpha virt. eigenvalues --    0.17473   0.19072   0.20607   0.21097   0.22628

 Mulliken charges:
               1
     1  C   -0.403771
     2  C   -0.073329
     3  C   -0.280936
     4  C   -0.076733
     5  C   -0.095599
     6  C    0.014105
     7  O   -0.443689
     8  C    0.368790
     9  O   -0.346884
    10  H    0.143179
    11  H    0.120528
    12  H    0.119528
    13  H    0.120330
    14  H    0.111301
    15  H    0.116627
    16  H    0.099281
    17  H    0.113495
    18  H    0.101154
    19  H    0.292625
 Sum of Mulliken charges =   0.00000

 Dipole moment (field-independent basis, Debye):
    X=             -2.3837    Y=              1.8379    Z=              0.2913  Tot=              3.0240
 Quadrupole moment (field-independent basis, Debye-Ang):
   XX=            -55.5707   YY=            -54.8933   ZZ=            -52.8513
   XY=             -0.0031   XZ=             -0.7142   YZ=             -1.7588

  Exact polarizability:  89.300  -3.471  82.931  -0.405  -1.076  56.735
 Approx polarizability: 126.571 -12.303 123.725   0.956   1.729  91.085

                      1                      2                      3
                      A                      A                      A
 Frequencies --     50.9379               126.9390               223.9980
 Red. masses --      5.1251                 2.5661                 1.3907
 Frc consts  --      0.0078                 0.0244                 0.0411
 IR Inten    --      0.3250                 0.8454                 0.4100

                      4                      5                      6
                      A                      A                      A
 Frequencies --    250.5736               273.3640               339.3002
 Red. masses --      1.9306                 2.9648                 4.7497
 Frc consts  --      0.0714                 0.1305                 0.3222
 IR Inten    --      1.5514                 2.3581                21.2006

                      7                      8                      9
                      A                      A                      A
 Frequencies --    358.1145               418.4846               450.4296
 Red. masses --      2.7810                 3.4417                 2.0338
 Frc consts  --      0.2101                 0.3551                 0.2431
 IR Inten    --      4.1636                 1.7484                25.9411

                     10                     11                     12
                      A                      A                      A
 Frequencies --    463.4256               516.9888               540.4856
 Red. masses --      2.0938                 2.5821                 4.2700
 Frc consts  --      0.2649                 0.4066                 0.7349
 IR Inten    --     21.4670                15.4030                 7.2983

                     13                     14                     15
                      A                      A                      A
 Frequencies --    652.4069               682.6477               773.0089
 Red. masses --      2.7649                 1.6957                 3.1544
 Frc consts  --      0.6934                 0.4656                 1.1105
 IR Inten    --     12.8079                18.5043                 2.2996

                     16                     17                     18
                      A                      A                      A
 Frequencies --    845.7074               894.2269               921.9460
 Red. masses --      3.1432                 2.1134                 1.5609
 Frc consts  --      1.3245                 0.9957                 0.7817
 IR Inten    --     10.8886                 8.1656                 3.1312

                     19                     20                     21
                      A                      A                      A
 Frequencies --    961.3513               983.3324              1003.4382
 Red. masses --      2.7985                 1.2507                 1.9143
 Frc consts  --      1.5238                 0.7126                 1.1357
 IR Inten    --      3.6145                 1.5485                20.0347

                     22                     23                     24
                      A                      A                      A
 Frequencies --   1053.5851              1086.2046              1120.9987
 Red. masses --      2.1811                 2.1433                 2.2658
 Frc consts  --      1.4265                 1.4899                 1.6775
 IR Inten    --      6.5674                 8.3785                25.2425

                     25                     26                     27
                      A                      A                      A
 Frequencies --   1149.0756              1153.2023              1207.4429
 Red. masses --      1.9877                 1.7678                 1.4651
 Frc consts  --      1.5463                 1.3852                 1.2585
 IR Inten    --     79.7330                43.7750                11.2071

                     28                     29                     30
                      A                      A                      A
 Frequencies --   1217.0539              1238.9596              1292.5604
 Red. masses --      1.5555                 1.4692                 1.2921
 Frc consts  --      1.3575                 1.3287                 1.2719
 IR Inten    --      2.3984                15.0089                 1.4988

                     31                     32                     33
                      A                      A                      A
 Frequencies --   1322.2072              1337.1642              1359.3555
 Red. masses --      1.2304                 1.3868                 1.7170
 Frc consts  --      1.2674                 1.4609                 1.8693
 IR Inten    --      5.4431                14.6051                 7.4811

                     34                     35                     36
                      A                      A                      A
 Frequencies --   1388.7663              1405.2582              1425.6112
 Red. masses --      1.5797                 1.2222                 1.4167
 Frc consts  --      1.7950                 1.4220                 1.6964
 IR Inten    --     15.1578                 3.5958                92.4645

                     37                     38                     39
                      A                      A                      A
 Frequencies --   1483.7587              1497.4608              1501.6217
 Red. masses --      1.0835                 1.0484                 1.0513
 Frc consts  --      1.4054                 1.3851                 1.3967
 IR Inten    --      2.6983                 6.3176                 6.4653

                     40                     41                     42
                      A                      A                      A
 Frequencies --   1704.1642              1793.5334              2875.6258
 Red. masses --      6.9310                12.0733                 1.0773
 Frc consts  --     11.8597                22.8820                 5.2485
 IR Inten    --      2.1206               146.4888                31.8628

                     43                     44                     45
                      A                      A                      A
 Frequencies --   2991.8078              3022.1152              3038.8139
 Red. masses --      1.0716                 1.0802                 1.0368
 Frc consts  --      5.6515                 5.8124                 5.6407
 IR Inten    --     15.3437                 9.2998                26.9104

                     46                     47                     48
                      A                      A                      A
 Frequencies --   3078.1756              3105.7848              3132.0855
 Red. masses --      1.0905                 1.1010                 1.1014
 Frc consts  --      6.0879                 6.2573                 6.3657
 IR Inten    --     17.9593                25.4634                10.5409

                     49                     50                     51
                      A                      A                      A
 Frequencies --   3173.5031              3201.0059              3679.4993
 Red. masses --      1.0859                 1.0985                 1.0645
 Frc consts  --      6.4433                 6.6319                 8.4909
 IR Inten    --      7.7406                11.9194                64.6203

 - Thermochemistry -
 -------------------
 Temperature   298.150 Kelvin.  Pressure   1.00000 Atm.
 Atom     1 has atomic number  6 and mass  12.00000

 Molecular mass:   126.06808 amu.
 Principal axes and moments of inertia in atomic units:
                           1         2         3
     Eigenvalues --   812.927301072.520331740.32101
           X            0.99916   0.03978  -0.00943
           Y           -0.03990   0.99912  -0.01285
           Z            0.00891   0.01322   0.99987
 This molecule is an asymmetric top.
 Rotational symmetry number  1.
 Warning -- assumption of classical behavior for rotation
           may cause significant error
 Rotational temperatures (Kelvin)      0.10655     0.08076     0.04977
 Rotational constants (GHZ):           2.22005     1.68271     1.03702
 Zero-point vibrational energy     417302.4 (Joules/Mol)
                                   99.73766 (Kcal/Mol)
 Warning -- explicit consideration of  12 degrees of freedom as
           vibrations may cause significant error
 Vibrational temperatures:     73.29   182.64   322.28   360.52   393.31
          (Kelvin)            488.18   515.25   602.11   648.07   666.77
                              743.83   777.64   938.67   982.18  1112.19
                             1216.78  1286.59  1326.47  1383.17  1414.79
                             1443.72  1515.87  1562.80  1612.87  1653.26
                             1659.20  1737.24  1751.07  1782.58  1859.70
                             1902.36  1923.88  1955.81  1998.12  2021.85
                             2051.13  2134.80  2154.51  2160.50  2451.91
                             2580.49  4137.38  4304.54  4348.14  4372.17
                             4428.80  4468.53  4506.37  4565.96  4605.53
                             5293.97

 Zero-point correction=                           0.158942 (Hartree/Particle)
 Thermal correction to Energy=                    0.167573
 Thermal correction to Enthalpy=                  0.168517
 Thermal correction to Gibbs Free Energy=         0.125532
 Sum of electronic and zero-point Energies=           -423.059816
 Sum of electronic and thermal Energies=              -423.051185
 Sum of electronic and thermal Enthalpies=            -423.050241
 Sum of electronic and thermal Free Energies=         -423.093227

                     E (Thermal)             CV                S
                      KCal/Mol        Cal/Mol-Kelvin    Cal/Mol-Kelvin
 Total                  105.154             33.108             90.471
 Electronic               0.000              0.000              0.000
 Translational            0.889              2.981             40.409
 Rotational               0.889              2.981             28.808
 Vibrational            103.376             27.147             21.255
 Vibration     1          0.595              1.977              4.781
 Vibration     2          0.611              1.926              2.992
 Vibration     3          0.649              1.805              1.927
 Vibration     4          0.663              1.762              1.727
 Vibration     5          0.676              1.722              1.575
 Vibration     6          0.719              1.597              1.215
 Vibration     7          0.733              1.559              1.130
 Vibration     8          0.781              1.430              0.897
 Vibration     9          0.809              1.360              0.794
 Vibration    10          0.821              1.331              0.756
 Vibration    11          0.872              1.212              0.617
 Vibration    12          0.896              1.161              0.564

 Normal termination of Gaussian 09 at Tue Jan 28 04:41:00 2020.
