 Gaussian 09, Revision D.01,
 Gaussian 09:  ES64L-G09RevD.01 24-Apr-2013

 -----------------------------
 # b3lyp 6-31G(2df,p) opt Freq
 -----------------------------

 -----
 titel
 -----
 Symbolic Z-matrix:
 Charge =  0 Multiplicity = 1

 SCF Done:  E(RB3LYP) =  -423.172246361     A.U. after   14 cycles
 Optimization completed.
    -- Stationary point found.
 Normal termination of Gaussian 09 at Mon Jan 27 18:50:59 2020.

 ----------------------------------------------------------------------
 #N Geom=AllCheck Guess=TCheck SCRF=Check GenChk RB3LYP/6-31G(2df,p) Fr
 eq
 ----------------------------------------------------------------------

 Structure from the checkpoint file:  "/scratch/puck/g09_99cfc3a0-267f-4f6c-a229-34ca226a4f02/Gau-172657.chk"
 -----
 titel
 -----
 Charge =  0 Multiplicity = 1

                         Standard orientation:
 ---------------------------------------------------------------------
 Center     Atomic      Atomic             Coordinates (Angstroms)
 Number     Number       Type             X           Y           Z
 ---------------------------------------------------------------------
      1          8           0        0.219382    1.788379   -0.259659
      2          6           0       -0.311559    0.561629    0.098076
      3          6           0       -1.700531    0.684750    0.773876
      4          6           0       -2.320108   -0.285295   -0.277632
      5          6           0       -0.920497   -0.537368   -0.880382
      6          6           0       -0.099367   -1.620561   -0.131468
      7          6           0        0.617780   -0.510347    0.734668
      8          6           0        2.066324   -0.442599    0.355932
      9          8           0        2.557040    0.344379   -0.425205
     10          1           0        1.113033    1.621449   -0.598526
     11          1           0       -1.743963    0.358943    1.817155
     12          1           0       -2.075216    1.708078    0.713097
     13          1           0       -2.836634   -1.166828    0.113145
     14          1           0       -2.993984    0.225708   -0.969131
     15          1           0       -0.807546   -0.511594   -1.964357
     16          1           0       -0.688870   -2.326752    0.457801
     17          1           0        0.582969   -2.191475   -0.766485
     18          1           0        0.545276   -0.649656    1.819782
     19          1           0        2.701306   -1.231192    0.818012
 ---------------------------------------------------------------------

 SCF Done:  E(RB3LYP) =  -423.172246361     A.U. after    1 cycles

 The electronic state is 1-A.
 Alpha  occ. eigenvalues --  -19.15723 -19.12724 -10.28542 -10.23701 -10.20231
 Alpha  occ. eigenvalues --  -10.20215 -10.18422 -10.18246 -10.17853  -1.06356
 Alpha  occ. eigenvalues --   -1.01663  -0.86845  -0.77316  -0.69630  -0.64811
 Alpha  occ. eigenvalues --   -0.61756  -0.58026  -0.53374  -0.50921  -0.49462
 Alpha  occ. eigenvalues --   -0.46803  -0.45606  -0.43401  -0.41919  -0.40357
 Alpha  occ. eigenvalues --   -0.39196  -0.37940  -0.35331  -0.33435  -0.32032
 Alpha  occ. eigenvalues --   -0.31932  -0.29639  -0.25831  -0.23828
 Alpha virt. eigenvalues --   -0.03536   0.07153   0.08919   0.10537   0.10877
 Alpha virt. eigenvalues --    0.13423   0.13803   0.14640   0.15283   0.16370
 Alpha virt. eigenvalues --    0.17774   0.19037   0.20687   0.21302   0.23068

 Mulliken charges:
               1
     1  O   -0.478736
     2  C    0.428622
     3  C   -0.272405
     4  C   -0.219566
     5  C   -0.087657
     6  C   -0.251485
     7  C   -0.184090
     8  C    0.149588
     9  O   -0.272373
    10  H    0.292774
    11  H    0.093061
    12  H    0.119488
    13  H    0.093886
    14  H    0.107923
    15  H    0.073060
    16  H    0.110407
    17  H    0.113872
    18  H    0.089015
    19  H    0.094617
 Sum of Mulliken charges =   0.00000

 Dipole moment (field-independent basis, Debye):
    X=             -0.7047    Y=             -2.6103    Z=              1.1265  Tot=              2.9290
 Quadrupole moment (field-independent basis, Debye-Ang):
   XX=            -55.4233   YY=            -55.4372   ZZ=            -51.7267
   XY=             -2.2144   XZ=              2.3240   YZ=             -0.4185

  Exact polarizability:  86.946  -0.790  73.711   0.080  -2.619  66.241
 Approx polarizability: 115.511   5.031 113.148  -3.808  -7.841 104.584

                      1                      2                      3
                      A                      A                      A
 Frequencies --     60.7451               109.0996               199.5632
 Red. masses --      3.2934                 3.0166                 2.1507
 Frc consts  --      0.0072                 0.0212                 0.0505
 IR Inten    --      0.4371                 2.1574                 1.2833

                      4                      5                      6
                      A                      A                      A
 Frequencies --    239.2635               316.2002               342.8979
 Red. masses --      5.4167                 3.8223                 3.0159
 Frc consts  --      0.1827                 0.2252                 0.2089
 IR Inten    --      7.9487                 2.7554                 0.0375

                      7                      8                      9
                      A                      A                      A
 Frequencies --    401.7143               416.7021               585.8926
 Red. masses --      3.5324                 2.0469                 3.8084
 Frc consts  --      0.3359                 0.2094                 0.7702
 IR Inten    --      7.7799                 0.3966                30.8400

                     10                     11                     12
                      A                      A                      A
 Frequencies --    622.2025               637.5171               743.6785
 Red. masses --      3.6916                 1.1563                 1.2649
 Frc consts  --      0.8420                 0.2769                 0.4122
 IR Inten    --      5.0757                83.6848                 0.6704

                     13                     14                     15
                      A                      A                      A
 Frequencies --    750.1871               792.8203               841.0959
 Red. masses --      2.6930                 2.9396                 2.2036
 Frc consts  --      0.8930                 1.0886                 0.9185
 IR Inten    --      0.2576                 9.1145                 3.9624

                     16                     17                     18
                      A                      A                      A
 Frequencies --    877.0111               888.0664               908.4379
 Red. masses --      2.0084                 2.3938                 2.5539
 Frc consts  --      0.9101                 1.1123                 1.2418
 IR Inten    --      8.3783                 3.4375                 3.0503

                     19                     20                     21
                      A                      A                      A
 Frequencies --    950.5903               979.2688              1022.5548
 Red. masses --      2.1727                 1.7444                 1.4792
 Frc consts  --      1.1567                 0.9856                 0.9113
 IR Inten    --      2.2489                 0.2480                 5.2120

                     22                     23                     24
                      A                      A                      A
 Frequencies --   1033.9279              1043.2165              1098.4995
 Red. masses --      2.1743                 2.7931                 2.7164
 Frc consts  --      1.3694                 1.7910                 1.9313
 IR Inten    --     22.3017                 5.0166                37.4279

                     25                     26                     27
                      A                      A                      A
 Frequencies --   1116.5415              1137.3500              1178.2954
 Red. masses --      1.5317                 1.6938                 1.5845
 Frc consts  --      1.1251                 1.2910                 1.2961
 IR Inten    --      0.4843                13.3894                12.1722

                     28                     29                     30
                      A                      A                      A
 Frequencies --   1206.3374              1217.9341              1247.9060
 Red. masses --      1.3346                 1.3565                 1.3840
 Frc consts  --      1.1443                 1.1856                 1.2698
 IR Inten    --      2.4491                 6.3948                 1.0789

                     31                     32                     33
                      A                      A                      A
 Frequencies --   1260.0660              1282.7232              1304.1965
 Red. masses --      1.4388                 1.4970                 1.6168
 Frc consts  --      1.3459                 1.4512                 1.6203
 IR Inten    --      3.3787                 2.5169                 7.6262

                     34                     35                     36
                      A                      A                      A
 Frequencies --   1316.7680              1328.6236              1425.1514
 Red. masses --      2.2283                 2.0010                 1.2260
 Frc consts  --      2.2763                 2.0812                 1.4671
 IR Inten    --    122.2314                11.8651                 7.2562

                     37                     38                     39
                      A                      A                      A
 Frequencies --   1437.2401              1470.8155              1481.5831
 Red. masses --      1.4653                 1.0868                 1.1119
 Frc consts  --      1.7834                 1.3853                 1.4380
 IR Inten    --     99.2617                 1.3860                 8.4446

                     40                     41                     42
                      A                      A                      A
 Frequencies --   1498.2905              1790.7722              2884.6228
 Red. masses --      1.1168                 9.5739                 1.0834
 Frc consts  --      1.4771                18.0892                 5.3115
 IR Inten    --      2.5329               161.8175               120.8773

                     43                     44                     45
                      A                      A                      A
 Frequencies --   3039.4981              3053.3453              3059.0322
 Red. masses --      1.0838                 1.0596                 1.0599
 Frc consts  --      5.8995                 5.8200                 5.8435
 IR Inten    --     18.8315                40.8231                33.6607

                     46                     47                     48
                      A                      A                      A
 Frequencies --   3060.3678              3100.0019              3106.1847
 Red. masses --      1.0625                 1.1018                 1.1013
 Frc consts  --      5.8630                 6.2386                 6.2605
 IR Inten    --     35.0988                 5.3258                 8.6878

                     49                     50                     51
                      A                      A                      A
 Frequencies --   3116.1431              3126.8217              3682.0878
 Red. masses --      1.1005                 1.1045                 1.0651
 Frc consts  --      6.2962                 6.3622                 8.5080
 IR Inten    --     29.2382                31.8091               147.1575

 - Thermochemistry -
 -------------------
 Temperature   298.150 Kelvin.  Pressure   1.00000 Atm.
 Atom     1 has atomic number  8 and mass  15.99491

 Molecular mass:   126.06808 amu.
 Principal axes and moments of inertia in atomic units:
                           1         2         3
     Eigenvalues --   596.128671250.336151535.45426
           X            0.99990  -0.01334   0.00460
           Y            0.01335   0.99991  -0.00102
           Z           -0.00458   0.00108   0.99999
 This molecule is an asymmetric top.
 Rotational symmetry number  1.
 Warning -- assumption of classical behavior for rotation
           may cause significant error
 Rotational temperatures (Kelvin)      0.14529     0.06927     0.05641
 Rotational constants (GHZ):           3.02744     1.44340     1.17538
 Zero-point vibrational energy     417436.0 (Joules/Mol)
                                   99.76960 (Kcal/Mol)
 Warning -- explicit consideration of   9 degrees of freedom as
           vibrations may cause significant error
 Vibrational temperatures:     87.40   156.97   287.13   344.25   454.94
          (Kelvin)            493.35   577.98   599.54   842.97   895.21
                              917.24  1069.99  1079.35  1140.69  1210.15
                             1261.82  1277.73  1307.04  1367.69  1408.95
                             1471.23  1487.59  1500.95  1580.49  1606.45
                             1636.39  1695.30  1735.65  1752.33  1795.46
                             1812.95  1845.55  1876.45  1894.53  1911.59
                             2050.47  2067.87  2116.17  2131.67  2155.70
                             2576.52  4150.32  4373.15  4393.08  4401.26
                             4403.18  4460.21  4469.10  4483.43  4498.79
                             5297.70

 Zero-point correction=                           0.158993 (Hartree/Particle)
 Thermal correction to Energy=                    0.167154
 Thermal correction to Enthalpy=                  0.168098
 Thermal correction to Gibbs Free Energy=         0.126000
 Sum of electronic and zero-point Energies=           -423.013253
 Sum of electronic and thermal Energies=              -423.005092
 Sum of electronic and thermal Enthalpies=            -423.004148
 Sum of electronic and thermal Free Energies=         -423.046246

                     E (Thermal)             CV                S
                      KCal/Mol        Cal/Mol-Kelvin    Cal/Mol-Kelvin
 Total                  104.891             31.551             88.603
 Electronic               0.000              0.000              0.000
 Translational            0.889              2.981             40.409
 Rotational               0.889              2.981             28.528
 Vibrational            103.113             25.589             19.667
 Vibration     1          0.597              1.973              4.433
 Vibration     2          0.606              1.942              3.285
 Vibration     3          0.638              1.840              2.137
 Vibration     4          0.657              1.780              1.808
 Vibration     5          0.703              1.643              1.330
 Vibration     6          0.722              1.590              1.199
 Vibration     7          0.767              1.466              0.956
 Vibration     8          0.780              1.434              0.903
 Vibration     9          0.943              1.062              0.475

 Optimization completed.
    -- Stationary point found.
 Normal termination of Gaussian 09 at Mon Jan 27 19:34:35 2020.
