 Gaussian 09, Revision D.01,
 Gaussian 09:  ES64L-G09RevD.01 24-Apr-2013

 -----------------------------
 # b3lyp 6-31G(2df,p) opt Freq
 -----------------------------

 -----
 titel
 -----
 Symbolic Z-matrix:
 Charge =  0 Multiplicity = 1

 SCF Done:  E(RB3LYP) =  -423.210261544     A.U. after   14 cycles
 Optimization completed.
    -- Stationary point found.
 Normal termination of Gaussian 09 at Tue Jan 28 00:46:56 2020.

 ----------------------------------------------------------------------
 #N Geom=AllCheck Guess=TCheck SCRF=Check GenChk RB3LYP/6-31G(2df,p) Fr
 eq
 ----------------------------------------------------------------------

 Structure from the checkpoint file:  "/scratch/puck/g09_a8103ec8-9a28-4244-bdcf-7d27532fbb39/Gau-37664.chk"
 -----
 titel
 -----
 Charge =  0 Multiplicity = 1

                         Standard orientation:
 ---------------------------------------------------------------------
 Center     Atomic      Atomic             Coordinates (Angstroms)
 Number     Number       Type             X           Y           Z
 ---------------------------------------------------------------------
      1          6           0       -2.104496   -0.653906   -0.895055
      2          6           0       -0.913766   -0.371880   -0.016485
      3          6           0       -0.618096   -1.231352    1.212919
      4          6           0        0.348910   -1.212914    0.072837
      5          6           0        1.562973   -0.291624    0.203464
      6          8           0        2.188297   -0.084816   -1.058115
      7          6           0        0.985684    1.065253    0.631174
      8          6           0       -0.474017    1.053373    0.153599
      9          8           0       -1.146032    2.024673   -0.089869
     10          1           0       -1.925324   -0.313162   -1.919619
     11          1           0       -2.332123   -1.723647   -0.923806
     12          1           0       -2.985975   -0.123424   -0.522689
     13          1           0       -0.355065   -0.757137    2.153001
     14          1           0       -1.245164   -2.109688    1.322699
     15          1           0        0.457007   -2.107351   -0.534101
     16          1           0        2.289186   -0.682442    0.931421
     17          1           0        2.484628   -0.938794   -1.389554
     18          1           0        1.016725    1.205174    1.716864
     19          1           0        1.534830    1.889910    0.174937
 ---------------------------------------------------------------------

 SCF Done:  E(RB3LYP) =  -423.210261544     A.U. after    1 cycles

 The electronic state is 1-A.
 Alpha  occ. eigenvalues --  -19.14307 -19.12178 -10.26101 -10.24521 -10.20551
 Alpha  occ. eigenvalues --  -10.20441 -10.20409 -10.18723 -10.18138  -1.03421
 Alpha  occ. eigenvalues --   -1.02557  -0.89396  -0.76897  -0.72214  -0.66479
 Alpha  occ. eigenvalues --   -0.62593  -0.57783  -0.53845  -0.51007  -0.48964
 Alpha  occ. eigenvalues --   -0.45425  -0.43449  -0.42843  -0.41113  -0.40725
 Alpha  occ. eigenvalues --   -0.40105  -0.38533  -0.37498  -0.35313  -0.33762
 Alpha  occ. eigenvalues --   -0.30871  -0.29153  -0.27144  -0.23522
 Alpha virt. eigenvalues --   -0.00771   0.07092   0.08863   0.09425   0.12485
 Alpha virt. eigenvalues --    0.12751   0.15002   0.15412   0.15964   0.16565
 Alpha virt. eigenvalues --    0.17797   0.18784   0.20625   0.21806   0.23117

 Mulliken charges:
               1
     1  C   -0.485033
     2  C    0.240331
     3  C   -0.341630
     4  C   -0.115233
     5  C    0.121382
     6  O   -0.435147
     7  C   -0.355650
     8  C    0.376107
     9  O   -0.335029
    10  H    0.131501
    11  H    0.109984
    12  H    0.138876
    13  H    0.119376
    14  H    0.122414
    15  H    0.085286
    16  H    0.068945
    17  H    0.281661
    18  H    0.126283
    19  H    0.145577
 Sum of Mulliken charges =   0.00000

 Dipole moment (field-independent basis, Debye):
    X=              1.2288    Y=             -3.7302    Z=              0.9499  Tot=              4.0406
 Quadrupole moment (field-independent basis, Debye-Ang):
   XX=            -53.6463   YY=            -55.8109   ZZ=            -51.3033
   XY=              1.6240   XZ=              0.2875   YZ=              3.0590

  Exact polarizability:  80.161  -0.849  78.209   2.207  -1.011  67.831
 Approx polarizability: 110.188  -8.698 121.129   1.443  -5.360 103.761

                      1                      2                      3
                      A                      A                      A
 Frequencies --     95.2392               121.7382               162.4906
 Red. masses --      4.5989                 3.0857                 1.1019
 Frc consts  --      0.0246                 0.0269                 0.0171
 IR Inten    --      1.0218                 0.9476                 0.0493

                      4                      5                      6
                      A                      A                      A
 Frequencies --    249.1453               292.2750               304.2634
 Red. masses --      3.0832                 2.5184                 1.1701
 Frc consts  --      0.1128                 0.1268                 0.0638
 IR Inten    --      6.3940                13.2702                95.8154

                      7                      8                      9
                      A                      A                      A
 Frequencies --    361.9806               394.9661               446.5967
 Red. masses --      2.8353                 2.5752                 3.2332
 Frc consts  --      0.2189                 0.2367                 0.3799
 IR Inten    --      4.6022                 4.8593                11.2308

                     10                     11                     12
                      A                      A                      A
 Frequencies --    477.5251               532.7064               640.2019
 Red. masses --      3.4840                 3.2624                 3.4321
 Frc consts  --      0.4681                 0.5455                 0.8288
 IR Inten    --      6.0616                 1.4635                 6.5122

                     13                     14                     15
                      A                      A                      A
 Frequencies --    656.2076               730.3538               809.6361
 Red. masses --      4.3687                 4.5077                 1.9643
 Frc consts  --      1.1084                 1.4167                 0.7586
 IR Inten    --      3.8443                 6.2440                 0.7015

                     16                     17                     18
                      A                      A                      A
 Frequencies --    848.6247               859.6453               890.7004
 Red. masses --      2.3328                 2.7453                 2.0591
 Frc consts  --      0.9898                 1.1953                 0.9625
 IR Inten    --      4.3135                12.4371                 7.1897

                     19                     20                     21
                      A                      A                      A
 Frequencies --    955.2381               985.2006              1030.9333
 Red. masses --      1.4416                 1.8201                 2.2738
 Frc consts  --      0.7750                 1.0409                 1.4238
 IR Inten    --      8.0829                22.9047                12.6468

                     22                     23                     24
                      A                      A                      A
 Frequencies --   1051.2020              1059.3975              1074.9711
 Red. masses --      1.9603                 1.2989                 2.3771
 Frc consts  --      1.2763                 0.8589                 1.6184
 IR Inten    --     14.6330                 5.5755                32.1947

                     25                     26                     27
                      A                      A                      A
 Frequencies --   1097.4048              1112.2829              1126.3097
 Red. masses --      1.7022                 1.7465                 1.8354
 Frc consts  --      1.2078                 1.2731                 1.3718
 IR Inten    --     21.9408                15.8707                18.9504

                     28                     29                     30
                      A                      A                      A
 Frequencies --   1185.5712              1217.3899              1271.4150
 Red. masses --      1.3635                 1.3268                 1.6354
 Frc consts  --      1.1292                 1.1585                 1.5576
 IR Inten    --      0.8525                40.4592                12.3367

                     31                     32                     33
                      A                      A                      A
 Frequencies --   1297.5390              1319.2902              1347.5058
 Red. masses --      1.6221                 3.3740                 1.4797
 Frc consts  --      1.6091                 3.4600                 1.5830
 IR Inten    --     20.1466                25.0597                48.7027

                     34                     35                     36
                      A                      A                      A
 Frequencies --   1386.2998              1417.2660              1426.5768
 Red. masses --      1.9214                 1.3124                 1.4103
 Frc consts  --      2.1756                 1.5531                 1.6911
 IR Inten    --      2.2463                 1.7679                 3.7376

                     37                     38                     39
                      A                      A                      A
 Frequencies --   1450.8673              1482.6031              1498.0406
 Red. masses --      1.2448                 1.0460                 1.0559
 Frc consts  --      1.5439                 1.3547                 1.3962
 IR Inten    --     12.6775                 3.9833                 8.3940

                     40                     41                     42
                      A                      A                      A
 Frequencies --   1499.7910              1832.7080              2988.2026
 Red. masses --      1.2819                12.5576                 1.0842
 Frc consts  --      1.6990                24.8510                 5.7043
 IR Inten    --      4.2886               243.2231                67.2449

                     43                     44                     45
                      A                      A                      A
 Frequencies --   3038.6841              3064.0626              3106.8503
 Red. masses --      1.0350                 1.0667                 1.1013
 Frc consts  --      5.6306                 5.9006                 6.2635
 IR Inten    --     24.8710                 6.9354                15.0784

                     46                     47                     48
                      A                      A                      A
 Frequencies --   3112.2852              3128.6995              3134.1972
 Red. masses --      1.1016                 1.0550                 1.0961
 Frc consts  --      6.2866                 6.0844                 6.3438
 IR Inten    --     13.8823                12.3777                 3.5221

                     49                     50                     51
                      A                      A                      A
 Frequencies --   3152.6960              3212.8474              3814.1987
 Red. masses --      1.0911                 1.1160                 1.0661
 Frc consts  --      6.3896                 6.7875                 9.1379
 IR Inten    --     14.5023                 7.0005                19.4230

 - Thermochemistry -
 -------------------
 Temperature   298.150 Kelvin.  Pressure   1.00000 Atm.
 Atom     1 has atomic number  6 and mass  12.00000

 Molecular mass:   126.06808 amu.
 Principal axes and moments of inertia in atomic units:
                           1         2         3
     Eigenvalues --   795.275151122.413861431.31758
           X            0.99657   0.07658   0.03136
           Y           -0.07738   0.99668   0.02521
           Z           -0.02932  -0.02755   0.99919
 This molecule is an asymmetric top.
 Rotational symmetry number  1.
 Warning -- assumption of classical behavior for rotation
           may cause significant error
 Rotational temperatures (Kelvin)      0.10891     0.07717     0.06051
 Rotational constants (GHZ):           2.26933     1.60791     1.26090
 Zero-point vibrational energy     417214.5 (Joules/Mol)
                                   99.71667 (Kcal/Mol)
 Warning -- explicit consideration of  11 degrees of freedom as
           vibrations may cause significant error
 Vibrational temperatures:    137.03   175.15   233.79   358.46   420.52
          (Kelvin)            437.77   520.81   568.27   642.55   687.05
                              766.44   921.11   944.14  1050.81  1164.88
                             1220.98  1236.84  1281.52  1374.37  1417.48
                             1483.28  1512.44  1524.23  1546.64  1578.92
                             1600.32  1620.51  1705.77  1751.55  1829.28
                             1866.87  1898.16  1938.76  1994.57  2039.13
                             2052.52  2087.47  2133.13  2155.34  2157.86
                             2636.85  4299.35  4371.98  4408.50  4470.06
                             4477.88  4501.50  4509.41  4536.02  4622.57
                             5487.77

 Zero-point correction=                           0.158909 (Hartree/Particle)
 Thermal correction to Energy=                    0.167531
 Thermal correction to Enthalpy=                  0.168475
 Thermal correction to Gibbs Free Energy=         0.125874
 Sum of electronic and zero-point Energies=           -423.051353
 Sum of electronic and thermal Energies=              -423.042731
 Sum of electronic and thermal Enthalpies=            -423.041787
 Sum of electronic and thermal Free Energies=         -423.084388

                     E (Thermal)             CV                S
                      KCal/Mol        Cal/Mol-Kelvin    Cal/Mol-Kelvin
 Total                  105.127             33.199             89.662
 Electronic               0.000              0.000              0.000
 Translational            0.889              2.981             40.409
 Rotational               0.889              2.981             28.637
 Vibrational            103.350             27.238             20.617
 Vibration     1          0.603              1.953              3.549
 Vibration     2          0.609              1.931              3.073
 Vibration     3          0.623              1.888              2.521
 Vibration     4          0.662              1.764              1.737
 Vibration     5          0.688              1.688              1.461
 Vibration     6          0.695              1.666              1.393
 Vibration     7          0.736              1.551              1.114
 Vibration     8          0.762              1.481              0.981
 Vibration     9          0.806              1.368              0.806
 Vibration    10          0.834              1.300              0.717
 Vibration    11          0.888              1.178              0.581

 Optimization completed.
    -- Stationary point found.
 Normal termination of Gaussian 09 at Tue Jan 28 02:59:42 2020.
