 Gaussian 09, Revision D.01,
 Gaussian 09:  ES64L-G09RevD.01 24-Apr-2013

 -----------------------------
 # b3lyp 6-31G(2df,p) opt Freq
 -----------------------------

 -----
 titel
 -----
 Symbolic Z-matrix:
 Charge =  0 Multiplicity = 1

 SCF Done:  E(RB3LYP) =  -423.138707011     A.U. after   14 cycles
 Optimization completed.
    -- Stationary point found.
 Normal termination of Gaussian 09 at Tue Jan 28 08:43:12 2020.

 ----------------------------------------------------------------------
 #N Geom=AllCheck Guess=TCheck SCRF=Check GenChk RB3LYP/6-31G(2df,p) Fr
 eq
 ----------------------------------------------------------------------

 Structure from the checkpoint file:  "/scratch/puck/g09_3b2efbbc-9567-4b24-ab6a-57b76d0a59f8/Gau-129284.chk"
 -----
 titel
 -----
 Charge =  0 Multiplicity = 1

                         Standard orientation:
 ---------------------------------------------------------------------
 Center     Atomic      Atomic             Coordinates (Angstroms)
 Number     Number       Type             X           Y           Z
 ---------------------------------------------------------------------
      1          6           0        2.072185   -1.310959    0.331596
      2          8           0        1.142771   -0.753106   -0.577154
      3          6           0        0.486361    0.424178   -0.151612
      4          6           0        1.452540    1.601073   -0.110604
      5          6           0       -0.570016    0.219365    1.007195
      6          6           0       -1.389053    1.383669    0.350977
      7          6           0       -0.887189    0.567651   -0.888730
      8          6           0       -1.305180   -0.649336   -0.036305
      9          8           0       -1.940424   -1.651648   -0.110785
     10          1           0        1.626819   -1.473015    1.323116
     11          1           0        2.368255   -2.278117   -0.080251
     12          1           0        2.971422   -0.690783    0.447309
     13          1           0        0.963966    2.558338    0.072636
     14          1           0        2.202620    1.462715    0.673623
     15          1           0        1.976401    1.662218   -1.069070
     16          1           0       -0.395935    0.046503    2.067256
     17          1           0       -2.464274    1.381763    0.531027
     18          1           0       -0.974290    2.382874    0.467139
     19          1           0       -1.051655    0.771689   -1.944380
 ---------------------------------------------------------------------

 SCF Done:  E(RB3LYP) =  -423.138707011     A.U. after    1 cycles

 The electronic state is 1-A.
 Alpha  occ. eigenvalues --  -19.14857 -19.13083 -10.27250 -10.26242 -10.22992
 Alpha  occ. eigenvalues --  -10.21107 -10.20841 -10.20749 -10.18884  -1.05202
 Alpha  occ. eigenvalues --   -1.03868  -0.91555  -0.74871  -0.70410  -0.65395
 Alpha  occ. eigenvalues --   -0.64632  -0.58062  -0.52192  -0.51554  -0.47743
 Alpha  occ. eigenvalues --   -0.46415  -0.45569  -0.43115  -0.42157  -0.40930
 Alpha  occ. eigenvalues --   -0.40124  -0.39289  -0.35824  -0.34941  -0.34084
 Alpha  occ. eigenvalues --   -0.33523  -0.30148  -0.26550  -0.23746
 Alpha virt. eigenvalues --    0.01724   0.08147   0.10622   0.11013   0.11903
 Alpha virt. eigenvalues --    0.13035   0.13316   0.14597   0.14839   0.15563
 Alpha virt. eigenvalues --    0.16830   0.18059   0.18724   0.19192   0.19695

 Mulliken charges:
               1
     1  C   -0.254852
     2  O   -0.290440
     3  C    0.464493
     4  C   -0.481532
     5  C   -0.245857
     6  C   -0.267988
     7  C   -0.230401
     8  C    0.463425
     9  O   -0.326086
    10  H    0.113030
    11  H    0.136747
    12  H    0.110809
    13  H    0.126705
    14  H    0.126326
    15  H    0.135132
    16  H    0.089490
    17  H    0.123439
    18  H    0.113678
    19  H    0.093880
 Sum of Mulliken charges =   0.00000

 Dipole moment (field-independent basis, Debye):
    X=              2.0586    Y=              2.8414    Z=              1.1496  Tot=              3.6923
 Quadrupole moment (field-independent basis, Debye-Ang):
   XX=            -54.0601   YY=            -55.3995   ZZ=            -52.3894
   XY=             -6.1650   XZ=              1.0306   YZ=             -1.5901

  Exact polarizability:  82.633   0.274  79.406   0.863  -0.768  65.807
 Approx polarizability: 112.739   5.316 119.522   1.493   0.646 105.545

                      1                      2                      3
                      A                      A                      A
 Frequencies --     68.6194               142.4780               164.8826
 Red. masses --      2.1056                 1.5752                 1.6163
 Frc consts  --      0.0058                 0.0188                 0.0259
 IR Inten    --      2.8829                 0.3320                 0.3396

                      4                      5                      6
                      A                      A                      A
 Frequencies --    172.2898               210.7377               290.3333
 Red. masses --      2.2400                 2.0234                 2.5094
 Frc consts  --      0.0392                 0.0529                 0.1246
 IR Inten    --      0.9234                 0.9122                 1.1495

                      7                      8                      9
                      A                      A                      A
 Frequencies --    367.2930               408.2654               458.7118
 Red. masses --      3.7251                 3.1382                 3.5689
 Frc consts  --      0.2961                 0.3082                 0.4425
 IR Inten    --      3.2825                 3.1225                 1.3263

                     10                     11                     12
                      A                      A                      A
 Frequencies --    470.7263               523.7340               631.6393
 Red. masses --      2.9519                 3.6369                 4.1975
 Frc consts  --      0.3854                 0.5878                 0.9867
 IR Inten    --      1.3048                 8.5349                 2.8138

                     13                     14                     15
                      A                      A                      A
 Frequencies --    702.6247               769.2770               777.1578
 Red. masses --      2.8623                 4.0775                 3.7206
 Frc consts  --      0.8326                 1.4217                 1.3240
 IR Inten    --      7.5402                 1.4015                10.4685

                     16                     17                     18
                      A                      A                      A
 Frequencies --    805.5196               876.9529               913.9253
 Red. masses --      4.2742                 2.1532                 2.1703
 Frc consts  --      1.6340                 0.9756                 1.0681
 IR Inten    --      1.7523                 3.9851                 8.7995

                     19                     20                     21
                      A                      A                      A
 Frequencies --    938.5954              1015.1244              1039.0372
 Red. masses --      1.5153                 1.3814                 1.3344
 Frc consts  --      0.7865                 0.8387                 0.8488
 IR Inten    --     10.9024                 9.5191                 1.8854

                     22                     23                     24
                      A                      A                      A
 Frequencies --   1049.6174              1087.7741              1098.1037
 Red. masses --      1.3494                 3.5675                 4.2912
 Frc consts  --      0.8759                 2.4871                 3.0487
 IR Inten    --      4.1115                41.5972                18.8628

                     25                     26                     27
                      A                      A                      A
 Frequencies --   1114.7157              1142.4222              1157.6278
 Red. masses --      1.5781                 2.1972                 1.5922
 Frc consts  --      1.1553                 1.6896                 1.2571
 IR Inten    --      3.7906                15.1808                 9.1565

                     28                     29                     30
                      A                      A                      A
 Frequencies --   1180.4665              1191.9538              1201.8140
 Red. masses --      1.2873                 2.4096                 1.7997
 Frc consts  --      1.0569                 2.0171                 1.5316
 IR Inten    --      1.9279                86.0924                 6.3594

                     31                     32                     33
                      A                      A                      A
 Frequencies --   1220.4206              1237.5178              1286.4442
 Red. masses --      1.9952                 1.8690                 2.9402
 Frc consts  --      1.7508                 1.6864                 2.8669
 IR Inten    --     48.1582                30.7071                45.9576

                     34                     35                     36
                      A                      A                      A
 Frequencies --   1412.7046              1474.2113              1483.6297
 Red. masses --      1.2718                 1.1141                 1.0553
 Frc consts  --      1.4954                 1.4266                 1.3686
 IR Inten    --     12.4381                 1.0236                 6.8307

                     37                     38                     39
                      A                      A                      A
 Frequencies --   1488.0646              1502.6965              1507.8658
 Red. masses --      1.0585                 1.0808                 1.0492
 Frc consts  --      1.3809                 1.4379                 1.4055
 IR Inten    --      1.4849                 4.7534                 7.3105

                     40                     41                     42
                      A                      A                      A
 Frequencies --   1527.3493              1929.6738              2995.1868
 Red. masses --      1.0847                12.0822                 1.0354
 Frc consts  --      1.4909                26.5072                 5.4729
 IR Inten    --      2.5537               369.9935                45.5229

                     43                     44                     45
                      A                      A                      A
 Frequencies --   3046.3965              3053.4914              3095.9282
 Red. masses --      1.0843                 1.0556                 1.0566
 Frc consts  --      5.9289                 5.7991                 5.9669
 IR Inten    --     14.8689                48.5432                20.0252

                     46                     47                     48
                      A                      A                      A
 Frequencies --   3111.8711              3122.3461              3139.5839
 Red. masses --      1.1008                 1.0977                 1.0998
 Frc consts  --      6.2804                 6.3049                 6.3872
 IR Inten    --     14.8551                22.1844                21.4059

                     49                     50                     51
                      A                      A                      A
 Frequencies --   3141.9468              3150.5547              3166.7723
 Red. masses --      1.0923                 1.0945                 1.1070
 Frc consts  --      6.3534                 6.4008                 6.5411
 IR Inten    --     31.1663                12.2057                16.6282

 - Thermochemistry -
 -------------------
 Temperature   298.150 Kelvin.  Pressure   1.00000 Atm.
 Atom     1 has atomic number  6 and mass  12.00000

 Molecular mass:   126.06808 amu.
 Principal axes and moments of inertia in atomic units:
                           1         2         3
     Eigenvalues --   743.246761056.169931495.82044
           X            0.99673  -0.08000   0.01161
           Y            0.08020   0.99662  -0.01768
           Z           -0.01015   0.01855   0.99978
 This molecule is an asymmetric top.
 Rotational symmetry number  1.
 Warning -- assumption of classical behavior for rotation
           may cause significant error
 Rotational temperatures (Kelvin)      0.11653     0.08201     0.05790
 Rotational constants (GHZ):           2.42819     1.70876     1.20652
 Zero-point vibrational energy     413112.9 (Joules/Mol)
                                   98.73634 (Kcal/Mol)
 Warning -- explicit consideration of  11 degrees of freedom as
           vibrations may cause significant error
 Vibrational temperatures:     98.73   204.99   237.23   247.89   303.20
          (Kelvin)            417.72   528.45   587.40   659.98   677.27
                              753.54   908.79  1010.92  1106.82  1118.16
                             1158.96  1261.74  1314.93  1350.43  1460.54
                             1494.94  1510.16  1565.06  1579.92  1603.83
                             1643.69  1665.57  1698.43  1714.95  1729.14
                             1755.91  1780.51  1850.90  2032.56  2121.06
                             2134.61  2140.99  2162.04  2169.48  2197.51
                             2776.37  4309.40  4383.08  4393.29  4454.34
                             4477.28  4492.35  4517.16  4520.56  4532.94
                             4556.27

 Zero-point correction=                           0.157346 (Hartree/Particle)
 Thermal correction to Energy=                    0.166192
 Thermal correction to Enthalpy=                  0.167136
 Thermal correction to Gibbs Free Energy=         0.123855
 Sum of electronic and zero-point Energies=           -422.981361
 Sum of electronic and thermal Energies=              -422.972515
 Sum of electronic and thermal Enthalpies=            -422.971571
 Sum of electronic and thermal Free Energies=         -423.014852

                     E (Thermal)             CV                S
                      KCal/Mol        Cal/Mol-Kelvin    Cal/Mol-Kelvin
 Total                  104.287             33.328             91.092
 Electronic               0.000              0.000              0.000
 Translational            0.889              2.981             40.409
 Rotational               0.889              2.981             28.553
 Vibrational            102.509             27.366             22.130
 Vibration     1          0.598              1.969              4.193
 Vibration     2          0.616              1.911              2.770
 Vibration     3          0.623              1.886              2.493
 Vibration     4          0.626              1.877              2.410
 Vibration     5          0.643              1.824              2.037
 Vibration     6          0.686              1.692              1.472
 Vibration     7          0.740              1.540              1.091
 Vibration     8          0.773              1.452              0.933
 Vibration     9          0.817              1.342              0.770
 Vibration    10          0.828              1.315              0.736
 Vibration    11          0.879              1.197              0.601

 Normal termination of Gaussian 09 at Tue Jan 28 09:26:46 2020.
