 Gaussian 09, Revision D.01,
 Gaussian 09:  ES64L-G09RevD.01 24-Apr-2013

 -----------------------------
 # b3lyp 6-31G(2df,p) opt Freq
 -----------------------------

 -----
 titel
 -----
 Symbolic Z-matrix:
 Charge =  0 Multiplicity = 1

 SCF Done:  E(RB3LYP) =  -423.153725319     A.U. after   13 cycles
 Optimization completed.
    -- Stationary point found.
 Normal termination of Gaussian 09 at Mon Jan 27 16:26:06 2020.

 ----------------------------------------------------------------------
 #N Geom=AllCheck Guess=TCheck SCRF=Check GenChk RB3LYP/6-31G(2df,p) Fr
 eq
 ----------------------------------------------------------------------

 Structure from the checkpoint file:  "/scratch/puck/g09_5fea4736-9137-46bf-8a82-5d061c97fe8e/Gau-47401.chk"
 -----
 titel
 -----
 Charge =  0 Multiplicity = 1

                         Standard orientation:
 ---------------------------------------------------------------------
 Center     Atomic      Atomic             Coordinates (Angstroms)
 Number     Number       Type             X           Y           Z
 ---------------------------------------------------------------------
      1          8           0        0.443389    1.458001   -0.938434
      2          6           0       -0.080764    0.455245   -0.089097
      3          6           0        0.941614    0.086440    1.017254
      4          6           0        2.233794   -0.291658    0.457176
      5          6           0        3.279077   -0.570686   -0.069861
      6          6           0       -1.412001    0.952195    0.529471
      7          6           0       -2.413079   -0.188567    0.242759
      8          8           0       -1.624296   -1.323287   -0.105614
      9          6           0       -0.540493   -0.809367   -0.855822
     10          1           0        1.333032    1.183812   -1.196345
     11          1           0        1.068056    0.947421    1.684001
     12          1           0        0.529258   -0.733842    1.616650
     13          1           0        4.213547   -0.834136   -0.500658
     14          1           0       -1.308071    1.140353    1.601127
     15          1           0       -1.699192    1.889345    0.049565
     16          1           0       -3.031710   -0.461845    1.100851
     17          1           0       -3.079249    0.079169   -0.591795
     18          1           0        0.225212   -1.585160   -0.934392
     19          1           0       -0.852520   -0.504448   -1.867899
 ---------------------------------------------------------------------

 SCF Done:  E(RB3LYP) =  -423.153725319     A.U. after    1 cycles

 The electronic state is 1-A.
 Alpha  occ. eigenvalues --  -19.13942 -19.13805 -10.24673 -10.22784 -10.22017
 Alpha  occ. eigenvalues --  -10.21184 -10.19401 -10.18462 -10.18428  -1.04200
 Alpha  occ. eigenvalues --   -1.02076  -0.80647  -0.76422  -0.73358  -0.69624
 Alpha  occ. eigenvalues --   -0.60773  -0.57874  -0.53861  -0.51841  -0.49705
 Alpha  occ. eigenvalues --   -0.46833  -0.46099  -0.45348  -0.43311  -0.39745
 Alpha  occ. eigenvalues --   -0.38582  -0.37203  -0.35140  -0.33832  -0.32002
 Alpha  occ. eigenvalues --   -0.28582  -0.27705  -0.26800  -0.24878
 Alpha virt. eigenvalues --    0.03581   0.04648   0.08657   0.09383   0.11852
 Alpha virt. eigenvalues --    0.12135   0.13112   0.14552   0.15444   0.15837
 Alpha virt. eigenvalues --    0.16275   0.18027   0.19259   0.20379   0.21928

 Mulliken charges:
               1
     1  O   -0.480133
     2  C    0.400283
     3  C   -0.399476
     4  C    0.257341
     5  C   -0.420744
     6  C   -0.296322
     7  C   -0.074657
     8  O   -0.244741
     9  C   -0.143159
    10  H    0.282245
    11  H    0.135198
    12  H    0.143751
    13  H    0.202304
    14  H    0.105533
    15  H    0.123478
    16  H    0.108796
    17  H    0.096162
    18  H    0.112184
    19  H    0.091959
 Sum of Mulliken charges =   0.00000

 Dipole moment (field-independent basis, Debye):
    X=              0.6478    Y=              0.3382    Z=              0.4317  Tot=              0.8487
 Quadrupole moment (field-independent basis, Debye-Ang):
   XX=            -47.6288   YY=            -58.6923   ZZ=            -51.4997
   XY=             -3.6508   XZ=             -3.6452   YZ=              1.9690

  Exact polarizability:  99.688  -7.354  62.875  -8.540   2.255  66.850
 Approx polarizability: 135.667 -12.152  96.190 -19.447   2.114 102.931

                      1                      2                      3
                      A                      A                      A
 Frequencies --     49.2614                89.8590               136.3114
 Red. masses --      2.6252                 3.3037                 4.0151
 Frc consts  --      0.0038                 0.0157                 0.0440
 IR Inten    --      0.5555                 0.2179                 0.1363

                      4                      5                      6
                      A                      A                      A
 Frequencies --    227.0979               295.7665               342.7407
 Red. masses --      3.1427                 3.0818                 2.9438
 Frc consts  --      0.0955                 0.1588                 0.2037
 IR Inten    --      5.4855                 0.6318                 3.5237

                      7                      8                      9
                      A                      A                      A
 Frequencies --    363.2232               392.6455               410.2695
 Red. masses --      2.2592                 1.2325                 3.6031
 Frc consts  --      0.1756                 0.1120                 0.3573
 IR Inten    --      3.2858                64.0901                 6.9547

                     10                     11                     12
                      A                      A                      A
 Frequencies --    424.0266               512.9047               624.8516
 Red. masses --      2.8351                 3.8159                 1.5645
 Frc consts  --      0.3003                 0.5915                 0.3599
 IR Inten    --     37.5878                12.4392                23.3213

                     13                     14                     15
                      A                      A                      A
 Frequencies --    633.0332               659.0355               688.6181
 Red. masses --      2.4237                 1.2417                 3.0251
 Frc consts  --      0.5722                 0.3178                 0.8452
 IR Inten    --     27.2069                40.7767                 2.1073

                     16                     17                     18
                      A                      A                      A
 Frequencies --    793.7572               828.0204               903.2096
 Red. masses --      3.5977                 1.5710                 1.9941
 Frc consts  --      1.3355                 0.6346                 0.9585
 IR Inten    --      3.0546                 7.5231                 2.5038

                     19                     20                     21
                      A                      A                      A
 Frequencies --    928.5995               961.9986               976.7900
 Red. masses --      3.2481                 3.4729                 2.2989
 Frc consts  --      1.6502                 1.8936                 1.2923
 IR Inten    --      2.0748                15.3671                 2.5474

                     22                     23                     24
                      A                      A                      A
 Frequencies --    986.0137              1015.5934              1092.2763
 Red. masses --      2.8229                 1.7208                 4.1000
 Frc consts  --      1.6170                 1.0458                 2.8820
 IR Inten    --     12.7997                11.5751                92.1990

                     25                     26                     27
                      A                      A                      A
 Frequencies --   1105.1837              1131.9607              1170.8622
 Red. masses --      2.1878                 2.7340                 1.7870
 Frc consts  --      1.5744                 2.0640                 1.4434
 IR Inten    --     37.4011                28.0484                15.1726

                     28                     29                     30
                      A                      A                      A
 Frequencies --   1230.4997              1241.2962              1266.0112
 Red. masses --      1.1913                 1.4741                 1.4247
 Frc consts  --      1.0628                 1.3382                 1.3454
 IR Inten    --     12.8873                 2.2910                 1.6468

                     31                     32                     33
                      A                      A                      A
 Frequencies --   1290.4973              1298.9497              1315.4728
 Red. masses --      1.2630                 1.4439                 1.3234
 Frc consts  --      1.2392                 1.4354                 1.3493
 IR Inten    --      2.1196                27.6462                 6.9637

                     34                     35                     36
                      A                      A                      A
 Frequencies --   1358.0537              1376.5833              1414.9965
 Red. masses --      1.4331                 1.3766                 1.5403
 Frc consts  --      1.5572                 1.5370                 1.8170
 IR Inten    --     19.6192                36.1866                32.2862

                     37                     38                     39
                      A                      A                      A
 Frequencies --   1462.6527              1489.0718              1506.5750
 Red. masses --      1.0926                 1.0890                 1.0827
 Frc consts  --      1.3772                 1.4227                 1.4479
 IR Inten    --      6.1978                 4.5983                 1.8043

                     40                     41                     42
                      A                      A                      A
 Frequencies --   1525.6775              2228.0592              2977.3458
 Red. masses --      1.1029                 5.9433                 1.0688
 Frc consts  --      1.5125                17.3831                 5.5822
 IR Inten    --      1.6482                 1.4040                38.6144

                     43                     44                     45
                      A                      A                      A
 Frequencies --   2987.2233              3031.8735              3068.0730
 Red. masses --      1.0717                 1.0582                 1.0640
 Frc consts  --      5.6346                 5.7310                 5.9008
 IR Inten    --     83.5108                 9.2489                16.7816

                     46                     47                     48
                      A                      A                      A
 Frequencies --   3073.5670              3095.8688              3101.0527
 Red. masses --      1.1025                 1.0913                 1.0950
 Frc consts  --      6.1363                 6.1623                 6.2044
 IR Inten    --      7.0540                36.7100                14.6620

                     49                     50                     51
                      A                      A                      A
 Frequencies --   3125.3276              3503.5169              3763.0044
 Red. masses --      1.1037                 1.1613                 1.0655
 Frc consts  --      6.3520                 8.3987                 8.8895
 IR Inten    --     16.6893                71.9728                36.4167

 - Thermochemistry -
 -------------------
 Temperature   298.150 Kelvin.  Pressure   1.00000 Atm.
 Atom     1 has atomic number  8 and mass  15.99491

 Molecular mass:   126.06808 amu.
 Principal axes and moments of inertia in atomic units:
                           1         2         3
     Eigenvalues --   564.164311590.367031742.70101
           X            0.99981  -0.01562  -0.01124
           Y            0.01643   0.99699   0.07577
           Z            0.01002  -0.07594   0.99706
 This molecule is an asymmetric top.
 Rotational symmetry number  1.
 Warning -- assumption of classical behavior for rotation
           may cause significant error
 Rotational temperatures (Kelvin)      0.15353     0.05446     0.04970
 Rotational constants (GHZ):           3.19896     1.13480     1.03560
 Zero-point vibrational energy     415553.7 (Joules/Mol)
                                   99.31973 (Kcal/Mol)
 Warning -- explicit consideration of  11 degrees of freedom as
           vibrations may cause significant error
 Vibrational temperatures:     70.88   129.29   196.12   326.74   425.54
          (Kelvin)            493.13   522.60   564.93   590.29   610.08
                              737.95   899.02   910.79   948.20   990.77
                             1142.04  1191.34  1299.52  1336.05  1384.10
                             1405.38  1418.65  1461.21  1571.54  1590.11
                             1628.64  1684.61  1770.41  1785.95  1821.51
                             1856.74  1868.90  1892.67  1953.93  1980.59
                             2035.86  2104.43  2142.44  2167.62  2195.11
                             3205.68  4283.73  4297.94  4362.18  4414.27
                             4422.17  4454.26  4461.72  4496.64  5040.77
                             5414.12

 Zero-point correction=                           0.158276 (Hartree/Particle)
 Thermal correction to Energy=                    0.167302
 Thermal correction to Enthalpy=                  0.168246
 Thermal correction to Gibbs Free Energy=         0.124181
 Sum of electronic and zero-point Energies=           -422.995449
 Sum of electronic and thermal Energies=              -422.986423
 Sum of electronic and thermal Enthalpies=            -422.985479
 Sum of electronic and thermal Free Energies=         -423.029544

                     E (Thermal)             CV                S
                      KCal/Mol        Cal/Mol-Kelvin    Cal/Mol-Kelvin
 Total                  104.984             34.172             92.742
 Electronic               0.000              0.000              0.000
 Translational            0.889              2.981             40.409
 Rotational               0.889              2.981             28.838
 Vibrational            103.206             28.210             23.496
 Vibration     1          0.595              1.978              4.847
 Vibration     2          0.602              1.956              3.663
 Vibration     3          0.614              1.917              2.855
 Vibration     4          0.651              1.800              1.902
 Vibration     5          0.690              1.682              1.441
 Vibration     6          0.722              1.590              1.199
 Vibration     7          0.737              1.548              1.108
 Vibration     8          0.760              1.486              0.990
 Vibration     9          0.774              1.448              0.926
 Vibration    10          0.786              1.418              0.878
 Vibration    11          0.868              1.221              0.627

 Normal termination of Gaussian 09 at Mon Jan 27 17:07:58 2020.
