 Gaussian 09, Revision D.01,
 Gaussian 09:  ES64L-G09RevD.01 24-Apr-2013

 -----------------------------
 # b3lyp 6-31G(2df,p) opt Freq
 -----------------------------

 -----
 titel
 -----
 Symbolic Z-matrix:
 Charge =  0 Multiplicity = 1

 SCF Done:  E(RB3LYP) =  -423.093552729     A.U. after   13 cycles
 Optimization completed.
    -- Stationary point found.
 Normal termination of Gaussian 09 at Mon Jan 27 16:20:59 2020.

 ----------------------------------------------------------------------
 #N Geom=AllCheck Guess=TCheck SCRF=Check GenChk RB3LYP/6-31G(2df,p) Fr
 eq
 ----------------------------------------------------------------------

 Structure from the checkpoint file:  "/scratch/puck/g09_caa13c22-cb50-4be4-b4bf-1376bc180891/Gau-83638.chk"
 -----
 titel
 -----
 Charge =  0 Multiplicity = 1

                         Standard orientation:
 ---------------------------------------------------------------------
 Center     Atomic      Atomic             Coordinates (Angstroms)
 Number     Number       Type             X           Y           Z
 ---------------------------------------------------------------------
      1          8           0       -0.105191    1.826044    0.019588
      2          6           0       -0.103732    0.437904    0.164157
      3          6           0        1.275603   -0.003571    0.582808
      4          6           0        2.463092    0.399394   -0.254592
      5          6           0        2.067227   -1.048539   -0.170433
      6          6           0       -1.387798   -0.150316    0.848560
      7          6           0       -1.190531   -1.492546    0.121773
      8          6           0       -0.962754   -0.353535   -0.893114
      9          8           0       -2.163179    0.332278   -0.331731
     10          1           0       -1.020859    2.043857   -0.213812
     11          1           0        1.430723    0.028765    1.657790
     12          1           0        2.257765    0.930997   -1.176435
     13          1           0        3.360198    0.726540    0.258181
     14          1           0        1.618062   -1.500338   -1.048388
     15          1           0        2.686394   -1.728192    0.405029
     16          1           0       -1.805816    0.060251    1.834226
     17          1           0       -0.349380   -2.123951    0.405219
     18          1           0       -2.113957   -2.048263   -0.038944
     19          1           0       -0.882809   -0.388987   -1.980681
 ---------------------------------------------------------------------

 SCF Done:  E(RB3LYP) =  -423.093552729     A.U. after    1 cycles

 The electronic state is 1-A.
 Alpha  occ. eigenvalues --  -19.14282 -19.13155 -10.24802 -10.24732 -10.24624
 Alpha  occ. eigenvalues --  -10.19420 -10.19399 -10.19063 -10.18500  -1.07060
 Alpha  occ. eigenvalues --   -1.00730  -0.86020  -0.78771  -0.67668  -0.65631
 Alpha  occ. eigenvalues --   -0.60760  -0.59926  -0.54102  -0.52386  -0.49580
 Alpha  occ. eigenvalues --   -0.48809  -0.46731  -0.41650  -0.40483  -0.39177
 Alpha  occ. eigenvalues --   -0.38175  -0.36481  -0.34888  -0.33055  -0.32114
 Alpha  occ. eigenvalues --   -0.29831  -0.29458  -0.25313  -0.24974
 Alpha virt. eigenvalues --    0.07282   0.09094   0.09749   0.11280   0.12195
 Alpha virt. eigenvalues --    0.12746   0.13576   0.14615   0.15606   0.15683
 Alpha virt. eigenvalues --    0.16483   0.17764   0.19015   0.20148   0.22430

 Mulliken charges:
               1
     1  O   -0.490093
     2  C    0.474135
     3  C   -0.082621
     4  C   -0.255081
     5  C   -0.266045
     6  C   -0.027310
     7  C   -0.231856
     8  C   -0.037414
     9  O   -0.343175
    10  H    0.283793
    11  H    0.092415
    12  H    0.124720
    13  H    0.113025
    14  H    0.114780
    15  H    0.112925
    16  H    0.094061
    17  H    0.115230
    18  H    0.113072
    19  H    0.095439
 Sum of Mulliken charges =   0.00000

 Dipole moment (field-independent basis, Debye):
    X=              0.7040    Y=             -1.6751    Z=              0.3578  Tot=              1.8519
 Quadrupole moment (field-independent basis, Debye-Ang):
   XX=            -55.6298   YY=            -54.5239   ZZ=            -49.9544
   XY=             -0.7861   XZ=             -0.4223   YZ=             -0.3921

  Exact polarizability:  82.206   1.193  73.907  -0.952  -0.108  67.215
 Approx polarizability: 112.419  -0.986 111.744  -1.039   0.055 107.489

                      1                      2                      3
                      A                      A                      A
 Frequencies --     42.6374               164.1231               196.0315
 Red. masses --      2.5371                 3.6906                 3.1876
 Frc consts  --      0.0027                 0.0586                 0.0722
 IR Inten    --      0.1591                 0.2658                 0.7181

                      4                      5                      6
                      A                      A                      A
 Frequencies --    309.2297               341.8899               431.8755
 Red. masses --      4.0442                 3.5831                 3.3778
 Frc consts  --      0.2278                 0.2468                 0.3712
 IR Inten    --      1.4743                 7.9061                 2.5527

                      7                      8                      9
                      A                      A                      A
 Frequencies --    436.0422               546.6706               587.9634
 Red. masses --      3.7515                 2.3025                 2.9484
 Frc consts  --      0.4203                 0.4054                 0.6005
 IR Inten    --      9.0009                 1.2565                 5.7568

                     10                     11                     12
                      A                      A                      A
 Frequencies --    635.2856               698.4635               753.9403
 Red. masses --      1.1300                 4.1139                 5.5385
 Frc consts  --      0.2687                 1.1825                 1.8549
 IR Inten    --     59.7659                10.3963                28.3604

                     13                     14                     15
                      A                      A                      A
 Frequencies --    772.7312               822.4122               826.5762
 Red. masses --      1.2250                 2.1863                 1.2897
 Frc consts  --      0.4310                 0.8713                 0.5192
 IR Inten    --      0.5211                 0.6356                 2.5893

                     16                     17                     18
                      A                      A                      A
 Frequencies --    874.9042               894.2400               906.7608
 Red. masses --      2.9812                 2.3905                 2.4377
 Frc consts  --      1.3445                 1.1263                 1.1809
 IR Inten    --     31.1501                 2.0790                 0.9430

                     19                     20                     21
                      A                      A                      A
 Frequencies --    915.4941               944.1744              1018.7173
 Red. masses --      2.7820                 3.9095                 1.8413
 Frc consts  --      1.3738                 2.0534                 1.1259
 IR Inten    --      7.3682                18.8210                 4.2679

                     22                     23                     24
                      A                      A                      A
 Frequencies --   1024.8445              1038.5843              1062.5266
 Red. masses --      1.3534                 1.7073                 1.3303
 Frc consts  --      0.8375                 1.0850                 0.8849
 IR Inten    --     12.3691                30.9161                 8.1561

                     25                     26                     27
                      A                      A                      A
 Frequencies --   1083.0986              1124.8180              1131.9061
 Red. masses --      1.3393                 2.6786                 1.3207
 Frc consts  --      0.9257                 1.9967                 0.9970
 IR Inten    --      1.4177                 9.3474                 2.5890

                     28                     29                     30
                      A                      A                      A
 Frequencies --   1133.2127              1156.2515              1167.9841
 Red. masses --      1.3925                 1.9177                 1.3171
 Frc consts  --      1.0536                 1.5106                 1.0586
 IR Inten    --      5.2082                 1.8085                 1.8988

                     31                     32                     33
                      A                      A                      A
 Frequencies --   1193.9118              1202.3192              1211.5226
 Red. masses --      1.7731                 1.7835                 1.7108
 Frc consts  --      1.4891                 1.5190                 1.4795
 IR Inten    --     56.5647                38.3479                31.1592

                     34                     35                     36
                      A                      A                      A
 Frequencies --   1234.8846              1274.6475              1277.6704
 Red. masses --      1.8479                 1.5112                 2.1023
 Frc consts  --      1.6603                 1.4466                 2.0220
 IR Inten    --     26.9315                 0.1031                 6.9895

                     37                     38                     39
                      A                      A                      A
 Frequencies --   1372.6083              1444.3458              1471.7627
 Red. masses --      1.4183                 2.0280                 1.0892
 Frc consts  --      1.5744                 2.4926                 1.3901
 IR Inten    --     72.7665                45.0929                 0.2398

                     40                     41                     42
                      A                      A                      A
 Frequencies --   1485.5244              1506.5739              3092.4118
 Red. masses --      1.2020                 1.3820                 1.0568
 Frc consts  --      1.5628                 1.8481                 5.9543
 IR Inten    --     21.6513                 1.6127                21.0907

                     43                     44                     45
                      A                      A                      A
 Frequencies --   3106.3254              3115.5719              3130.6820
 Red. masses --      1.0895                 1.0931                 1.0535
 Frc consts  --      6.1943                 6.2513                 6.0835
 IR Inten    --     78.1099                 2.6578                15.9329

                     46                     47                     48
                      A                      A                      A
 Frequencies --   3140.0726              3144.9925              3171.0067
 Red. masses --      1.0778                 1.0659                 1.1120
 Frc consts  --      6.2613                 6.2114                 6.5879
 IR Inten    --     11.0727                 8.8206                19.3267

                     49                     50                     51
                      A                      A                      A
 Frequencies --   3209.9301              3231.1082              3711.8919
 Red. masses --      1.1174                 1.1159                 1.0630
 Frc consts  --      6.7834                 6.8640                 8.6290
 IR Inten    --      4.0937                14.2396                33.3863

 - Thermochemistry -
 -------------------
 Temperature   298.150 Kelvin.  Pressure   1.00000 Atm.
 Atom     1 has atomic number  8 and mass  15.99491

 Molecular mass:   126.06808 amu.
 Principal axes and moments of inertia in atomic units:
                           1         2         3
     Eigenvalues --   569.404181238.376371531.12227
           X            0.99998   0.00298  -0.00525
           Y           -0.00300   0.99999  -0.00400
           Z            0.00524   0.00402   0.99998
 This molecule is an asymmetric top.
 Rotational symmetry number  1.
 Warning -- assumption of classical behavior for rotation
           may cause significant error
 Rotational temperatures (Kelvin)      0.15211     0.06994     0.05657
 Rotational constants (GHZ):           3.16953     1.45734     1.17870
 Zero-point vibrational energy     417336.1 (Joules/Mol)
                                   99.74573 (Kcal/Mol)
 Warning -- explicit consideration of   9 degrees of freedom as
           vibrations may cause significant error
 Vibrational temperatures:     61.35   236.14   282.05   444.91   491.90
          (Kelvin)            621.37   627.37   786.54   845.95   914.03
                             1004.93  1084.75  1111.79  1183.27  1189.26
                             1258.79  1286.61  1304.62  1317.19  1358.45
                             1465.71  1474.52  1494.29  1528.74  1558.34
                             1618.36  1628.56  1630.44  1663.59  1680.47
                             1717.77  1729.87  1743.11  1776.72  1833.93
                             1838.28  1974.87  2078.09  2117.54  2137.34
                             2167.62  4449.29  4469.30  4482.61  4504.35
                             4517.86  4524.94  4562.37  4618.37  4648.84
                             5340.58

 Zero-point correction=                           0.158955 (Hartree/Particle)
 Thermal correction to Energy=                    0.166738
 Thermal correction to Enthalpy=                  0.167682
 Thermal correction to Gibbs Free Energy=         0.126275
 Sum of electronic and zero-point Energies=           -422.934598
 Sum of electronic and thermal Energies=              -422.926815
 Sum of electronic and thermal Enthalpies=            -422.925871
 Sum of electronic and thermal Free Energies=         -422.967277

                     E (Thermal)             CV                S
                      KCal/Mol        Cal/Mol-Kelvin    Cal/Mol-Kelvin
 Total                  104.630             31.250             87.148
 Electronic               0.000              0.000              0.000
 Translational            0.889              2.981             40.409
 Rotational               0.889              2.981             28.470
 Vibrational            102.852             25.289             18.270
 Vibration     1          0.595              1.980              5.133
 Vibration     2          0.623              1.887              2.502
 Vibration     3          0.636              1.845              2.170
 Vibration     4          0.699              1.656              1.366
 Vibration     5          0.721              1.592              1.203
 Vibration     6          0.793              1.401              0.853
 Vibration     7          0.796              1.392              0.839
 Vibration     8          0.902              1.147              0.551
 Vibration     9          0.945              1.057              0.471

 Optimization completed.
    -- Stationary point found.
 Normal termination of Gaussian 09 at Mon Jan 27 17:05:38 2020.
