 Gaussian 09, Revision D.01,
 Gaussian 09:  ES64L-G09RevD.01 24-Apr-2013

 -----------------------------
 # b3lyp 6-31G(2df,p) opt Freq
 -----------------------------

 -----
 titel
 -----
 Symbolic Z-matrix:
 Charge =  0 Multiplicity = 1

 SCF Done:  E(RB3LYP) =  -423.162345939     A.U. after   14 cycles
 SCF Done:  E(RB3LYP) =  -423.162345872     A.U. after    7 cycles
 Optimization completed.
    -- Stationary point found.
 Normal termination of Gaussian 09 at Mon Jan 27 15:30:04 2020.

 ----------------------------------------------------------------------
 #N Geom=AllCheck Guess=TCheck SCRF=Check GenChk RB3LYP/6-31G(2df,p) Fr
 eq
 ----------------------------------------------------------------------

 Structure from the checkpoint file:  "/scratch/puck/g09_6b686e83-44ae-46bc-b1fc-6525e6ce5fd8/Gau-80764.chk"
 -----
 titel
 -----
 Charge =  0 Multiplicity = 1

                         Standard orientation:
 ---------------------------------------------------------------------
 Center     Atomic      Atomic             Coordinates (Angstroms)
 Number     Number       Type             X           Y           Z
 ---------------------------------------------------------------------
      1          6           0       -1.756925   -1.491168   -0.586692
      2          6           0       -1.529519   -0.158410    0.127025
      3          8           0       -2.491088    0.810370   -0.291333
      4          6           0       -0.156450    0.460911   -0.177502
      5          6           0       -0.002717    1.869802    0.437529
      6          6           0        0.985199   -0.410493    0.329915
      7          8           0        0.857276   -1.267417    1.179551
      8          6           0        2.290168   -0.124954   -0.251324
      9          6           0        3.361524    0.106025   -0.749605
     10          1           0       -1.042822   -2.245907   -0.250688
     11          1           0       -2.763469   -1.868554   -0.371940
     12          1           0       -1.668192   -1.365020   -1.670840
     13          1           0       -1.596158   -0.316901    1.213564
     14          1           0       -3.365276    0.443186   -0.128772
     15          1           0       -0.047691    0.555348   -1.266037
     16          1           0       -0.095202    1.825331    1.527726
     17          1           0        0.972760    2.298445    0.192768
     18          1           0       -0.786089    2.521975    0.051282
     19          1           0        4.314943    0.298198   -1.178870
 ---------------------------------------------------------------------

 SCF Done:  E(RB3LYP) =  -423.162345872     A.U. after    1 cycles

 The electronic state is 1-A.
 Alpha  occ. eigenvalues --  -19.14287 -19.13614 -10.29254 -10.23432 -10.20814
 Alpha  occ. eigenvalues --  -10.20115 -10.20003 -10.18079 -10.17452  -1.05297
 Alpha  occ. eigenvalues --   -1.01863  -0.81057  -0.77185  -0.73256  -0.66704
 Alpha  occ. eigenvalues --   -0.63913  -0.57806  -0.53500  -0.52386  -0.47095
 Alpha  occ. eigenvalues --   -0.45361  -0.44656  -0.43008  -0.42216  -0.39784
 Alpha  occ. eigenvalues --   -0.37967  -0.37537  -0.35387  -0.34912  -0.32067
 Alpha  occ. eigenvalues --   -0.29816  -0.29592  -0.27333  -0.25885
 Alpha virt. eigenvalues --   -0.05887   0.03391   0.07372   0.09292   0.10788
 Alpha virt. eigenvalues --    0.11630   0.12392   0.13866   0.15796   0.17362
 Alpha virt. eigenvalues --    0.17900   0.18152   0.18770   0.21060   0.22963

 Mulliken charges:
               1
     1  C   -0.423234
     2  C    0.135622
     3  O   -0.448331
     4  C   -0.085968
     5  C   -0.409921
     6  C    0.221272
     7  O   -0.304160
     8  C    0.269802
     9  C   -0.397986
    10  H    0.142309
    11  H    0.103616
    12  H    0.118611
    13  H    0.083703
    14  H    0.281808
    15  H    0.098646
    16  H    0.125991
    17  H    0.124158
    18  H    0.149507
    19  H    0.214556
 Sum of Mulliken charges =   0.00000

 Dipole moment (field-independent basis, Debye):
    X=             -0.1164    Y=              0.7609    Z=             -1.3457  Tot=              1.5503
 Quadrupole moment (field-independent basis, Debye-Ang):
   XX=            -41.3580   YY=            -56.8739   ZZ=            -54.9310
   XY=              5.2640   XZ=             -5.5422   YZ=              2.7180

  Exact polarizability: 101.811   5.273  71.060 -10.205  -3.428  63.901
 Approx polarizability: 141.776  11.170 105.076 -23.578 -16.826 107.142

                      1                      2                      3
                      A                      A                      A
 Frequencies --     43.7786                77.4357               132.6034
 Red. masses --      4.4660                 3.5414                 4.1450
 Frc consts  --      0.0050                 0.0125                 0.0429
 IR Inten    --      1.5551                 2.0083                 3.1577

                      4                      5                      6
                      A                      A                      A
 Frequencies --    184.7740               208.0091               234.8752
 Red. masses --      3.9985                 1.6001                 1.6901
 Frc consts  --      0.0804                 0.0408                 0.0549
 IR Inten    --      1.8989                 3.4018                10.6616

                      7                      8                      9
                      A                      A                      A
 Frequencies --    244.1727               264.3646               289.5070
 Red. masses --      1.1362                 1.2626                 2.7120
 Frc consts  --      0.0399                 0.0520                 0.1339
 IR Inten    --      0.9674                65.2111                24.5678

                     10                     11                     12
                      A                      A                      A
 Frequencies --    297.9908               376.5426               404.7280
 Red. masses --      2.9236                 4.0081                 3.9728
 Frc consts  --      0.1530                 0.3348                 0.3834
 IR Inten    --      7.3492                 6.0053                 4.0803

                     13                     14                     15
                      A                      A                      A
 Frequencies --    477.6969               498.8303               616.2941
 Red. masses --      3.5404                 3.1430                 7.0130
 Frc consts  --      0.4760                 0.4608                 1.5694
 IR Inten    --      0.3862                 1.9600                10.7318

                     16                     17                     18
                      A                      A                      A
 Frequencies --    645.4211               704.4968               743.7190
 Red. masses --      1.2368                 1.3620                 4.7855
 Frc consts  --      0.3036                 0.3983                 1.5595
 IR Inten    --     44.8320                24.0179                 9.9390

                     19                     20                     21
                      A                      A                      A
 Frequencies --    808.4049               834.2613               924.7375
 Red. masses --      2.6329                 2.1917                 2.1411
 Frc consts  --      1.0138                 0.8987                 1.0787
 IR Inten    --      6.7137                 1.6925                18.3755

                     22                     23                     24
                      A                      A                      A
 Frequencies --    989.0189              1031.1510              1055.9182
 Red. masses --      1.2302                 2.9596                 2.5664
 Frc consts  --      0.7090                 1.8541                 1.6859
 IR Inten    --      4.6898               100.1295               121.4653

                     25                     26                     27
                      A                      A                      A
 Frequencies --   1073.6605              1108.4599              1144.2692
 Red. masses --      2.0714                 1.7957                 3.1159
 Frc consts  --      1.4069                 1.2999                 2.4038
 IR Inten    --     12.2130                26.5903                19.4582

                     28                     29                     30
                      A                      A                      A
 Frequencies --   1177.2488              1263.4727              1305.7353
 Red. masses --      1.7742                 1.3246                 1.3297
 Frc consts  --      1.4488                 1.2459                 1.3358
 IR Inten    --     31.2894                11.1063                 6.0923

                     31                     32                     33
                      A                      A                      A
 Frequencies --   1344.1170              1369.5760              1396.5415
 Red. masses --      1.5819                 1.2380                 1.2523
 Frc consts  --      1.6838                 1.3682                 1.4390
 IR Inten    --     47.9777                 5.5760                 3.1481

                     34                     35                     36
                      A                      A                      A
 Frequencies --   1405.0917              1428.7458              1493.9682
 Red. masses --      1.2705                 1.4695                 1.0627
 Frc consts  --      1.4778                 1.7674                 1.3975
 IR Inten    --     15.7582                11.5648                 0.3988

                     37                     38                     39
                      A                      A                      A
 Frequencies --   1495.3966              1501.5426              1506.2969
 Red. masses --      1.0492                 1.0515                 1.0843
 Frc consts  --      1.3823                 1.3968                 1.4495
 IR Inten    --     11.0400                13.3164                 0.6766

                     40                     41                     42
                      A                      A                      A
 Frequencies --   1758.7738              2209.2084              2995.4344
 Red. masses --     12.0234                 5.9119                 1.0820
 Frc consts  --     21.9127                16.9999                 5.7203
 IR Inten    --    152.6723                61.1579                22.7708

                     43                     44                     45
                      A                      A                      A
 Frequencies --   3028.5710              3032.6667              3046.5275
 Red. masses --      1.0746                 1.0453                 1.0375
 Frc consts  --      5.8074                 5.6641                 5.6734
 IR Inten    --     12.5277                24.6181                20.9993

                     46                     47                     48
                      A                      A                      A
 Frequencies --   3095.6822              3115.5108              3136.2546
 Red. masses --      1.0998                 1.1009                 1.0993
 Frc consts  --      6.2098                 6.2962                 6.3704
 IR Inten    --     30.2509                22.7389                11.8867

                     49                     50                     51
                      A                      A                      A
 Frequencies --   3152.8052              3493.8443              3824.9284
 Red. masses --      1.1002                 1.1618                 1.0662
 Frc consts  --      6.4432                 8.3555                 9.1905
 IR Inten    --      6.6212                54.5365                18.0609

 - Thermochemistry -
 -------------------
 Temperature   298.150 Kelvin.  Pressure   1.00000 Atm.
 Atom     1 has atomic number  6 and mass  12.00000

 Molecular mass:   126.06808 amu.
 Principal axes and moments of inertia in atomic units:
                           1         2         3
     Eigenvalues --   661.473661719.752802031.37514
           X            0.99941   0.03398  -0.00452
           Y           -0.03364   0.99761   0.06034
           Z            0.00655  -0.06015   0.99817
 This molecule is an asymmetric top.
 Rotational symmetry number  1.
 Warning -- assumption of classical behavior for rotation
           may cause significant error
 Rotational temperatures (Kelvin)      0.13094     0.05036     0.04264
 Rotational constants (GHZ):           2.72836     1.04942     0.88843
 Zero-point vibrational energy     406688.8 (Joules/Mol)
                                   97.20096 (Kcal/Mol)
 Warning -- explicit consideration of  15 degrees of freedom as
           vibrations may cause significant error
 Vibrational temperatures:     62.99   111.41   190.79   265.85   299.28
          (Kelvin)            337.93   351.31   380.36   416.54   428.74
                              541.76   582.31   687.30   717.70   886.71
                              928.62  1013.61  1070.04  1163.11  1200.31
                             1330.49  1422.98  1483.59  1519.23  1544.76
                             1594.82  1646.35  1693.80  1817.85  1878.66
                             1933.88  1970.51  2009.31  2021.61  2055.64
                             2149.48  2151.54  2160.38  2167.22  2530.48
                             3178.55  4309.76  4357.43  4363.33  4383.27
                             4453.99  4482.52  4512.37  4536.18  5026.86
                             5503.21

 Zero-point correction=                           0.154900 (Hartree/Particle)
 Thermal correction to Energy=                    0.165561
 Thermal correction to Enthalpy=                  0.166505
 Thermal correction to Gibbs Free Energy=         0.118992
 Sum of electronic and zero-point Energies=           -423.007446
 Sum of electronic and thermal Energies=              -422.996785
 Sum of electronic and thermal Enthalpies=            -422.995840
 Sum of electronic and thermal Free Energies=         -423.043354

                     E (Thermal)             CV                S
                      KCal/Mol        Cal/Mol-Kelvin    Cal/Mol-Kelvin
 Total                  103.891             38.215            100.000
 Electronic               0.000              0.000              0.000
 Translational            0.889              2.981             40.409
 Rotational               0.889              2.981             29.226
 Vibrational            102.114             32.253             30.366
 Vibration     1          0.595              1.980              5.080
 Vibration     2          0.599              1.964              3.955
 Vibration     3          0.613              1.921              2.908
 Vibration     4          0.631              1.861              2.280
 Vibration     5          0.641              1.828              2.061
 Vibration     6          0.655              1.787              1.841
 Vibration     7          0.660              1.772              1.772
 Vibration     8          0.671              1.738              1.633
 Vibration     9          0.686              1.693              1.477
 Vibration    10          0.691              1.677              1.428
 Vibration    11          0.747              1.520              1.053
 Vibration    12          0.770              1.460              0.945
 Vibration    13          0.834              1.300              0.716
 Vibration    14          0.854              1.253              0.661
 Vibration    15          0.976              0.997              0.422

 Normal termination of Gaussian 09 at Mon Jan 27 16:10:20 2020.
