 Gaussian 09, Revision D.01,
 Gaussian 09:  ES64L-G09RevD.01 24-Apr-2013

 -----------------------------
 # b3lyp 6-31G(2df,p) opt Freq
 -----------------------------

 -----
 titel
 -----
 Symbolic Z-matrix:
 Charge =  0 Multiplicity = 1

 SCF Done:  E(RB3LYP) =  -423.159194850     A.U. after   14 cycles
 Optimization completed.
    -- Stationary point found.
 Normal termination of Gaussian 09 at Mon Jan 27 13:47:03 2020.

 ----------------------------------------------------------------------
 #N Geom=AllCheck Guess=TCheck SCRF=Check GenChk RB3LYP/6-31G(2df,p) Fr
 eq
 ----------------------------------------------------------------------

 Structure from the checkpoint file:  "/scratch/puck/g09_a914a4a0-2f99-4214-875c-8b717fa4c621/Gau-169725.chk"
 -----
 titel
 -----
 Charge =  0 Multiplicity = 1

                         Standard orientation:
 ---------------------------------------------------------------------
 Center     Atomic      Atomic             Coordinates (Angstroms)
 Number     Number       Type             X           Y           Z
 ---------------------------------------------------------------------
      1          8           0       -3.393151    0.005325   -0.291392
      2          6           0       -2.488572   -0.562943    0.264812
      3          6           0       -1.092168   -0.718728   -0.286995
      4          6           0       -0.077796    0.048471    0.575868
      5          6           0       -0.043595    1.592840    0.335975
      6          6           0        1.270122    1.434469   -0.490842
      7          6           0        1.355115   -0.005164    0.019072
      8          6           0        2.504318   -0.751539    0.532291
      9          8           0        1.876520   -1.097556   -0.712618
     10          1           0       -2.631442   -1.007265    1.278989
     11          1           0       -0.823582   -1.783367   -0.280114
     12          1           0       -1.078125   -0.367323   -1.322735
     13          1           0       -0.174682   -0.258166    1.623078
     14          1           0       -0.902721    2.003192   -0.197857
     15          1           0        0.099674    2.159703    1.257958
     16          1           0        1.103165    1.472287   -1.570775
     17          1           0        2.100872    2.098524   -0.242232
     18          1           0        3.506128   -0.332291    0.446085
     19          1           0        2.369224   -1.471892    1.338601
 ---------------------------------------------------------------------

 SCF Done:  E(RB3LYP) =  -423.159194850     A.U. after    1 cycles

 The electronic state is 1-A.
 Alpha  occ. eigenvalues --  -19.15745 -19.13964 -10.27163 -10.24699 -10.23884
 Alpha  occ. eigenvalues --  -10.20592 -10.19613 -10.19345 -10.19200  -1.07815
 Alpha  occ. eigenvalues --   -1.04608  -0.85392  -0.76214  -0.67265  -0.65631
 Alpha  occ. eigenvalues --   -0.63718  -0.57652  -0.54076  -0.50664  -0.49252
 Alpha  occ. eigenvalues --   -0.47800  -0.47020  -0.43311  -0.42694  -0.41483
 Alpha  occ. eigenvalues --   -0.38826  -0.37299  -0.36260  -0.35711  -0.33240
 Alpha  occ. eigenvalues --   -0.32348  -0.29795  -0.26964  -0.24935
 Alpha virt. eigenvalues --   -0.02207   0.06547   0.09119   0.10212   0.11004
 Alpha virt. eigenvalues --    0.11683   0.13421   0.14316   0.14632   0.14794
 Alpha virt. eigenvalues --    0.16355   0.17861   0.18623   0.19702   0.20993

 Mulliken charges:
               1
     1  O   -0.239110
     2  C    0.154970
     3  C   -0.271763
     4  C   -0.121445
     5  C   -0.233195
     6  C   -0.315475
     7  C    0.460610
     8  C   -0.263165
     9  O   -0.267317
    10  H    0.070192
    11  H    0.127086
    12  H    0.122473
    13  H    0.077887
    14  H    0.122839
    15  H    0.109906
    16  H    0.122958
    17  H    0.109675
    18  H    0.117917
    19  H    0.114959
 Sum of Mulliken charges =   0.00000

 Dipole moment (field-independent basis, Debye):
    X=              2.3335    Y=              0.2593    Z=              2.0630  Tot=              3.1255
 Quadrupole moment (field-independent basis, Debye-Ang):
   XX=            -62.8477   YY=            -52.3460   ZZ=            -52.5917
   XY=              4.2472   XZ=              0.6076   YZ=             -2.3440

  Exact polarizability:  92.602  -3.060  71.264   2.254  -5.303  66.168
 Approx polarizability: 121.459  -9.163 104.309   7.150  -6.299 105.316

                      1                      2                      3
                      A                      A                      A
 Frequencies --     38.9623                73.2817                76.7092
 Red. masses --      5.0707                 3.5038                 2.4792
 Frc consts  --      0.0045                 0.0111                 0.0086
 IR Inten    --      4.0583                 4.1541                 1.8359

                      4                      5                      6
                      A                      A                      A
 Frequencies --    147.1251               262.7341               278.0529
 Red. masses --      3.7791                 2.7022                 2.5246
 Frc consts  --      0.0482                 0.1099                 0.1150
 IR Inten    --      2.0159                 1.0792                 4.9161

                      7                      8                      9
                      A                      A                      A
 Frequencies --    336.6819               407.5888               464.9060
 Red. masses --      2.7250                 2.2289                 3.2701
 Frc consts  --      0.1820                 0.2182                 0.4164
 IR Inten    --      2.2351                 2.2286                 8.7298

                     10                     11                     12
                      A                      A                      A
 Frequencies --    534.3402               564.6359               737.1662
 Red. masses --      2.7112                 5.1714                 1.2658
 Frc consts  --      0.4561                 0.9714                 0.4053
 IR Inten    --      9.0120                 3.4462                 0.5998

                     13                     14                     15
                      A                      A                      A
 Frequencies --    779.4867               852.1923               869.5920
 Red. masses --      2.1220                 2.3409                 2.9256
 Frc consts  --      0.7596                 1.0016                 1.3034
 IR Inten    --      1.4932                27.7783                 6.0283

                     16                     17                     18
                      A                      A                      A
 Frequencies --    886.8939               902.7253               918.5577
 Red. masses --      1.5826                 2.0393                 2.6679
 Frc consts  --      0.7334                 0.9791                 1.3263
 IR Inten    --      3.1808                 2.3312                 7.7082

                     19                     20                     21
                      A                      A                      A
 Frequencies --    946.5187               972.9579              1040.1477
 Red. masses --      1.9693                 2.7040                 2.3103
 Frc consts  --      1.0395                 1.5082                 1.4727
 IR Inten    --     14.4789                12.0381                20.4826

                     22                     23                     24
                      A                      A                      A
 Frequencies --   1067.6837              1115.0611              1130.2309
 Red. masses --      1.8001                 1.4578                 1.4896
 Frc consts  --      1.2090                 1.0679                 1.1211
 IR Inten    --      0.4272                 2.5384                 2.6534

                     25                     26                     27
                      A                      A                      A
 Frequencies --   1146.0069              1166.2060              1170.6815
 Red. masses --      2.3144                 1.5382                 2.1335
 Frc consts  --      1.7909                 1.2326                 1.7227
 IR Inten    --     15.8410                 0.4388                 6.4144

                     28                     29                     30
                      A                      A                      A
 Frequencies --   1208.2974              1218.2995              1238.9056
 Red. masses --      1.3296                 1.3620                 1.3923
 Frc consts  --      1.1438                 1.1911                 1.2591
 IR Inten    --     12.5102                 3.6564                 3.0804

                     31                     32                     33
                      A                      A                      A
 Frequencies --   1247.5709              1280.5797              1291.2885
 Red. masses --      1.2716                 1.6318                 1.4984
 Frc consts  --      1.1661                 1.5767                 1.4720
 IR Inten    --      2.9677                 2.7927                 4.2563

                     34                     35                     36
                      A                      A                      A
 Frequencies --   1359.0673              1427.3257              1430.8170
 Red. masses --      1.4571                 1.4238                 1.7028
 Frc consts  --      1.5857                 1.7090                 2.0539
 IR Inten    --      4.2873                 5.8014                19.3259

                     37                     38                     39
                      A                      A                      A
 Frequencies --   1464.4910              1474.4331              1496.9712
 Red. masses --      1.0988                 1.0951                 1.1205
 Frc consts  --      1.3885                 1.4027                 1.4794
 IR Inten    --      7.8214                 1.2753                 3.1333

                     40                     41                     42
                      A                      A                      A
 Frequencies --   1534.3410              1832.5134              2846.8579
 Red. masses --      1.5791                10.0754                 1.0815
 Frc consts  --      2.1904                19.9345                 5.1643
 IR Inten    --      9.5088               182.0606               115.4172

                     43                     44                     45
                      A                      A                      A
 Frequencies --   3030.5116              3042.6657              3064.2868
 Red. masses --      1.0619                 1.0845                 1.0584
 Frc consts  --      5.7463                 5.9157                 5.8553
 IR Inten    --      8.2803                22.6094                19.1327

                     46                     47                     48
                      A                      A                      A
 Frequencies --   3077.1161              3077.6636              3102.1671
 Red. masses --      1.0584                 1.0521                 1.0997
 Frc consts  --      5.9045                 5.8715                 6.2355
 IR Inten    --     29.5009                22.0952                14.1200

                     49                     50                     51
                      A                      A                      A
 Frequencies --   3112.6900              3133.3443              3164.7324
 Red. masses --      1.1078                 1.1081                 1.1195
 Frc consts  --      6.3241                 6.4096                 6.6060
 IR Inten    --      6.5368                26.0391                21.2797

 - Thermochemistry -
 -------------------
 Temperature   298.150 Kelvin.  Pressure   1.00000 Atm.
 Atom     1 has atomic number  8 and mass  15.99491

 Molecular mass:   126.06808 amu.
 Principal axes and moments of inertia in atomic units:
                           1         2         3
     Eigenvalues --   530.071451836.685302116.11823
           X            0.99993   0.01204   0.00153
           Y           -0.01197   0.99906  -0.04165
           Z           -0.00203   0.04163   0.99913
 This molecule is an asymmetric top.
 Rotational symmetry number  1.
 Warning -- assumption of classical behavior for rotation
           may cause significant error
 Rotational temperatures (Kelvin)      0.16340     0.04716     0.04093
 Rotational constants (GHZ):           3.40471     0.98261     0.85285
 Zero-point vibrational energy     412975.2 (Joules/Mol)
                                   98.70344 (Kcal/Mol)
 Warning -- explicit consideration of  11 degrees of freedom as
           vibrations may cause significant error
 Vibrational temperatures:     56.06   105.44   110.37   211.68   378.02
          (Kelvin)            400.06   484.41   586.43   668.90   768.80
                              812.38  1060.62  1121.51  1226.11  1251.15
                             1276.04  1298.82  1321.60  1361.83  1399.87
                             1496.54  1536.16  1604.32  1626.15  1648.85
                             1677.91  1684.35  1738.47  1752.86  1782.51
                             1794.97  1842.47  1857.87  1955.39  2053.60
                             2058.62  2107.07  2121.38  2153.81  2207.57
                             2636.57  4095.99  4360.22  4377.71  4408.82
                             4427.28  4428.07  4463.32  4478.46  4508.18
                             4553.34

 Zero-point correction=                           0.157294 (Hartree/Particle)
 Thermal correction to Energy=                    0.166274
 Thermal correction to Enthalpy=                  0.167218
 Thermal correction to Gibbs Free Energy=         0.122107
 Sum of electronic and zero-point Energies=           -423.001901
 Sum of electronic and thermal Energies=              -422.992921
 Sum of electronic and thermal Enthalpies=            -422.991977
 Sum of electronic and thermal Free Energies=         -423.037088

                     E (Thermal)             CV                S
                      KCal/Mol        Cal/Mol-Kelvin    Cal/Mol-Kelvin
 Total                  104.339             32.362             94.945
 Electronic               0.000              0.000              0.000
 Translational            0.889              2.981             40.409
 Rotational               0.889              2.981             29.112
 Vibrational            102.561             26.401             25.425
 Vibration     1          0.594              1.981              5.311
 Vibration     2          0.599              1.967              4.063
 Vibration     3          0.599              1.965              3.973
 Vibration     4          0.617              1.906              2.709
 Vibration     5          0.670              1.741              1.644
 Vibration     6          0.679              1.714              1.546
 Vibration     7          0.717              1.602              1.228
 Vibration     8          0.772              1.454              0.935
 Vibration     9          0.822              1.328              0.752
 Vibration    10          0.889              1.174              0.578
 Vibration    11          0.920              1.108              0.515

 Optimization completed.
    -- Stationary point found.
 Normal termination of Gaussian 09 at Mon Jan 27 14:25:24 2020.
