 Gaussian 09, Revision D.01,
 Gaussian 09:  ES64L-G09RevD.01 24-Apr-2013

 -----------------------------
 # b3lyp 6-31G(2df,p) opt Freq
 -----------------------------

 -----
 titel
 -----
 Symbolic Z-matrix:
 Charge =  0 Multiplicity = 1

 SCF Done:  E(RB3LYP) =  -423.168311549     A.U. after   14 cycles
 Optimization completed.
    -- Stationary point found.
 Normal termination of Gaussian 09 at Tue Jan 28 00:32:17 2020.

 ----------------------------------------------------------------------
 #N Geom=AllCheck Guess=TCheck SCRF=Check GenChk RB3LYP/6-31G(2df,p) Fr
 eq
 ----------------------------------------------------------------------

 Structure from the checkpoint file:  "/scratch/puck/g09_e36d9722-68e9-4b3d-8167-21613d345d92/Gau-106845.chk"
 -----
 titel
 -----
 Charge =  0 Multiplicity = 1

                         Standard orientation:
 ---------------------------------------------------------------------
 Center     Atomic      Atomic             Coordinates (Angstroms)
 Number     Number       Type             X           Y           Z
 ---------------------------------------------------------------------
      1          8           0        1.088015   -0.836589    1.430837
      2          6           0        1.345260   -0.740666    0.038010
      3          6           0        0.299423   -1.416150   -0.840894
      4          6           0       -1.027137   -1.309070   -0.771066
      5          6           0       -1.828775   -0.471924    0.188627
      6          8           0       -1.131585    0.622092    0.768884
      7          6           0       -0.744948    1.657836   -0.132645
      8          6           0        0.718291    1.684403   -0.484139
      9          6           0        1.606710    0.692808   -0.417207
     10          1           0        0.346800   -0.236732    1.600251
     11          1           0        2.276343   -1.298735   -0.103786
     12          1           0        0.709595   -2.051300   -1.623121
     13          1           0       -1.632411   -1.886355   -1.467593
     14          1           0       -2.734579   -0.104630   -0.318902
     15          1           0       -2.166880   -1.075901    1.040192
     16          1           0       -1.351779    1.598786   -1.049696
     17          1           0       -1.004984    2.606829    0.354418
     18          1           0        1.060547    2.663031   -0.817480
     19          1           0        2.632956    0.917562   -0.696162
 ---------------------------------------------------------------------

 SCF Done:  E(RB3LYP) =  -423.168311549     A.U. after    1 cycles

 The electronic state is 1-A.
 Alpha  occ. eigenvalues --  -19.15893 -19.11122 -10.24349 -10.24162 -10.23138
 Alpha  occ. eigenvalues --  -10.18841 -10.18479 -10.18391 -10.18284  -1.04761
 Alpha  occ. eigenvalues --   -0.99650  -0.79794  -0.79351  -0.70711  -0.70276
 Alpha  occ. eigenvalues --   -0.62807  -0.56931  -0.51923  -0.51334  -0.49583
 Alpha  occ. eigenvalues --   -0.48358  -0.45646  -0.45004  -0.42574  -0.40774
 Alpha  occ. eigenvalues --   -0.38553  -0.37434  -0.36065  -0.33413  -0.32983
 Alpha  occ. eigenvalues --   -0.27530  -0.26150  -0.25323  -0.23706
 Alpha virt. eigenvalues --   -0.00391   0.02627   0.07718   0.10465   0.11438
 Alpha virt. eigenvalues --    0.13310   0.14538   0.15281   0.15880   0.17325
 Alpha virt. eigenvalues --    0.18524   0.18919   0.20081   0.22273   0.23317

 Mulliken charges:
               1
     1  O   -0.441023
     2  C    0.032756
     3  C   -0.062623
     4  C   -0.072868
     5  C   -0.151592
     6  O   -0.256096
     7  C   -0.140456
     8  C   -0.040899
     9  C   -0.088754
    10  H    0.289493
    11  H    0.085577
    12  H    0.094059
    13  H    0.090863
    14  H    0.106895
    15  H    0.132310
    16  H    0.115428
    17  H    0.119662
    18  H    0.092472
    19  H    0.094797
 Sum of Mulliken charges =   0.00000

 Dipole moment (field-independent basis, Debye):
    X=             -1.4097    Y=              1.0965    Z=             -2.1906  Tot=              2.8264
 Quadrupole moment (field-independent basis, Debye-Ang):
   XX=            -49.8432   YY=            -50.9290   ZZ=            -56.4711
   XY=              1.2162   XZ=             -2.3295   YZ=              1.6770

  Exact polarizability:  92.197  -2.848  81.435  -2.025   1.231  60.056
 Approx polarizability: 142.449 -12.845 116.935  -2.171  -0.126  94.077

                      1                      2                      3
                      A                      A                      A
 Frequencies --     63.4499               172.9939               240.7227
 Red. masses --      2.1874                 3.0081                 5.2797
 Frc consts  --      0.0052                 0.0530                 0.1803
 IR Inten    --      1.9618                 2.1483                 1.3212

                      4                      5                      6
                      A                      A                      A
 Frequencies --    246.7763               282.1307               350.9409
 Red. masses --      4.8532                 8.4545                 3.4191
 Frc consts  --      0.1741                 0.3965                 0.2481
 IR Inten    --      1.0880                 8.2708                 1.7728

                      7                      8                      9
                      A                      A                      A
 Frequencies --    397.4195               476.9013               515.3903
 Red. masses --      2.2076                 2.3437                 2.3411
 Frc consts  --      0.2054                 0.3141                 0.3664
 IR Inten    --      4.5421                 1.7729                 2.2116

                     10                     11                     12
                      A                      A                      A
 Frequencies --    585.9482               642.0824               688.5301
 Red. masses --      3.9850                 1.1514                 1.5949
 Frc consts  --      0.8061                 0.2797                 0.4455
 IR Inten    --      4.1093                57.6026                33.1866

                     13                     14                     15
                      A                      A                      A
 Frequencies --    719.6530               779.9052               802.1626
 Red. masses --      1.7536                 4.2636                 4.0447
 Frc consts  --      0.5351                 1.5280                 1.5334
 IR Inten    --     24.3619                 0.8956                 1.7654

                     16                     17                     18
                      A                      A                      A
 Frequencies --    823.2203               881.0083               924.7850
 Red. masses --      3.2060                 3.2317                 3.8535
 Frc consts  --      1.2801                 1.4779                 1.9417
 IR Inten    --      2.0103                 2.6818                10.1066

                     19                     20                     21
                      A                      A                      A
 Frequencies --    985.8011               992.5039               999.8721
 Red. masses --      1.4757                 1.4279                 1.5969
 Frc consts  --      0.8449                 0.8287                 0.9406
 IR Inten    --      8.4266                 8.9125                 8.4111

                     22                     23                     24
                      A                      A                      A
 Frequencies --   1015.5024              1031.5548              1062.8989
 Red. masses --      2.0211                 2.7040                 2.0614
 Frc consts  --      1.2280                 1.6953                 1.3721
 IR Inten    --     11.4099                37.5956                41.3610

                     25                     26                     27
                      A                      A                      A
 Frequencies --   1091.4889              1138.8545              1243.2807
 Red. masses --      3.7690                 3.6266                 1.0496
 Frc consts  --      2.6455                 2.7713                 0.9559
 IR Inten    --     63.7713               101.9028                 8.0747

                     28                     29                     30
                      A                      A                      A
 Frequencies --   1249.6787              1277.9114              1320.5915
 Red. masses --      1.0733                 1.1741                 1.2471
 Frc consts  --      0.9875                 1.1297                 1.2814
 IR Inten    --     13.6790                24.7546                 1.0416

                     31                     32                     33
                      A                      A                      A
 Frequencies --   1322.1909              1352.5757              1385.3445
 Red. masses --      1.2067                 1.3427                 1.2382
 Frc consts  --      1.2429                 1.4473                 1.4001
 IR Inten    --     12.5746                 7.7166                 2.5617

                     34                     35                     36
                      A                      A                      A
 Frequencies --   1408.1840              1411.9805              1418.8242
 Red. masses --      1.4752                 1.3630                 1.3708
 Frc consts  --      1.7235                 1.6011                 1.6259
 IR Inten    --      4.7835                 6.4260                 1.1632

                     37                     38                     39
                      A                      A                      A
 Frequencies --   1472.9707              1474.5008              1489.4971
 Red. masses --      1.0868                 1.1339                 1.1178
 Frc consts  --      1.3893                 1.4525                 1.4612
 IR Inten    --      2.1827                33.8114                35.7999

                     40                     41                     42
                      A                      A                      A
 Frequencies --   1719.2769              1722.4736              2980.8491
 Red. masses --      6.7037                 7.0352                 1.0672
 Frc consts  --     11.6751                12.2980                 5.5869
 IR Inten    --      0.7070                 0.8160                24.5883

                     43                     44                     45
                      A                      A                      A
 Frequencies --   2988.1463              3035.2872              3046.4095
 Red. masses --      1.0645                 1.0968                 1.0927
 Frc consts  --      5.6004                 5.9537                 5.9750
 IR Inten    --     65.9623                31.2130                16.9506

                     46                     47                     48
                      A                      A                      A
 Frequencies --   3052.3003              3133.5455              3134.6356
 Red. masses --      1.0855                 1.0834                 1.0838
 Frc consts  --      5.9583                 6.2679                 6.2745
 IR Inten    --     32.9425                 4.9392                 9.6455

                     49                     50                     51
                      A                      A                      A
 Frequencies --   3158.0785              3163.8745              3709.0536
 Red. masses --      1.0949                 1.0944                 1.0652
 Frc consts  --      6.4338                 6.4546                 8.6337
 IR Inten    --     34.3539                26.4271                94.8239

 - Thermochemistry -
 -------------------
 Temperature   298.150 Kelvin.  Pressure   1.00000 Atm.
 Atom     1 has atomic number  8 and mass  15.99491

 Molecular mass:   126.06808 amu.
 Principal axes and moments of inertia in atomic units:
                           1         2         3
     Eigenvalues --   879.84542 946.454841295.74941
           X            0.99602   0.08828  -0.01185
           Y           -0.08815   0.99604   0.01162
           Z            0.01283  -0.01053   0.99986
 This molecule is an asymmetric top.
 Rotational symmetry number  1.
 Warning -- assumption of classical behavior for rotation
           may cause significant error
 Rotational temperatures (Kelvin)      0.09844     0.09151     0.06684
 Rotational constants (GHZ):           2.05120     1.90684     1.39282
 Zero-point vibrational energy     422185.8 (Joules/Mol)
                                  100.90483 (Kcal/Mol)
 Warning -- explicit consideration of  10 degrees of freedom as
           vibrations may cause significant error
 Vibrational temperatures:     91.29   248.90   346.35   355.06   405.92
          (Kelvin)            504.93   571.80   686.15   741.53   843.05
                              923.81   990.64  1035.42  1122.11  1154.13
                             1184.43  1267.57  1330.56  1418.35  1427.99
                             1438.59  1461.08  1484.18  1529.27  1570.41
                             1638.56  1788.80  1798.01  1838.63  1900.03
                             1902.34  1946.05  1993.20  2026.06  2031.52
                             2041.37  2119.27  2121.48  2143.05  2473.65
                             2478.25  4288.77  4299.27  4367.10  4383.10
                             4391.57  4508.47  4510.04  4543.76  4552.10
                             5336.49

 Zero-point correction=                           0.160802 (Hartree/Particle)
 Thermal correction to Energy=                    0.168852
 Thermal correction to Enthalpy=                  0.169796
 Thermal correction to Gibbs Free Energy=         0.128238
 Sum of electronic and zero-point Energies=           -423.007509
 Sum of electronic and thermal Energies=              -422.999460
 Sum of electronic and thermal Enthalpies=            -422.998516
 Sum of electronic and thermal Free Energies=         -423.040074

                     E (Thermal)             CV                S
                      KCal/Mol        Cal/Mol-Kelvin    Cal/Mol-Kelvin
 Total                  105.956             31.563             87.467
 Electronic               0.000              0.000              0.000
 Translational            0.889              2.981             40.409
 Rotational               0.889              2.981             28.469
 Vibrational            104.179             25.602             18.589
 Vibration     1          0.597              1.972              4.347
 Vibration     2          0.627              1.876              2.403
 Vibration     3          0.658              1.778              1.798
 Vibration     4          0.661              1.768              1.753
 Vibration     5          0.681              1.707              1.521
 Vibration     6          0.728              1.573              1.162
 Vibration     7          0.764              1.476              0.972
 Vibration     8          0.833              1.301              0.718
 Vibration     9          0.870              1.216              0.621
 Vibration    10          0.943              1.062              0.474

 Optimization completed.
    -- Stationary point found.
 Normal termination of Gaussian 09 at Tue Jan 28 01:17:00 2020.
