 Gaussian 09, Revision D.01,
 Gaussian 09:  ES64L-G09RevD.01 24-Apr-2013

 -----------------------------
 # b3lyp 6-31G(2df,p) opt Freq
 -----------------------------

 -----
 titel
 -----
 Symbolic Z-matrix:
 Charge =  0 Multiplicity = 1

 SCF Done:  E(RB3LYP) =  -423.223123110     A.U. after   14 cycles
 Optimization completed.
    -- Stationary point found.
 Normal termination of Gaussian 09 at Tue Jan 28 03:59:42 2020.

 ----------------------------------------------------------------------
 #N Geom=AllCheck Guess=TCheck SCRF=Check GenChk RB3LYP/6-31G(2df,p) Fr
 eq
 ----------------------------------------------------------------------

 Structure from the checkpoint file:  "/scratch/puck/g09_be03d5ff-db2c-40ef-975c-6f24e31e4780/Gau-3048.chk"
 -----
 titel
 -----
 Charge =  0 Multiplicity = 1

                         Standard orientation:
 ---------------------------------------------------------------------
 Center     Atomic      Atomic             Coordinates (Angstroms)
 Number     Number       Type             X           Y           Z
 ---------------------------------------------------------------------
      1          6           0       -2.619274   -0.709747   -0.170577
      2          6           0       -1.209183   -0.458986    0.334954
      3          8           0       -0.343301   -1.412967   -0.269662
      4          6           0        0.997984   -1.299868    0.136019
      5          6           0        1.562606    0.090601   -0.018713
      6          6           0        3.055917    0.214122   -0.047622
      7          6           0        0.724177    1.134777   -0.106904
      8          6           0       -0.728989    0.973401    0.051815
      9          8           0       -1.500280    1.912893    0.029700
     10          1           0       -3.290237    0.054709    0.224028
     11          1           0       -2.639833   -0.658281   -1.262736
     12          1           0       -2.964536   -1.698690    0.139660
     13          1           0       -1.180575   -0.583439    1.435291
     14          1           0        1.125262   -1.621280    1.188988
     15          1           0        1.567161   -2.007143   -0.478334
     16          1           0        3.502533   -0.243455    0.844326
     17          1           0        3.473932   -0.317429   -0.911676
     18          1           0        3.373385    1.257972   -0.093677
     19          1           0        1.082123    2.151826   -0.240002
 ---------------------------------------------------------------------

 SCF Done:  E(RB3LYP) =  -423.223123110     A.U. after    1 cycles

 The electronic state is 1-A.
 Alpha  occ. eigenvalues --  -19.14985 -19.12159 -10.25944 -10.24713 -10.23842
 Alpha  occ. eigenvalues --  -10.22211 -10.20278 -10.18943 -10.17278  -1.05037
 Alpha  occ. eigenvalues --   -1.02745  -0.83022  -0.77657  -0.72678  -0.68901
 Alpha  occ. eigenvalues --   -0.63222  -0.58323  -0.52791  -0.51311  -0.48644
 Alpha  occ. eigenvalues --   -0.45952  -0.44526  -0.42686  -0.41992  -0.40380
 Alpha  occ. eigenvalues --   -0.40154  -0.38515  -0.37701  -0.37080  -0.36057
 Alpha  occ. eigenvalues --   -0.32354  -0.28453  -0.26654  -0.22885
 Alpha virt. eigenvalues --   -0.04955   0.05406   0.08453   0.10689   0.12121
 Alpha virt. eigenvalues --    0.12924   0.14306   0.15075   0.15775   0.16413
 Alpha virt. eigenvalues --    0.17823   0.18062   0.19981   0.20480   0.22962

 Mulliken charges:
               1
     1  C   -0.399689
     2  C    0.007311
     3  O   -0.251572
     4  C   -0.159083
     5  C    0.279087
     6  C   -0.478729
     7  C   -0.245285
     8  C    0.364906
     9  O   -0.336919
    10  H    0.142023
    11  H    0.129117
    12  H    0.117900
    13  H    0.085148
    14  H    0.103935
    15  H    0.121624
    16  H    0.138624
    17  H    0.140999
    18  H    0.138043
    19  H    0.102559
 Sum of Mulliken charges =   0.00000

 Dipole moment (field-independent basis, Debye):
    X=              3.1240    Y=             -1.7222    Z=              0.7680  Tot=              3.6490
 Quadrupole moment (field-independent basis, Debye-Ang):
   XX=            -49.1870   YY=            -58.8197   ZZ=            -52.6488
   XY=              3.3307   XZ=             -0.6162   YZ=             -1.1983

  Exact polarizability: 105.860  -9.636  81.305  -0.394  -2.444  55.641
 Approx polarizability: 145.145 -31.810 131.477   0.460  -3.184  87.908

                      1                      2                      3
                      A                      A                      A
 Frequencies --     70.7485               136.8313               181.2427
 Red. masses --      3.3330                 1.7433                 1.4140
 Frc consts  --      0.0098                 0.0192                 0.0274
 IR Inten    --      2.2167                 0.0531                 1.2934

                      4                      5                      6
                      A                      A                      A
 Frequencies --    196.0919               215.6875               271.0886
 Red. masses --      1.2105                 2.2875                 2.5203
 Frc consts  --      0.0274                 0.0627                 0.1091
 IR Inten    --      0.5565                 1.9631                 2.1740

                      7                      8                      9
                      A                      A                      A
 Frequencies --    300.4648               395.3583               412.1282
 Red. masses --      3.3608                 3.8905                 4.1768
 Frc consts  --      0.1788                 0.3583                 0.4180
 IR Inten    --      6.9412                 4.9485                 3.9645

                     10                     11                     12
                      A                      A                      A
 Frequencies --    445.8578               494.4136               527.8810
 Red. masses --      2.3623                 4.4438                 5.5686
 Frc consts  --      0.2767                 0.6400                 0.9143
 IR Inten    --      2.8297                 6.3448                 5.9046

                     13                     14                     15
                      A                      A                      A
 Frequencies --    637.5883               688.3744               797.7342
 Red. masses --      5.6000                 3.1675                 2.2649
 Frc consts  --      1.3413                 0.8843                 0.8492
 IR Inten    --      2.9473                 0.9938                 1.3174

                     16                     17                     18
                      A                      A                      A
 Frequencies --    872.8399               881.9038               907.4408
 Red. masses --      2.2634                 1.9462                 1.8543
 Frc consts  --      1.0160                 0.8918                 0.8996
 IR Inten    --      2.0568                 7.9107                 8.6956

                     19                     20                     21
                      A                      A                      A
 Frequencies --    994.1914              1024.0326              1040.8687
 Red. masses --      1.4263                 1.7166                 1.9129
 Frc consts  --      0.8306                 1.0606                 1.2210
 IR Inten    --     16.8168                11.0123                 9.4913

                     22                     23                     24
                      A                      A                      A
 Frequencies --   1082.7314              1102.0144              1134.1405
 Red. masses --      1.8148                 2.2875                 2.5197
 Frc consts  --      1.2535                 1.6367                 1.9096
 IR Inten    --      0.7491                 6.2434                14.1006

                     25                     26                     27
                      A                      A                      A
 Frequencies --   1161.0403              1179.6344              1237.0918
 Red. masses --      3.8562                 2.5845                 1.7991
 Frc consts  --      3.0627                 2.1189                 1.6222
 IR Inten    --     72.1655                18.7301                80.6418

                     28                     29                     30
                      A                      A                      A
 Frequencies --   1278.3035              1333.7102              1344.7310
 Red. masses --      1.2403                 1.6107                 1.5008
 Frc consts  --      1.1941                 1.6881                 1.5990
 IR Inten    --     36.3096                 7.2664                12.2241

                     31                     32                     33
                      A                      A                      A
 Frequencies --   1361.5822              1402.1984              1408.5237
 Red. masses --      1.7039                 1.2994                 1.5987
 Frc consts  --      1.8612                 1.5052                 1.8687
 IR Inten    --      6.8612                11.8827                 2.6217

                     34                     35                     36
                      A                      A                      A
 Frequencies --   1410.0603              1474.4189              1478.1851
 Red. masses --      1.2501                 1.0736                 1.0541
 Frc consts  --      1.4645                 1.3751                 1.3571
 IR Inten    --      5.5667                 3.8391                 5.1858

                     37                     38                     39
                      A                      A                      A
 Frequencies --   1482.1103              1482.5791              1496.9095
 Red. masses --      1.0591                 1.0677                 1.0582
 Frc consts  --      1.3707                 1.3827                 1.3970
 IR Inten    --      8.1987                13.0859                 0.6678

                     40                     41                     42
                      A                      A                      A
 Frequencies --   1697.8702              1774.5570              2912.9419
 Red. masses --      7.1554                11.9066                 1.0732
 Frc consts  --     12.1532                22.0911                 5.3655
 IR Inten    --     50.3403               216.6397                29.9689

                     43                     44                     45
                      A                      A                      A
 Frequencies --   2914.4831              3022.0000              3056.2393
 Red. masses --      1.0783                 1.0387                 1.0369
 Frc consts  --      5.3963                 5.5889                 5.7065
 IR Inten    --     57.0643                16.0379                17.3708

                     46                     47                     48
                      A                      A                      A
 Frequencies --   3057.3840              3070.6541              3127.0984
 Red. masses --      1.0847                 1.0978                 1.0994
 Frc consts  --      5.9738                 6.0985                 6.3339
 IR Inten    --     24.0301                14.2109                12.7518

                     49                     50                     51
                      A                      A                      A
 Frequencies --   3128.5763              3151.6100              3173.4810
 Red. masses --      1.1024                 1.1013                 1.0913
 Frc consts  --      6.3574                 6.4451                 6.4756
 IR Inten    --     18.3867                 6.4520                 8.7865

 - Thermochemistry -
 -------------------
 Temperature   298.150 Kelvin.  Pressure   1.00000 Atm.
 Atom     1 has atomic number  6 and mass  12.00000

 Molecular mass:   126.06808 amu.
 Principal axes and moments of inertia in atomic units:
                           1         2         3
     Eigenvalues --   619.950171368.646071915.02251
           X            0.99948   0.03221   0.00066
           Y           -0.03221   0.99942  -0.01144
           Z           -0.00102   0.01141   0.99993
 This molecule is an asymmetric top.
 Rotational symmetry number  1.
 Warning -- assumption of classical behavior for rotation
           may cause significant error
 Rotational temperatures (Kelvin)      0.13971     0.06328     0.04523
 Rotational constants (GHZ):           2.91111     1.31863     0.94241
 Zero-point vibrational energy     415281.4 (Joules/Mol)
                                   99.25464 (Kcal/Mol)
 Warning -- explicit consideration of  12 degrees of freedom as
           vibrations may cause significant error
 Vibrational temperatures:    101.79   196.87   260.77   282.13   310.33
          (Kelvin)            390.04   432.30   568.83   592.96   641.49
                              711.35   759.50   917.35   990.42  1147.76
                             1255.82  1268.86  1305.60  1430.42  1473.35
                             1497.58  1557.81  1585.55  1631.77  1670.48
                             1697.23  1779.90  1839.19  1918.91  1934.77
                             1959.01  2017.45  2026.55  2028.76  2121.36
                             2126.78  2132.42  2133.10  2153.72  2442.85
                             2553.19  4191.07  4193.29  4347.98  4397.24
                             4398.89  4417.98  4499.19  4501.32  4534.46
                             4565.93

 Zero-point correction=                           0.158172 (Hartree/Particle)
 Thermal correction to Energy=                    0.167173
 Thermal correction to Enthalpy=                  0.168118
 Thermal correction to Gibbs Free Energy=         0.124466
 Sum of electronic and zero-point Energies=           -423.064951
 Sum of electronic and thermal Energies=              -423.055950
 Sum of electronic and thermal Enthalpies=            -423.055006
 Sum of electronic and thermal Free Energies=         -423.098658

                     E (Thermal)             CV                S
                      KCal/Mol        Cal/Mol-Kelvin    Cal/Mol-Kelvin
 Total                  104.903             33.372             91.873
 Electronic               0.000              0.000              0.000
 Translational            0.889              2.981             40.409
 Rotational               0.889              2.981             28.876
 Vibrational            103.125             27.410             22.589
 Vibration     1          0.598              1.968              4.132
 Vibration     2          0.614              1.917              2.848
 Vibration     3          0.630              1.865              2.316
 Vibration     4          0.636              1.845              2.169
 Vibration     5          0.645              1.817              1.995
 Vibration     6          0.675              1.727              1.589
 Vibration     7          0.693              1.673              1.414
 Vibration     8          0.762              1.480              0.980
 Vibration     9          0.776              1.444              0.919
 Vibration    10          0.805              1.370              0.808
 Vibration    11          0.850              1.262              0.672
 Vibration    12          0.883              1.188              0.592

 Optimization completed.
    -- Stationary point found.
 Normal termination of Gaussian 09 at Tue Jan 28 04:38:51 2020.
