 Gaussian 09, Revision D.01,
 Gaussian 09:  ES64L-G09RevD.01 24-Apr-2013

 -----------------------------
 # b3lyp 6-31G(2df,p) opt Freq
 -----------------------------

 -----
 titel
 -----
 Symbolic Z-matrix:
 Charge =  0 Multiplicity = 1

 SCF Done:  E(RB3LYP) =  -423.171893444     A.U. after   14 cycles
 Optimization completed.
    -- Stationary point found.
 Normal termination of Gaussian 09 at Tue Jan 28 02:02:50 2020.

 ----------------------------------------------------------------------
 #N Geom=AllCheck Guess=TCheck SCRF=Check GenChk RB3LYP/6-31G(2df,p) Fr
 eq
 ----------------------------------------------------------------------

 Structure from the checkpoint file:  "/scratch/puck/g09_4e6746c2-6f8d-4ec7-821c-77a4c09d7e44/Gau-111331.chk"
 -----
 titel
 -----
 Charge =  0 Multiplicity = 1

                         Standard orientation:
 ---------------------------------------------------------------------
 Center     Atomic      Atomic             Coordinates (Angstroms)
 Number     Number       Type             X           Y           Z
 ---------------------------------------------------------------------
      1          8           0        2.263930   -0.993476   -0.656646
      2          6           0        1.744141    0.287569   -0.506804
      3          6           0        1.664294    0.927634    0.855727
      4          6           0        0.394728    0.428069    0.195197
      5          8           0       -0.068866   -0.785843    0.741998
      6          6           0       -1.160989   -1.338162   -0.000988
      7          6           0       -2.367673   -0.399688    0.022805
      8          6           0       -1.933560    0.994080   -0.346917
      9          6           0       -0.650348    1.351214   -0.282469
     10          1           0        1.725014   -1.563588   -0.089674
     11          1           0        1.956869    0.910964   -1.369299
     12          1           0        2.020177    0.338877    1.694750
     13          1           0        1.798468    1.999962    0.952433
     14          1           0       -0.849955   -1.523091   -1.039125
     15          1           0       -1.383410   -2.298569    0.470810
     16          1           0       -3.126155   -0.768044   -0.679341
     17          1           0       -2.835542   -0.410594    1.016669
     18          1           0       -2.687279    1.701279   -0.679475
     19          1           0       -0.322251    2.343061   -0.579874
 ---------------------------------------------------------------------

 SCF Done:  E(RB3LYP) =  -423.171893444     A.U. after    1 cycles

 The electronic state is 1-A.
 Alpha  occ. eigenvalues --  -19.15651 -19.13482 -10.24138 -10.23500 -10.23331
 Alpha  occ. eigenvalues --  -10.19115 -10.18681 -10.18450 -10.18297  -1.05507
 Alpha  occ. eigenvalues --   -1.01629  -0.84379  -0.80378  -0.73111  -0.64593
 Alpha  occ. eigenvalues --   -0.60628  -0.60454  -0.54326  -0.51894  -0.49600
 Alpha  occ. eigenvalues --   -0.47187  -0.44690  -0.43641  -0.41351  -0.40496
 Alpha  occ. eigenvalues --   -0.38829  -0.38144  -0.37516  -0.35986  -0.33331
 Alpha  occ. eigenvalues --   -0.30699  -0.27246  -0.25022  -0.21701
 Alpha virt. eigenvalues --    0.01566   0.07637   0.10769   0.10870   0.12679
 Alpha virt. eigenvalues --    0.13604   0.14148   0.15280   0.15680   0.17201
 Alpha virt. eigenvalues --    0.18533   0.19241   0.20275   0.20904   0.22716

 Mulliken charges:
               1
     1  O   -0.432308
     2  C    0.084028
     3  C   -0.393026
     4  C    0.359599
     5  O   -0.318168
     6  C   -0.101578
     7  C   -0.260317
     8  C   -0.099234
     9  C   -0.104327
    10  H    0.289799
    11  H    0.103805
    12  H    0.126635
    13  H    0.116275
    14  H    0.108100
    15  H    0.108548
    16  H    0.107144
    17  H    0.118694
    18  H    0.091794
    19  H    0.094537
 Sum of Mulliken charges =   0.00000

 Dipole moment (field-independent basis, Debye):
    X=             -1.9448    Y=              0.5040    Z=              0.0054  Tot=              2.0091
 Quadrupole moment (field-independent basis, Debye-Ang):
   XX=            -54.9582   YY=            -49.3113   ZZ=            -54.9127
   XY=              3.7897   XZ=              2.7148   YZ=             -1.6584

  Exact polarizability: 100.361   5.258  76.997   2.825  -1.478  60.052
 Approx polarizability: 144.426   7.588 110.166   1.992  -2.015  94.197

                      1                      2                      3
                      A                      A                      A
 Frequencies --     89.5465               161.0758               218.5764
 Red. masses --      3.9151                 3.4980                 2.8940
 Frc consts  --      0.0185                 0.0535                 0.0815
 IR Inten    --      2.3662                 2.6704                 1.4044

                      4                      5                      6
                      A                      A                      A
 Frequencies --    296.5627               303.8303               409.4048
 Red. masses --      2.5709                 2.7336                 3.1095
 Frc consts  --      0.1332                 0.1487                 0.3071
 IR Inten    --      2.1615                17.3633                 2.1730

                      7                      8                      9
                      A                      A                      A
 Frequencies --    432.6882               460.3180               474.9172
 Red. masses --      1.5015                 2.4302                 1.9152
 Frc consts  --      0.1656                 0.3034                 0.2545
 IR Inten    --     41.2888                26.3296                23.0484

                     10                     11                     12
                      A                      A                      A
 Frequencies --    509.6478               624.9434               670.0451
 Red. masses --      3.6406                 2.9389                 2.5929
 Frc consts  --      0.5571                 0.6763                 0.6859
 IR Inten    --      3.0929                 2.9421                 7.1469

                     13                     14                     15
                      A                      A                      A
 Frequencies --    720.1574               788.0514               829.9374
 Red. masses --      1.8268                 2.1945                 2.2521
 Frc consts  --      0.5582                 0.8029                 0.9140
 IR Inten    --     17.3482                 4.6198                27.2549

                     16                     17                     18
                      A                      A                      A
 Frequencies --    866.8065               894.9810               898.1374
 Red. masses --      2.1519                 2.7606                 2.8866
 Frc consts  --      0.9526                 1.3028                 1.3719
 IR Inten    --     14.4134                 9.3088                20.1204

                     19                     20                     21
                      A                      A                      A
 Frequencies --    950.4823               985.6002              1005.5421
 Red. masses --      2.0332                 1.2500                 2.0996
 Frc consts  --      1.0822                 0.7154                 1.2508
 IR Inten    --     34.7305                 0.1135                 6.8650

                     22                     23                     24
                      A                      A                      A
 Frequencies --   1019.6716              1047.2425              1073.6219
 Red. masses --      1.7909                 1.4616                 2.2973
 Frc consts  --      1.0971                 0.9444                 1.5602
 IR Inten    --      6.5721                 6.2316                29.5658

                     25                     26                     27
                      A                      A                      A
 Frequencies --   1090.6844              1099.1590              1148.3277
 Red. masses --      1.4394                 2.7247                 2.4410
 Frc consts  --      1.0089                 1.9395                 1.8965
 IR Inten    --     10.6766                40.3002                93.8992

                     28                     29                     30
                      A                      A                      A
 Frequencies --   1169.4220              1227.1856              1254.5139
 Red. masses --      1.3206                 1.2656                 1.5717
 Frc consts  --      1.0640                 1.1229                 1.4573
 IR Inten    --     17.2709                 4.2376                 5.6792

                     31                     32                     33
                      A                      A                      A
 Frequencies --   1289.5226              1302.7605              1337.3111
 Red. masses --      1.8779                 1.5083                 1.6776
 Frc consts  --      1.8398                 1.5082                 1.7677
 IR Inten    --     21.8974                19.9609                11.1064

                     34                     35                     36
                      A                      A                      A
 Frequencies --   1364.3367              1399.2089              1429.1694
 Red. masses --      1.5145                 1.4245                 1.3151
 Frc consts  --      1.6609                 1.6432                 1.5826
 IR Inten    --     11.2770                24.3549                24.5074

                     37                     38                     39
                      A                      A                      A
 Frequencies --   1435.0292              1469.9584              1472.6569
 Red. masses --      1.3698                 1.1311                 1.5469
 Frc consts  --      1.6619                 1.4399                 1.9765
 IR Inten    --     22.0267                10.7994                43.7884

                     40                     41                     42
                      A                      A                      A
 Frequencies --   1500.3525              1710.7999              3004.5063
 Red. masses --      1.0966                 6.8966                 1.0694
 Frc consts  --      1.4545                11.8928                 5.6879
 IR Inten    --      1.8473                 4.5685                29.6108

                     43                     44                     45
                      A                      A                      A
 Frequencies --   3015.8116              3052.6817              3098.1832
 Red. masses --      1.0612                 1.0973                 1.0977
 Frc consts  --      5.6867                 6.0245                 6.2081
 IR Inten    --     31.3428                31.5001                34.7921

                     46                     47                     48
                      A                      A                      A
 Frequencies --   3127.7864              3160.0518              3163.8312
 Red. masses --      1.0542                 1.0851                 1.0893
 Frc consts  --      6.0763                 6.3841                 6.4240
 IR Inten    --      7.4205                 3.9624                14.2410

                     49                     50                     51
                      A                      A                      A
 Frequencies --   3182.4484              3223.1598              3734.2277
 Red. masses --      1.0977                 1.1170                 1.0645
 Frc consts  --      6.5505                 6.8373                 8.7455
 IR Inten    --     20.6005                 5.3194                38.5471

 - Thermochemistry -
 -------------------
 Temperature   298.150 Kelvin.  Pressure   1.00000 Atm.
 Atom     1 has atomic number  8 and mass  15.99491

 Molecular mass:   126.06808 amu.
 Principal axes and moments of inertia in atomic units:
                           1         2         3
     Eigenvalues --   572.153311318.101331606.60736
           X            0.99950   0.02884   0.01287
           Y           -0.02877   0.99957  -0.00565
           Z           -0.01303   0.00528   0.99990
 This molecule is an asymmetric top.
 Rotational symmetry number  1.
 Warning -- assumption of classical behavior for rotation
           may cause significant error
 Rotational temperatures (Kelvin)      0.15138     0.06571     0.05391
 Rotational constants (GHZ):           3.15430     1.36920     1.12332
 Zero-point vibrational energy     419858.6 (Joules/Mol)
                                  100.34861 (Kcal/Mol)
 Warning -- explicit consideration of  10 degrees of freedom as
           vibrations may cause significant error
 Vibrational temperatures:    128.84   231.75   314.48   426.69   437.14
          (Kelvin)            589.04   622.54   662.29   683.30   733.27
                              899.15   964.04  1036.14  1133.83  1194.09
                             1247.14  1287.68  1292.22  1367.53  1418.06
                             1446.75  1467.08  1506.75  1544.70  1569.25
                             1581.44  1652.19  1682.54  1765.64  1804.96
                             1855.33  1874.38  1924.09  1962.97  2013.15
                             2056.25  2064.68  2114.94  2118.82  2158.67
                             2461.46  4322.81  4339.07  4392.12  4457.59
                             4500.18  4546.60  4552.04  4578.83  4637.40
                             5372.71

 Zero-point correction=                           0.159916 (Hartree/Particle)
 Thermal correction to Energy=                    0.167904
 Thermal correction to Enthalpy=                  0.168848
 Thermal correction to Gibbs Free Energy=         0.127602
 Sum of electronic and zero-point Energies=           -423.011978
 Sum of electronic and thermal Energies=              -423.003989
 Sum of electronic and thermal Enthalpies=            -423.003045
 Sum of electronic and thermal Free Energies=         -423.044291

                     E (Thermal)             CV                S
                      KCal/Mol        Cal/Mol-Kelvin    Cal/Mol-Kelvin
 Total                  105.361             31.882             86.810
 Electronic               0.000              0.000              0.000
 Translational            0.889              2.981             40.409
 Rotational               0.889              2.981             28.584
 Vibrational            103.584             25.920             17.817
 Vibration     1          0.602              1.957              3.670
 Vibration     2          0.622              1.890              2.537
 Vibration     3          0.646              1.813              1.971
 Vibration     4          0.690              1.680              1.436
 Vibration     5          0.695              1.666              1.396
 Vibration     6          0.774              1.450              0.929
 Vibration     7          0.794              1.399              0.850
 Vibration     8          0.818              1.338              0.765
 Vibration     9          0.832              1.306              0.724
 Vibration    10          0.865              1.229              0.634

 Optimization completed.
    -- Stationary point found.
 Normal termination of Gaussian 09 at Tue Jan 28 02:46:43 2020.
