 Gaussian 09, Revision D.01,
 Gaussian 09:  ES64L-G09RevD.01 24-Apr-2013

 -----------------------------
 # b3lyp 6-31G(2df,p) opt Freq
 -----------------------------

 -----
 titel
 -----
 Symbolic Z-matrix:
 Charge =  0 Multiplicity = 1

 SCF Done:  E(RB3LYP) =  -423.125397732     A.U. after   14 cycles
 Optimization completed.
    -- Stationary point found.
 Normal termination of Gaussian 09 at Mon Jan 27 11:58:14 2020.

 ----------------------------------------------------------------------
 #N Geom=AllCheck Guess=TCheck SCRF=Check GenChk RB3LYP/6-31G(2df,p) Fr
 eq
 ----------------------------------------------------------------------

 Structure from the checkpoint file:  "/scratch/puck/g09_5d3e9706-bedc-4ae3-a4f2-0b261f628b4e/Gau-17515.chk"
 -----
 titel
 -----
 Charge =  0 Multiplicity = 1

                         Standard orientation:
 ---------------------------------------------------------------------
 Center     Atomic      Atomic             Coordinates (Angstroms)
 Number     Number       Type             X           Y           Z
 ---------------------------------------------------------------------
      1          6           0       -1.707452   -1.232522   -0.621586
      2          8           0       -1.470719   -1.186260    0.794229
      3          6           0       -1.022218   -0.100542    0.006022
      4          6           0       -1.486260    1.349176    0.160765
      5          6           0       -0.063401    1.784913   -0.305187
      6          6           0        0.442965    0.330750   -0.110157
      7          6           0        1.496266   -0.345073   -1.003335
      8          8           0        2.350425   -0.627573    0.120518
      9          6           0        1.415162   -0.023764    1.037756
     10          1           0       -1.140064   -1.988423   -1.162673
     11          1           0       -2.749238   -1.129224   -0.923592
     12          1           0       -2.336562    1.672157   -0.443746
     13          1           0       -1.682354    1.597148    1.207654
     14          1           0       -0.039787    2.090393   -1.354908
     15          1           0        0.435452    2.550327    0.293386
     16          1           0        1.170882   -1.261178   -1.514618
     17          1           0        1.977818    0.316959   -1.735830
     18          1           0        1.024195   -0.747688    1.762421
     19          1           0        1.851637    0.832566    1.568259
 ---------------------------------------------------------------------

 SCF Done:  E(RB3LYP) =  -423.125397732     A.U. after    1 cycles

 The electronic state is 1-A.
 Alpha  occ. eigenvalues --  -19.15550 -19.12950 -10.24448 -10.23755 -10.23018
 Alpha  occ. eigenvalues --  -10.22751 -10.20098 -10.19385 -10.19165  -1.07640
 Alpha  occ. eigenvalues --   -1.03549  -0.84628  -0.71240  -0.69264  -0.66914
 Alpha  occ. eigenvalues --   -0.63885  -0.59612  -0.52982  -0.51268  -0.49954
 Alpha  occ. eigenvalues --   -0.47715  -0.46804  -0.43028  -0.42490  -0.40348
 Alpha  occ. eigenvalues --   -0.38905  -0.37136  -0.35645  -0.34419  -0.32678
 Alpha  occ. eigenvalues --   -0.29719  -0.28858  -0.26388  -0.24583
 Alpha virt. eigenvalues --    0.06329   0.07148   0.09110   0.10976   0.11229
 Alpha virt. eigenvalues --    0.11407   0.12244   0.14255   0.14961   0.16966
 Alpha virt. eigenvalues --    0.18110   0.19017   0.19571   0.20148   0.21794

 Mulliken charges:
               1
     1  C   -0.270776
     2  O   -0.268573
     3  C    0.402917
     4  C   -0.324229
     5  C   -0.313370
     6  C    0.214253
     7  C   -0.143206
     8  O   -0.273626
     9  C   -0.124517
    10  H    0.119684
    11  H    0.117238
    12  H    0.109388
    13  H    0.121054
    14  H    0.109007
    15  H    0.109556
    16  H    0.099116
    17  H    0.099500
    18  H    0.118761
    19  H    0.097821
 Sum of Mulliken charges =   0.00000

 Dipole moment (field-independent basis, Debye):
    X=             -1.4197    Y=              1.6821    Z=             -1.5899  Tot=              2.7153
 Quadrupole moment (field-independent basis, Debye-Ang):
   XX=            -58.4568   YY=            -53.2779   ZZ=            -51.2928
   XY=              1.3763   XZ=              2.2282   YZ=              3.1290

  Exact polarizability:  78.240   2.283  75.524   1.982   4.178  70.348
 Approx polarizability: 104.784   3.595 107.279   2.235   3.439 108.599

                      1                      2                      3
                      A                      A                      A
 Frequencies --     60.1371                78.6886               183.7415
 Red. masses --      2.9390                 3.5040                 2.9390
 Frc consts  --      0.0063                 0.0128                 0.0585
 IR Inten    --      0.4116                 4.1263                 2.9758

                      4                      5                      6
                      A                      A                      A
 Frequencies --    239.3046               278.3588               332.0523
 Red. masses --      2.9426                 2.0159                 2.5373
 Frc consts  --      0.0993                 0.0920                 0.1648
 IR Inten    --      2.2158                 0.5982                 2.3209

                      7                      8                      9
                      A                      A                      A
 Frequencies --    411.4525               481.6176               529.7819
 Red. masses --      2.8146                 2.8973                 3.8025
 Frc consts  --      0.2807                 0.3960                 0.6288
 IR Inten    --      0.6086                 6.3930                 3.0321

                     10                     11                     12
                      A                      A                      A
 Frequencies --    572.5164               740.5771               847.2109
 Red. masses --      4.5464                 1.2957                 3.3542
 Frc consts  --      0.8780                 0.4187                 1.4185
 IR Inten    --      4.9559                 0.3977                17.7113

                     13                     14                     15
                      A                      A                      A
 Frequencies --    852.3743               867.3143               882.1699
 Red. masses --      2.6122                 2.0408                 1.7271
 Frc consts  --      1.1182                 0.9045                 0.7919
 IR Inten    --     14.0633                 5.8984                 1.3573

                     16                     17                     18
                      A                      A                      A
 Frequencies --    905.4026               936.0748               950.5279
 Red. masses --      3.2465                 2.1811                 2.7285
 Frc consts  --      1.5680                 1.1260                 1.4525
 IR Inten    --      9.8702                 6.0442                 6.6919

                     19                     20                     21
                      A                      A                      A
 Frequencies --    966.4472               993.0042              1043.4277
 Red. masses --      1.4456                 4.7121                11.1370
 Frc consts  --      0.7955                 2.7376                 7.1440
 IR Inten    --      1.5790                20.0511                83.3625

                     22                     23                     24
                      A                      A                      A
 Frequencies --   1112.8505              1122.1007              1133.3050
 Red. masses --      1.6790                 1.7252                 1.6524
 Frc consts  --      1.2251                 1.2798                 1.2504
 IR Inten    --      6.4400                10.4216                 4.8514

                     25                     26                     27
                      A                      A                      A
 Frequencies --   1154.1050              1164.2706              1166.8367
 Red. masses --      1.3720                 1.1353                 1.4694
 Frc consts  --      1.0767                 0.9067                 1.1787
 IR Inten    --      2.3050                 0.8993                 0.6362

                     28                     29                     30
                      A                      A                      A
 Frequencies --   1178.4784              1188.0259              1217.7044
 Red. masses --      2.3085                 1.5608                 2.0373
 Frc consts  --      1.8890                 1.2979                 1.7798
 IR Inten    --      0.4134                 1.1537                 0.8783

                     31                     32                     33
                      A                      A                      A
 Frequencies --   1238.5591              1254.1735              1302.2955
 Red. masses --      1.3926                 1.5020                 2.0287
 Frc consts  --      1.2587                 1.3920                 2.0272
 IR Inten    --      1.5257                 0.1488                 0.3584

                     34                     35                     36
                      A                      A                      A
 Frequencies --   1311.6113              1381.6380              1424.1411
 Red. masses --      1.4459                 1.6137                 2.3553
 Frc consts  --      1.4655                 1.8149                 2.8145
 IR Inten    --      1.1612                 5.6487                18.2967

                     37                     38                     39
                      A                      A                      A
 Frequencies --   1473.9489              1491.5357              1503.0090
 Red. masses --      1.0879                 1.1322                 1.0905
 Frc consts  --      1.3925                 1.4840                 1.4515
 IR Inten    --      1.5049                 2.5972                 0.3611

                     40                     41                     42
                      A                      A                      A
 Frequencies --   1530.6180              1534.3972              2994.4913
 Red. masses --      1.1097                 1.5521                 1.0531
 Frc consts  --      1.5318                 2.1530                 5.5637
 IR Inten    --      0.8254                10.0421                97.1405

                     43                     44                     45
                      A                      A                      A
 Frequencies --   3011.5399              3037.0582              3059.7058
 Red. masses --      1.0586                 1.1100                 1.0583
 Frc consts  --      5.6566                 6.0324                 5.8376
 IR Inten    --     20.6948                39.7617                21.8889

                     46                     47                     48
                      A                      A                      A
 Frequencies --   3063.2459              3064.3346              3080.2585
 Red. masses --      1.1075                 1.0608                 1.0503
 Frc consts  --      6.1230                 5.8687                 5.8713
 IR Inten    --     37.8505                24.8515                25.5965

                     49                     50                     51
                      A                      A                      A
 Frequencies --   3107.7423              3123.0831              3167.0409
 Red. masses --      1.1076                 1.1075                 1.1192
 Frc consts  --      6.3024                 6.3647                 6.6141
 IR Inten    --      6.0035                30.4075                21.3701

 - Thermochemistry -
 -------------------
 Temperature   298.150 Kelvin.  Pressure   1.00000 Atm.
 Atom     1 has atomic number  6 and mass  12.00000

 Molecular mass:   126.06808 amu.
 Principal axes and moments of inertia in atomic units:
                           1         2         3
     Eigenvalues --   688.121721198.767471472.14027
           X            0.99993  -0.00304   0.01156
           Y            0.00248   0.99883   0.04834
           Z           -0.01169  -0.04831   0.99876
 This molecule is an asymmetric top.
 Rotational symmetry number  1.
 Warning -- assumption of classical behavior for rotation
           may cause significant error
 Rotational temperatures (Kelvin)      0.12587     0.07225     0.05884
 Rotational constants (GHZ):           2.62271     1.50550     1.22593
 Zero-point vibrational energy     417163.5 (Joules/Mol)
                                   99.70446 (Kcal/Mol)
 Warning -- explicit consideration of  10 degrees of freedom as
           vibrations may cause significant error
 Vibrational temperatures:     86.52   113.22   264.36   344.31   400.50
          (Kelvin)            477.75   591.99   692.94   762.24   823.72
                             1065.52  1218.95  1226.37  1247.87  1269.24
                             1302.67  1346.80  1367.60  1390.50  1428.71
                             1501.26  1601.14  1614.45  1630.57  1660.50
                             1675.12  1678.82  1695.57  1709.30  1752.00
                             1782.01  1804.47  1873.71  1887.11  1987.87
                             2049.02  2120.68  2145.98  2162.49  2202.22
                             2207.65  4308.40  4332.93  4369.64  4402.23
                             4407.32  4408.89  4431.80  4471.34  4493.41
                             4556.66

 Zero-point correction=                           0.158889 (Hartree/Particle)
 Thermal correction to Energy=                    0.167014
 Thermal correction to Enthalpy=                  0.167958
 Thermal correction to Gibbs Free Energy=         0.125576
 Sum of electronic and zero-point Energies=           -422.966509
 Sum of electronic and thermal Energies=              -422.958384
 Sum of electronic and thermal Enthalpies=            -422.957440
 Sum of electronic and thermal Free Energies=         -422.999821

                     E (Thermal)             CV                S
                      KCal/Mol        Cal/Mol-Kelvin    Cal/Mol-Kelvin
 Total                  104.803             30.682             89.200
 Electronic               0.000              0.000              0.000
 Translational            0.889              2.981             40.409
 Rotational               0.889              2.981             28.587
 Vibrational            103.025             24.721             20.204
 Vibration     1          0.597              1.973              4.453
 Vibration     2          0.600              1.963              3.923
 Vibration     3          0.631              1.862              2.290
 Vibration     4          0.657              1.780              1.808
 Vibration     5          0.679              1.714              1.544
 Vibration     6          0.714              1.611              1.250
 Vibration     7          0.775              1.445              0.921
 Vibration     8          0.838              1.291              0.706
 Vibration     9          0.885              1.184              0.588
 Vibration    10          0.929              1.091              0.499

 Optimization completed on the basis of negligible forces.
    -- Stationary point found.
 Normal termination of Gaussian 09 at Mon Jan 27 12:47:22 2020.
