 Gaussian 09, Revision D.01,
 Gaussian 09:  ES64L-G09RevD.01 24-Apr-2013

 -----------------------------
 # b3lyp 6-31G(2df,p) opt Freq
 -----------------------------

 -----
 titel
 -----
 Symbolic Z-matrix:
 Charge =  0 Multiplicity = 1

 SCF Done:  E(RB3LYP) =  -423.161756180     A.U. after   14 cycles
 Optimization completed.
    -- Stationary point found.
 Normal termination of Gaussian 09 at Mon Jan 27 17:49:30 2020.

 ----------------------------------------------------------------------
 #N Geom=AllCheck Guess=TCheck SCRF=Check GenChk RB3LYP/6-31G(2df,p) Fr
 eq
 ----------------------------------------------------------------------

 Structure from the checkpoint file:  "/scratch/puck/g09_fc861259-e02b-4c14-be20-a36e288500fb/Gau-61427.chk"
 -----
 titel
 -----
 Charge =  0 Multiplicity = 1

                         Standard orientation:
 ---------------------------------------------------------------------
 Center     Atomic      Atomic             Coordinates (Angstroms)
 Number     Number       Type             X           Y           Z
 ---------------------------------------------------------------------
      1          8           0       -2.034473   -0.904589   -0.581965
      2          6           0       -1.008510   -0.210355    0.069043
      3          6           0       -1.299030    1.051542    0.833970
      4          6           0       -0.592697    1.111305   -0.515469
      5          6           0        0.914821    1.367922   -0.618448
      6          6           0        1.687501    0.149825   -0.104231
      7          6           0        1.164029   -1.179490   -0.695613
      8          6           0        0.181858   -1.064965    0.487307
      9          8           0        1.136652   -0.231340    1.196503
     10          1           0       -2.541697   -1.378512    0.087022
     11          1           0       -2.332182    1.381698    0.850596
     12          1           0       -0.718846    1.254535    1.726110
     13          1           0       -1.202530    1.475379   -1.334949
     14          1           0        1.192632    1.554340   -1.662737
     15          1           0        1.206357    2.256413   -0.045873
     16          1           0        2.766891    0.315754   -0.057087
     17          1           0        0.745333   -1.179456   -1.703699
     18          1           0        1.882208   -1.991221   -0.571084
     19          1           0       -0.103427   -1.956213    1.056041
 ---------------------------------------------------------------------

 SCF Done:  E(RB3LYP) =  -423.161756180     A.U. after    1 cycles

 The electronic state is 1-A.
 Alpha  occ. eigenvalues --  -19.14480 -19.13111 -10.23438 -10.23341 -10.23251
 Alpha  occ. eigenvalues --  -10.18635 -10.18455 -10.18304 -10.17663  -1.04428
 Alpha  occ. eigenvalues --   -1.02574  -0.84864  -0.75874  -0.73373  -0.65405
 Alpha  occ. eigenvalues --   -0.59482  -0.58990  -0.53254  -0.51258  -0.49063
 Alpha  occ. eigenvalues --   -0.46432  -0.45083  -0.42954  -0.42206  -0.39466
 Alpha  occ. eigenvalues --   -0.38574  -0.36349  -0.35221  -0.33035  -0.32461
 Alpha  occ. eigenvalues --   -0.30472  -0.27873  -0.25400  -0.23413
 Alpha virt. eigenvalues --    0.07464   0.09136   0.10695   0.11271   0.12037
 Alpha virt. eigenvalues --    0.14138   0.14691   0.15271   0.16386   0.16787
 Alpha virt. eigenvalues --    0.17962   0.19664   0.21001   0.21040   0.22721

 Mulliken charges:
               1
     1  O   -0.474738
     2  C    0.394487
     3  C   -0.358508
     4  C   -0.075767
     5  C   -0.239646
     6  C    0.102372
     7  C   -0.247410
     8  C    0.017028
     9  O   -0.295166
    10  H    0.281937
    11  H    0.106084
    12  H    0.128891
    13  H    0.094898
    14  H    0.101846
    15  H    0.107231
    16  H    0.074668
    17  H    0.110161
    18  H    0.105225
    19  H    0.066407
 Sum of Mulliken charges =   0.00000

 Dipole moment (field-independent basis, Debye):
    X=             -0.1936    Y=             -0.3361    Z=             -0.3474  Tot=              0.5207
 Quadrupole moment (field-independent basis, Debye-Ang):
   XX=            -50.3597   YY=            -50.7034   ZZ=            -55.6734
   XY=              1.5918   XZ=             -5.4209   YZ=             -1.9896

  Exact polarizability:  79.352   1.081  75.124  -4.529  -0.760  66.035
 Approx polarizability: 108.604   5.192 107.824  -3.629  -0.848 106.444

                      1                      2                      3
                      A                      A                      A
 Frequencies --    198.6574               221.6431               304.3917
 Red. masses --      3.6233                 2.6460                 1.1722
 Frc consts  --      0.0842                 0.0766                 0.0640
 IR Inten    --      4.6556                 4.1229                66.4459

                      4                      5                      6
                      A                      A                      A
 Frequencies --    347.0885               370.3715               405.9137
 Red. masses --      2.6958                 2.6955                 2.9676
 Frc consts  --      0.1913                 0.2179                 0.2881
 IR Inten    --     23.1473                 6.5254                 7.6558

                      7                      8                      9
                      A                      A                      A
 Frequencies --    416.5604               499.8197               528.4475
 Red. masses --      2.6071                 4.9135                 3.4053
 Frc consts  --      0.2665                 0.7232                 0.5603
 IR Inten    --      8.0953                 0.9416                 2.6899

                     10                     11                     12
                      A                      A                      A
 Frequencies --    620.0927               701.9306               789.4822
 Red. masses --      3.3933                 3.1255                 2.3974
 Frc consts  --      0.7687                 0.9073                 0.8804
 IR Inten    --      2.8959                 1.3497                 3.4669

                     13                     14                     15
                      A                      A                      A
 Frequencies --    848.8781               851.8911               879.5193
 Red. masses --      1.6710                 2.4340                 2.1660
 Frc consts  --      0.7094                 1.0407                 0.9872
 IR Inten    --      9.3950                 5.1520                 7.0755

                     16                     17                     18
                      A                      A                      A
 Frequencies --    913.5885               926.3100               939.5399
 Red. masses --      2.0369                 3.0093                 2.9746
 Frc consts  --      1.0017                 1.5214                 1.5471
 IR Inten    --     32.8679                 7.0186                12.6035

                     19                     20                     21
                      A                      A                      A
 Frequencies --    959.8157               971.5078              1015.8641
 Red. masses --      2.2614                 3.4841                 1.5881
 Frc consts  --      1.2274                 1.9375                 0.9656
 IR Inten    --     14.1307                34.0014                 6.1983

                     22                     23                     24
                      A                      A                      A
 Frequencies --   1039.2854              1060.9530              1092.0620
 Red. masses --      1.9103                 1.3067                 1.7200
 Frc consts  --      1.2157                 0.8666                 1.2086
 IR Inten    --      9.7987                 9.0355                 0.4551

                     25                     26                     27
                      A                      A                      A
 Frequencies --   1101.3497              1113.4861              1126.1685
 Red. masses --      1.9180                 1.9726                 1.4739
 Frc consts  --      1.3707                 1.4410                 1.1014
 IR Inten    --     14.9859                 5.1947                 2.4618

                     28                     29                     30
                      A                      A                      A
 Frequencies --   1195.2581              1226.4973              1242.8457
 Red. masses --      1.3013                 1.6344                 1.8924
 Frc consts  --      1.0954                 1.4486                 1.7223
 IR Inten    --      3.1511                37.1583                60.1245

                     31                     32                     33
                      A                      A                      A
 Frequencies --   1248.7560              1260.4178              1310.1487
 Red. masses --      1.3668                 1.3789                 1.7792
 Frc consts  --      1.2558                 1.2906                 1.7993
 IR Inten    --      4.5329                10.9962                19.7074

                     34                     35                     36
                      A                      A                      A
 Frequencies --   1329.5087              1340.6191              1354.5936
 Red. masses --      1.5182                 1.4696                 2.1078
 Frc consts  --      1.5811                 1.5562                 2.2787
 IR Inten    --      0.9266                21.6916                 4.1999

                     37                     38                     39
                      A                      A                      A
 Frequencies --   1376.9283              1403.6161              1468.8288
 Red. masses --      1.5260                 1.4264                 1.3741
 Frc consts  --      1.7046                 1.6557                 1.7467
 IR Inten    --      4.1161                 1.3690                 1.8498

                     40                     41                     42
                      A                      A                      A
 Frequencies --   1483.6544              1489.3380              3028.0020
 Red. masses --      1.3044                 1.1714                 1.0597
 Frc consts  --      1.6917                 1.5309                 5.7244
 IR Inten    --      6.4781                 5.6205                33.3172

                     43                     44                     45
                      A                      A                      A
 Frequencies --   3052.2754              3066.9458              3073.2706
 Red. masses --      1.0863                 1.1020                 1.0741
 Frc consts  --      5.9629                 6.1074                 5.9774
 IR Inten    --     58.9164                14.6916                51.4350

                     46                     47                     48
                      A                      A                      A
 Frequencies --   3082.5547              3134.9579              3140.4015
 Red. masses --      1.0749                 1.0535                 1.1098
 Frc consts  --      6.0178                 6.1003                 6.4484
 IR Inten    --     45.3130                12.1907                21.2046

                     49                     50                     51
                      A                      A                      A
 Frequencies --   3170.3442              3232.8017              3787.0226
 Red. masses --      1.0896                 1.1168                 1.0660
 Frc consts  --      6.4527                 6.8769                 9.0075
 IR Inten    --      8.6995                 3.6416                16.8588

 - Thermochemistry -
 -------------------
 Temperature   298.150 Kelvin.  Pressure   1.00000 Atm.
 Atom     1 has atomic number  8 and mass  15.99491

 Molecular mass:   126.06808 amu.
 Principal axes and moments of inertia in atomic units:
                           1         2         3
     Eigenvalues --   663.41973 996.746831191.03833
           X            0.99894  -0.01477  -0.04357
           Y            0.01452   0.99988  -0.00613
           Z            0.04365   0.00549   0.99903
 This molecule is an asymmetric top.
 Rotational symmetry number  1.
 Warning -- assumption of classical behavior for rotation
           may cause significant error
 Rotational temperatures (Kelvin)      0.13056     0.08690     0.07272
 Rotational constants (GHZ):           2.72036     1.81063     1.51527
 Zero-point vibrational energy     423144.3 (Joules/Mol)
                                  101.13392 (Kcal/Mol)
 Warning -- explicit consideration of  10 degrees of freedom as
           vibrations may cause significant error
 Vibrational temperatures:    285.82   318.89   437.95   499.38   532.88
          (Kelvin)            584.02   599.34   719.13   760.32   892.17
                             1009.92  1135.89  1221.34  1225.68  1265.43
                             1314.45  1332.75  1351.79  1380.96  1397.78
                             1461.60  1495.30  1526.47  1571.23  1584.59
                             1602.06  1620.30  1719.71  1764.65  1788.18
                             1796.68  1813.46  1885.01  1912.86  1928.85
                             1948.96  1981.09  2019.49  2113.31  2134.65
                             2142.82  4356.61  4391.54  4412.65  4421.75
                             4435.10  4510.50  4518.33  4561.41  4651.27
                             5448.67

 Zero-point correction=                           0.161167 (Hartree/Particle)
 Thermal correction to Energy=                    0.168332
 Thermal correction to Enthalpy=                  0.169276
 Thermal correction to Gibbs Free Energy=         0.130195
 Sum of electronic and zero-point Energies=           -423.000589
 Sum of electronic and thermal Energies=              -422.993425
 Sum of electronic and thermal Enthalpies=            -422.992480
 Sum of electronic and thermal Free Energies=         -423.031562

                     E (Thermal)             CV                S
                      KCal/Mol        Cal/Mol-Kelvin    Cal/Mol-Kelvin
 Total                  105.630             30.116             82.253
 Electronic               0.000              0.000              0.000
 Translational            0.889              2.981             40.409
 Rotational               0.889              2.981             28.156
 Vibrational            103.852             24.154             13.688
 Vibration     1          0.637              1.842              2.146
 Vibration     2          0.648              1.808              1.946
 Vibration     3          0.695              1.665              1.393
 Vibration     4          0.725              1.581              1.179
 Vibration     5          0.742              1.533              1.078
 Vibration     6          0.771              1.457              0.941
 Vibration     7          0.780              1.434              0.904
 Vibration     8          0.855              1.250              0.659
 Vibration     9          0.883              1.187              0.591
 Vibration    10          0.980              0.989              0.416

 Optimization completed.
    -- Stationary point found.
 Normal termination of Gaussian 09 at Mon Jan 27 18:35:16 2020.
