 Gaussian 09, Revision D.01,
 Gaussian 09:  ES64L-G09RevD.01 24-Apr-2013

 -----------------------------
 # b3lyp 6-31G(2df,p) opt Freq
 -----------------------------

 -----
 titel
 -----
 Symbolic Z-matrix:
 Charge =  0 Multiplicity = 1

 SCF Done:  E(RB3LYP) =  -423.157299233     A.U. after   14 cycles
 Optimization completed.
    -- Stationary point found.
 Normal termination of Gaussian 09 at Mon Jan 27 13:15:47 2020.

 ----------------------------------------------------------------------
 #N Geom=AllCheck Guess=TCheck SCRF=Check GenChk RB3LYP/6-31G(2df,p) Fr
 eq
 ----------------------------------------------------------------------

 Structure from the checkpoint file:  "/scratch/puck/g09_884ea9e2-e6ad-43dd-8697-e4c37b7e2f48/Gau-100873.chk"
 -----
 titel
 -----
 Charge =  0 Multiplicity = 1

                         Standard orientation:
 ---------------------------------------------------------------------
 Center     Atomic      Atomic             Coordinates (Angstroms)
 Number     Number       Type             X           Y           Z
 ---------------------------------------------------------------------
      1          8           0       -3.120244    0.855658    0.034330
      2          6           0       -2.670025   -0.245981   -0.159651
      3          6           0       -1.287299   -0.686297    0.231397
      4          6           0       -0.244332   -0.714498   -0.944212
      5          6           0        0.769133   -0.005308   -0.011754
      6          6           0        2.018288   -0.768430    0.481412
      7          8           0        2.901170    0.242935   -0.039432
      8          6           0        1.789499    1.029071   -0.515310
      9          6           0       -0.380399    0.326650    0.968361
     10          1           0       -3.267615   -1.018517   -0.697179
     11          1           0       -1.346831   -1.664931    0.719160
     12          1           0        0.039508   -1.694694   -1.334640
     13          1           0       -0.550511   -0.077453   -1.780096
     14          1           0        2.106926   -0.870202    1.571728
     15          1           0        2.194412   -1.748007    0.016183
     16          1           0        1.739253    2.011536   -0.027001
     17          1           0        1.821333    1.172767   -1.603815
     18          1           0       -0.189603    0.145978    2.028956
     19          1           0       -0.763469    1.343535    0.846066
 ---------------------------------------------------------------------

 SCF Done:  E(RB3LYP) =  -423.157299233     A.U. after    1 cycles

 The electronic state is 1-A.
 Alpha  occ. eigenvalues --  -19.14427 -19.13279 -10.27404 -10.23254 -10.23012
 Alpha  occ. eigenvalues --  -10.20685 -10.20678 -10.20415 -10.19067  -1.05027
 Alpha  occ. eigenvalues --   -1.03872  -0.86165  -0.73029  -0.69445  -0.67969
 Alpha  occ. eigenvalues --   -0.64981  -0.55460  -0.53753  -0.50751  -0.50078
 Alpha  occ. eigenvalues --   -0.48641  -0.45471  -0.43565  -0.41987  -0.41270
 Alpha  occ. eigenvalues --   -0.39296  -0.38846  -0.37194  -0.35130  -0.32073
 Alpha  occ. eigenvalues --   -0.31207  -0.29424  -0.25404  -0.24928
 Alpha virt. eigenvalues --   -0.02652   0.06323   0.07756   0.08534   0.11277
 Alpha virt. eigenvalues --    0.12564   0.13658   0.13847   0.14643   0.15784
 Alpha virt. eigenvalues --    0.15955   0.16929   0.18410   0.20257   0.21202

 Mulliken charges:
               1
     1  O   -0.241702
     2  C    0.138329
     3  C   -0.070965
     4  C   -0.320828
     5  C    0.309329
     6  C   -0.124690
     7  O   -0.272523
     8  C   -0.136155
     9  C   -0.315575
    10  H    0.076478
    11  H    0.091940
    12  H    0.112584
    13  H    0.116782
    14  H    0.099770
    15  H    0.098041
    16  H    0.103545
    17  H    0.099912
    18  H    0.107085
    19  H    0.128645
 Sum of Mulliken charges =   0.00000

 Dipole moment (field-independent basis, Debye):
    X=             -0.2606    Y=             -2.1676    Z=             -0.2302  Tot=              2.1953
 Quadrupole moment (field-independent basis, Debye-Ang):
   XX=            -68.6743   YY=            -51.6803   ZZ=            -51.1301
   XY=              4.9643   XZ=              0.9539   YZ=             -0.8391

  Exact polarizability:  86.866  -0.993  74.702   1.760   0.856  67.399
 Approx polarizability: 111.793  -6.781 117.505   0.623   2.017 100.325

                      1                      2                      3
                      A                      A                      A
 Frequencies --     45.7296                59.1591                83.8011
 Red. masses --      4.6029                 4.0506                 3.0844
 Frc consts  --      0.0057                 0.0084                 0.0128
 IR Inten    --      2.9161                 6.5091                 3.4086

                      4                      5                      6
                      A                      A                      A
 Frequencies --    202.0657               261.8515               269.3694
 Red. masses --      3.7738                 2.1680                 2.6062
 Frc consts  --      0.0908                 0.0876                 0.1114
 IR Inten    --      6.8550                 0.7859                 0.8338

                      7                      8                      9
                      A                      A                      A
 Frequencies --    375.8565               393.1525               471.4712
 Red. masses --      2.0777                 2.0064                 3.5682
 Frc consts  --      0.1729                 0.1827                 0.4673
 IR Inten    --      1.4602                 1.9312                 5.8265

                     10                     11                     12
                      A                      A                      A
 Frequencies --    633.0847               730.1237               819.6185
 Red. masses --      3.0507                 3.2812                 1.3677
 Frc consts  --      0.7204                 1.0306                 0.5413
 IR Inten    --      2.9436                17.0332                 1.2102

                     13                     14                     15
                      A                      A                      A
 Frequencies --    843.4964               865.4847               882.9054
 Red. masses --      3.2413                 2.9807                 1.9340
 Frc consts  --      1.3587                 1.3155                 0.8882
 IR Inten    --      9.8253                 6.6601                 1.7982

                     16                     17                     18
                      A                      A                      A
 Frequencies --    915.4684               932.3963               954.7218
 Red. masses --      2.6030                 2.3123                 1.2854
 Frc consts  --      1.2853                 1.1844                 0.6903
 IR Inten    --      1.1718                 2.3935                 0.1696

                     19                     20                     21
                      A                      A                      A
 Frequencies --    983.0496              1001.6211              1041.7455
 Red. masses --      2.8443                 2.5801                11.5633
 Frc consts  --      1.6195                 1.5251                 7.3936
 IR Inten    --     24.0074                 1.9631                86.5482

                     22                     23                     24
                      A                      A                      A
 Frequencies --   1063.9149              1106.9140              1142.3688
 Red. masses --      1.3050                 1.9661                 2.1753
 Frc consts  --      0.8703                 1.4193                 1.6726
 IR Inten    --      4.4945                10.6667                 4.4990

                     25                     26                     27
                      A                      A                      A
 Frequencies --   1150.2538              1159.1392              1199.2879
 Red. masses --      1.3169                 1.0808                 2.0061
 Frc consts  --      1.0266                 0.8556                 1.7000
 IR Inten    --      0.5532                 0.0237                14.8143

                     28                     29                     30
                      A                      A                      A
 Frequencies --   1216.8715              1234.2361              1240.1035
 Red. masses --      1.8224                 1.5524                 1.4213
 Frc consts  --      1.5900                 1.3933                 1.2878
 IR Inten    --      0.8276                 5.3515                 0.1272

                     31                     32                     33
                      A                      A                      A
 Frequencies --   1259.9767              1302.6673              1309.8790
 Red. masses --      1.6072                 1.8988                 1.3745
 Frc consts  --      1.5033                 1.8984                 1.3895
 IR Inten    --      1.5210                 2.6150                 2.6374

                     34                     35                     36
                      A                      A                      A
 Frequencies --   1355.4125              1387.6119              1422.1901
 Red. masses --      1.6618                 1.7202                 1.2083
 Frc consts  --      1.7987                 1.9515                 1.4400
 IR Inten    --     11.6948                 0.8850                11.4018

                     37                     38                     39
                      A                      A                      A
 Frequencies --   1471.0779              1490.0181              1507.2581
 Red. masses --      1.0849                 1.1159                 1.0813
 Frc consts  --      1.3833                 1.4597                 1.4473
 IR Inten    --      4.0924                 3.2443                 1.4928

                     40                     41                     42
                      A                      A                      A
 Frequencies --   1532.1937              1822.0412              2862.8357
 Red. masses --      1.1102                10.2314                 1.0824
 Frc consts  --      1.5355                20.0125                 5.2266
 IR Inten    --      0.1526               152.8532               139.2398

                     43                     44                     45
                      A                      A                      A
 Frequencies --   2990.3507              3003.5718              3036.5787
 Red. masses --      1.0521                 1.0573                 1.1105
 Frc consts  --      5.5429                 5.6200                 6.0332
 IR Inten    --    121.0644                 5.6897                35.6493

                     46                     47                     48
                      A                      A                      A
 Frequencies --   3042.0612              3049.9400              3056.3237
 Red. masses --      1.1093                 1.0598                 1.0841
 Frc consts  --      6.0481                 5.8086                 5.9662
 IR Inten    --     30.7920                46.3642                13.4590

                     49                     50                     51
                      A                      A                      A
 Frequencies --   3062.8192              3109.4736              3117.3249
 Red. masses --      1.0593                 1.1074                 1.1074
 Frc consts  --      5.8547                 6.3083                 6.3407
 IR Inten    --     14.4516                19.4702                15.1745

 - Thermochemistry -
 -------------------
 Temperature   298.150 Kelvin.  Pressure   1.00000 Atm.
 Atom     1 has atomic number  8 and mass  15.99491

 Molecular mass:   126.06808 amu.
 Principal axes and moments of inertia in atomic units:
                           1         2         3
     Eigenvalues --   388.866452023.961692092.43263
           X            0.99995   0.00956   0.00330
           Y           -0.00957   0.99995   0.00174
           Z           -0.00329  -0.00177   0.99999
 This molecule is an asymmetric top.
 Rotational symmetry number  1.
 Rotational temperatures (Kelvin)      0.22273     0.04279     0.04139
 Rotational constants (GHZ):           4.64103     0.89169     0.86251
 Zero-point vibrational energy     415528.1 (Joules/Mol)
                                   99.31359 (Kcal/Mol)
 Warning -- explicit consideration of   9 degrees of freedom as
           vibrations may cause significant error
 Vibrational temperatures:     65.79    85.12   120.57   290.73   376.75
          (Kelvin)            387.56   540.77   565.66   678.34   910.87
                             1050.48  1179.25  1213.60  1245.24  1270.30
                             1317.15  1341.51  1373.63  1414.39  1441.11
                             1498.84  1530.73  1592.60  1643.61  1654.96
                             1667.74  1725.51  1750.80  1775.79  1784.23
                             1812.82  1874.25  1884.62  1950.13  1996.46
                             2046.21  2116.55  2143.80  2168.61  2204.48
                             2621.51  4118.98  4302.44  4321.46  4368.95
                             4376.84  4388.18  4397.36  4406.71  4473.83
                             4485.13

 Zero-point correction=                           0.158266 (Hartree/Particle)
 Thermal correction to Energy=                    0.166915
 Thermal correction to Enthalpy=                  0.167859
 Thermal correction to Gibbs Free Energy=         0.123515
 Sum of electronic and zero-point Energies=           -422.999033
 Sum of electronic and thermal Energies=              -422.990384
 Sum of electronic and thermal Enthalpies=            -422.989440
 Sum of electronic and thermal Free Energies=         -423.033784

                     E (Thermal)             CV                S
                      KCal/Mol        Cal/Mol-Kelvin    Cal/Mol-Kelvin
 Total                  104.741             31.168             93.330
 Electronic               0.000              0.000              0.000
 Translational            0.889              2.981             40.409
 Rotational               0.889              2.981             28.889
 Vibrational            102.963             25.206             24.032
 Vibration     1          0.595              1.979              4.994
 Vibration     2          0.597              1.974              4.485
 Vibration     3          0.601              1.960              3.800
 Vibration     4          0.639              1.837              2.114
 Vibration     5          0.669              1.743              1.649
 Vibration     6          0.674              1.730              1.600
 Vibration     7          0.747              1.522              1.056
 Vibration     8          0.760              1.485              0.988
 Vibration     9          0.828              1.313              0.733

 Optimization completed.
    -- Stationary point found.
 Normal termination of Gaussian 09 at Mon Jan 27 13:55:49 2020.
