 Gaussian 09, Revision D.01,
 Gaussian 09:  ES64L-G09RevD.01 24-Apr-2013

 -----------------------------
 # b3lyp 6-31G(2df,p) opt Freq
 -----------------------------

 -----
 titel
 -----
 Symbolic Z-matrix:
 Charge =  0 Multiplicity = 1

 SCF Done:  E(RB3LYP) =  -423.123339886     A.U. after   14 cycles
 Optimization completed.
    -- Stationary point found.
 Normal termination of Gaussian 09 at Mon Jan 27 16:30:25 2020.

 ----------------------------------------------------------------------
 #N Geom=AllCheck Guess=TCheck SCRF=Check GenChk RB3LYP/6-31G(2df,p) Fr
 eq
 ----------------------------------------------------------------------

 Structure from the checkpoint file:  "/scratch/puck/g09_331580e9-dbbd-4508-b267-e40a2e5cbb46/Gau-69961.chk"
 -----
 titel
 -----
 Charge =  0 Multiplicity = 1

                         Standard orientation:
 ---------------------------------------------------------------------
 Center     Atomic      Atomic             Coordinates (Angstroms)
 Number     Number       Type             X           Y           Z
 ---------------------------------------------------------------------
      1          8           0       -0.111773    2.002795   -0.309013
      2          6           0        0.047581    0.603278   -0.136133
      3          6           0        0.631251    0.205601    1.266400
      4          6           0        1.924515   -0.254383    0.574944
      5          6           0        1.611306   -1.354017   -0.395159
      6          6           0        1.330947    0.070921   -0.799499
      7          6           0       -1.270976    0.010392   -0.574661
      8          6           0       -2.387274   -0.176452    0.356596
      9          8           0       -1.604539   -1.289905   -0.087926
     10          1           0        0.759636    2.406862   -0.231767
     11          1           0        0.744047    1.099052    1.884859
     12          1           0        0.097914   -0.564826    1.829920
     13          1           0        2.929060   -0.076138    0.938246
     14          1           0        2.468111   -1.801134   -0.889469
     15          1           0        0.792133   -2.038490   -0.200999
     16          1           0        1.789281    0.526400   -1.670925
     17          1           0       -1.501652    0.170610   -1.628620
     18          1           0       -2.262166    0.092506    1.403867
     19          1           0       -3.409964   -0.150008   -0.014532
 ---------------------------------------------------------------------

 SCF Done:  E(RB3LYP) =  -423.123339886     A.U. after    1 cycles

 The electronic state is 1-A.
 Alpha  occ. eigenvalues --  -19.15112 -19.14034 -10.24272 -10.23239 -10.23073
 Alpha  occ. eigenvalues --  -10.19481 -10.19035 -10.18495 -10.18141  -1.07044
 Alpha  occ. eigenvalues --   -1.02520  -0.88874  -0.73239  -0.68880  -0.65701
 Alpha  occ. eigenvalues --   -0.61131  -0.57859  -0.54622  -0.51759  -0.50365
 Alpha  occ. eigenvalues --   -0.48033  -0.46554  -0.43375  -0.40416  -0.39392
 Alpha  occ. eigenvalues --   -0.38105  -0.36987  -0.36161  -0.32834  -0.30674
 Alpha  occ. eigenvalues --   -0.29367  -0.27782  -0.26475  -0.24860
 Alpha virt. eigenvalues --    0.07186   0.09385   0.10216   0.11011   0.11809
 Alpha virt. eigenvalues --    0.13181   0.13628   0.14846   0.16039   0.16530
 Alpha virt. eigenvalues --    0.17738   0.18230   0.19012   0.20067   0.22700

 Mulliken charges:
               1
     1  O   -0.486513
     2  C    0.381529
     3  C   -0.305331
     4  C   -0.055036
     5  C   -0.287762
     6  C   -0.137291
     7  C    0.069646
     8  C   -0.181631
     9  O   -0.236269
    10  H    0.278814
    11  H    0.100319
    12  H    0.109392
    13  H    0.085383
    14  H    0.110887
    15  H    0.139808
    16  H    0.083118
    17  H    0.095573
    18  H    0.117657
    19  H    0.117708
 Sum of Mulliken charges =   0.00000

 Dipole moment (field-independent basis, Debye):
    X=              1.2330    Y=              1.0504    Z=              0.2078  Tot=              1.6331
 Quadrupole moment (field-independent basis, Debye-Ang):
   XX=            -48.1066   YY=            -56.4870   ZZ=            -51.8490
   XY=              1.0620   XZ=             -1.1997   YZ=              0.6274

  Exact polarizability:  84.142  -1.460  69.100  -2.545   0.875  69.436
 Approx polarizability: 110.598  -1.591 108.905  -3.108  -1.096 107.028

                      1                      2                      3
                      A                      A                      A
 Frequencies --     88.5454               146.5629               198.7999
 Red. masses --      3.6318                 3.6801                 2.8346
 Frc consts  --      0.0168                 0.0466                 0.0660
 IR Inten    --      3.0327                 1.6568                 1.0253

                      4                      5                      6
                      A                      A                      A
 Frequencies --    248.0483               298.7024               329.5695
 Red. masses --      3.8091                 1.4918                 1.7793
 Frc consts  --      0.1381                 0.0784                 0.1139
 IR Inten    --     10.1732                28.7004                53.0711

                      7                      8                      9
                      A                      A                      A
 Frequencies --    401.9547               434.1434               462.2818
 Red. masses --      4.1341                 2.3946                 2.9653
 Frc consts  --      0.3935                 0.2659                 0.3734
 IR Inten    --      0.7647                 3.5483                 0.4828

                     10                     11                     12
                      A                      A                      A
 Frequencies --    559.6393               603.9953               755.9025
 Red. masses --      3.9941                 3.0566                 2.1782
 Frc consts  --      0.7370                 0.6570                 0.7333
 IR Inten    --      5.6806                 3.7353                 2.6636

                     13                     14                     15
                      A                      A                      A
 Frequencies --    790.9760               830.2720               874.8907
 Red. masses --      1.6936                 2.0885                 5.3574
 Frc consts  --      0.6243                 0.8483                 2.4161
 IR Inten    --      8.1178                 7.2090                22.2986

                     16                     17                     18
                      A                      A                      A
 Frequencies --    895.1304               917.6284               938.6493
 Red. masses --      2.1879                 2.6005                 1.9907
 Frc consts  --      1.0329                 1.2902                 1.0334
 IR Inten    --      8.1953                23.0817                 1.8098

                     19                     20                     21
                      A                      A                      A
 Frequencies --    953.7500               978.0717               996.2596
 Red. masses --      1.7327                 1.7033                 2.2594
 Frc consts  --      0.9286                 0.9600                 1.3212
 IR Inten    --     36.0993                22.6868                 0.2316

                     22                     23                     24
                      A                      A                      A
 Frequencies --   1021.2102              1060.4173              1074.9531
 Red. masses --      1.5016                 1.2354                 1.5309
 Frc consts  --      0.9226                 0.8185                 1.0423
 IR Inten    --      8.2366                 0.6240                17.4377

                     25                     26                     27
                      A                      A                      A
 Frequencies --   1094.2684              1097.1116              1136.3692
 Red. masses --      1.2922                 1.4053                 1.6537
 Frc consts  --      0.9117                 0.9966                 1.2582
 IR Inten    --      9.8044                 9.8311                16.5886

                     28                     29                     30
                      A                      A                      A
 Frequencies --   1154.3501              1162.6945              1171.7044
 Red. masses --      1.5174                 1.8901                 1.5592
 Frc consts  --      1.1913                 1.5054                 1.2612
 IR Inten    --      4.9433                 1.8005                 1.2916

                     31                     32                     33
                      A                      A                      A
 Frequencies --   1182.8349              1212.6759              1242.8874
 Red. masses --      1.9971                 1.7356                 1.4858
 Frc consts  --      1.6462                 1.5038                 1.3523
 IR Inten    --     64.4753                 3.7755                 6.5384

                     34                     35                     36
                      A                      A                      A
 Frequencies --   1287.9386              1294.6363              1351.2822
 Red. masses --      1.6241                 1.8185                 2.2005
 Frc consts  --      1.5873                 1.7958                 2.3674
 IR Inten    --      4.7357                 9.1358                 1.7889

                     37                     38                     39
                      A                      A                      A
 Frequencies --   1372.2285              1453.5691              1473.0008
 Red. masses --      1.7266                 2.0732                 1.1140
 Frc consts  --      1.9155                 2.5809                 1.4241
 IR Inten    --     49.9301                16.5329                 1.8264

                     40                     41                     42
                      A                      A                      A
 Frequencies --   1496.1979              1527.5836              3057.5629
 Red. masses --      1.2151                 1.3832                 1.0582
 Frc consts  --      1.6026                 1.9017                 5.8287
 IR Inten    --      7.3310                 2.7188                26.7830

                     43                     44                     45
                      A                      A                      A
 Frequencies --   3092.3270              3105.9787              3116.3861
 Red. masses --      1.0500                 1.0882                 1.1077
 Frc consts  --      5.9157                 6.1850                 6.3385
 IR Inten    --     25.3226                20.6259                14.7755

                     46                     47                     48
                      A                      A                      A
 Frequencies --   3128.7921              3165.8056              3180.8169
 Red. masses --      1.0537                 1.0905                 1.1196
 Frc consts  --      6.0776                 6.4394                 6.6739
 IR Inten    --     14.2146                17.4557                24.7593

                     49                     50                     51
                      A                      A                      A
 Frequencies --   3186.2006              3215.8047              3799.9022
 Red. masses --      1.0966                 1.1157                 1.0658
 Frc consts  --      6.5591                 6.7978                 9.0674
 IR Inten    --     17.5355                 7.7706                13.3174

 - Thermochemistry -
 -------------------
 Temperature   298.150 Kelvin.  Pressure   1.00000 Atm.
 Atom     1 has atomic number  8 and mass  15.99491

 Molecular mass:   126.06808 amu.
 Principal axes and moments of inertia in atomic units:
                           1         2         3
     Eigenvalues --   679.504791164.365301441.98379
           X            0.99977  -0.01950  -0.00879
           Y            0.01965   0.99964   0.01802
           Z            0.00844  -0.01819   0.99980
 This molecule is an asymmetric top.
 Rotational symmetry number  1.
 Warning -- assumption of classical behavior for rotation
           may cause significant error
 Rotational temperatures (Kelvin)      0.12747     0.07439     0.06007
 Rotational constants (GHZ):           2.65597     1.54998     1.25157
 Zero-point vibrational energy     416427.6 (Joules/Mol)
                                   99.52859 (Kcal/Mol)
 Warning -- explicit consideration of  11 degrees of freedom as
           vibrations may cause significant error
 Vibrational temperatures:    127.40   210.87   286.03   356.89   429.77
          (Kelvin)            474.18   578.32   624.63   665.12   805.20
                              869.01  1087.57  1138.04  1194.57  1258.77
                             1287.89  1320.26  1350.51  1372.23  1407.23
                             1433.39  1469.29  1525.70  1546.62  1574.41
                             1578.50  1634.98  1660.85  1672.86  1685.82
                             1701.83  1744.77  1788.24  1853.05  1862.69
                             1944.19  1974.33  2091.36  2119.32  2152.69
                             2197.85  4399.15  4449.16  4468.81  4483.78
                             4501.63  4554.88  4576.48  4584.23  4626.82
                             5467.20

 Zero-point correction=                           0.158609 (Hartree/Particle)
 Thermal correction to Energy=                    0.166793
 Thermal correction to Enthalpy=                  0.167737
 Thermal correction to Gibbs Free Energy=         0.126036
 Sum of electronic and zero-point Energies=           -422.964731
 Sum of electronic and thermal Energies=              -422.956547
 Sum of electronic and thermal Enthalpies=            -422.955603
 Sum of electronic and thermal Free Energies=         -422.997304

                     E (Thermal)             CV                S
                      KCal/Mol        Cal/Mol-Kelvin    Cal/Mol-Kelvin
 Total                  104.664             32.172             87.766
 Electronic               0.000              0.000              0.000
 Translational            0.889              2.981             40.409
 Rotational               0.889              2.981             28.525
 Vibrational            102.886             26.211             18.833
 Vibration     1          0.601              1.957              3.692
 Vibration     2          0.617              1.906              2.716
 Vibration     3          0.637              1.842              2.144
 Vibration     4          0.662              1.766              1.744
 Vibration     5          0.692              1.676              1.424
 Vibration     6          0.712              1.616              1.262
 Vibration     7          0.768              1.466              0.955
 Vibration     8          0.795              1.396              0.845
 Vibration     9          0.820              1.334              0.759
 Vibration    10          0.915              1.119              0.525
 Vibration    11          0.962              1.023              0.443

 Normal termination of Gaussian 09 at Mon Jan 27 17:24:47 2020.
