 Gaussian 09, Revision D.01,
 Gaussian 09:  ES64L-G09RevD.01 24-Apr-2013

 -----------------------------
 # b3lyp 6-31G(2df,p) opt Freq
 -----------------------------

 -----
 titel
 -----
 Symbolic Z-matrix:
 Charge =  0 Multiplicity = 1

 SCF Done:  E(RB3LYP) =  -423.101792270     A.U. after   12 cycles
 Optimization completed.
    -- Stationary point found.
 Normal termination of Gaussian 09 at Mon Jan 27 22:01:55 2020.

 ----------------------------------------------------------------------
 #N Geom=AllCheck Guess=TCheck SCRF=Check GenChk RB3LYP/6-31G(2df,p) Fr
 eq
 ----------------------------------------------------------------------

 Structure from the checkpoint file:  "/scratch/puck/g09_389bedb6-1d91-4b3c-851a-7ad51bbbd180/Gau-98568.chk"
 -----
 titel
 -----
 Charge =  0 Multiplicity = 1

                         Standard orientation:
 ---------------------------------------------------------------------
 Center     Atomic      Atomic             Coordinates (Angstroms)
 Number     Number       Type             X           Y           Z
 ---------------------------------------------------------------------
      1          6           0        2.544895   -0.511424   -0.911199
      2          6           0        1.332555   -0.256352   -0.064276
      3          6           0        1.393526    0.130428    1.392722
      4          6           0        0.743290    1.066800    0.399825
      5          6           0       -0.651204    0.608551   -0.066439
      6          8           0       -1.497888    1.514522   -0.656779
      7          6           0       -1.149423   -0.661391    0.552983
      8          8           0       -2.456069   -0.913369    0.086357
      9          6           0       -0.078266   -0.737166   -0.527319
     10          1           0        3.393496    0.091343   -0.571617
     11          1           0        2.846923   -1.565626   -0.869609
     12          1           0        2.355335   -0.262515   -1.961913
     13          1           0        0.836161   -0.375372    2.172735
     14          1           0        2.377399    0.456808    1.720361
     15          1           0        1.103338    2.070143    0.211112
     16          1           0       -2.346900    1.059063   -0.750082
     17          1           0       -0.996967   -0.971856    1.585951
     18          1           0       -2.510027   -1.830131   -0.202387
     19          1           0       -0.239346   -1.317753   -1.428957
 ---------------------------------------------------------------------

 SCF Done:  E(RB3LYP) =  -423.101792270     A.U. after    1 cycles

 The electronic state is 1-A.
 Alpha  occ. eigenvalues --  -19.15739 -19.14005 -10.23944 -10.23497 -10.20038
 Alpha  occ. eigenvalues --  -10.18719 -10.18632 -10.18211 -10.17921  -1.04973
 Alpha  occ. eigenvalues --   -1.01866  -0.90810  -0.79104  -0.71769  -0.64320
 Alpha  occ. eigenvalues --   -0.61768  -0.56127  -0.52760  -0.52408  -0.51955
 Alpha  occ. eigenvalues --   -0.47508  -0.44170  -0.41865  -0.40972  -0.39984
 Alpha  occ. eigenvalues --   -0.38727  -0.37561  -0.36733  -0.33886  -0.31025
 Alpha  occ. eigenvalues --   -0.29289  -0.28147  -0.26272  -0.19259
 Alpha virt. eigenvalues --    0.06219   0.08921   0.10047   0.10820   0.12052
 Alpha virt. eigenvalues --    0.13347   0.13661   0.15779   0.15932   0.17632
 Alpha virt. eigenvalues --    0.18119   0.20200   0.21078   0.21957   0.23186

 Mulliken charges:
               1
     1  C   -0.487275
     2  C    0.350407
     3  C   -0.358540
     4  C   -0.164028
     5  C    0.442911
     6  O   -0.467853
     7  C   -0.025298
     8  O   -0.447551
     9  C   -0.272314
    10  H    0.117452
    11  H    0.116965
    12  H    0.121078
    13  H    0.113430
    14  H    0.108875
    15  H    0.096989
    16  H    0.293145
    17  H    0.084503
    18  H    0.294165
    19  H    0.082940
 Sum of Mulliken charges =   0.00000

 Dipole moment (field-independent basis, Debye):
    X=              0.5273    Y=             -2.1782    Z=             -0.0821  Tot=              2.2427
 Quadrupole moment (field-independent basis, Debye-Ang):
   XX=            -50.9550   YY=            -52.4676   ZZ=            -52.8962
   XY=              4.8379   XZ=              1.6812   YZ=              1.5780

  Exact polarizability:  86.873   1.378  70.465   1.303   1.746  68.769
 Approx polarizability: 114.828  -1.400 113.281   1.974   2.262 104.042

                      1                      2                      3
                      A                      A                      A
 Frequencies --    148.8140               209.1009               215.8666
 Red. masses --      3.3043                 1.4339                 1.7903
 Frc consts  --      0.0431                 0.0369                 0.0492
 IR Inten    --      1.9221                 2.1478                 3.7518

                      4                      5                      6
                      A                      A                      A
 Frequencies --    247.2432               277.3230               300.9246
 Red. masses --      3.0429                 1.5275                 2.4501
 Frc consts  --      0.1096                 0.0692                 0.1307
 IR Inten    --      1.5739                49.1336                21.8722

                      7                      8                      9
                      A                      A                      A
 Frequencies --    340.8294               357.7024               426.4772
 Red. masses --      2.7531                 3.0688                 1.4474
 Frc consts  --      0.1884                 0.2313                 0.1551
 IR Inten    --      3.7588                11.4093                57.8579

                     10                     11                     12
                      A                      A                      A
 Frequencies --    444.6921               483.2914               514.8384
 Red. masses --      2.2967                 2.2158                 3.2093
 Frc consts  --      0.2676                 0.3049                 0.5012
 IR Inten    --     10.2061                45.5390                 6.3278

                     13                     14                     15
                      A                      A                      A
 Frequencies --    624.2506               687.8727               806.4769
 Red. masses --      3.3573                 3.7413                 2.9558
 Frc consts  --      0.7708                 1.0430                 1.1327
 IR Inten    --      4.3563                 8.6082                 8.4268

                     16                     17                     18
                      A                      A                      A
 Frequencies --    814.5884               847.3210               881.0082
 Red. masses --      2.5542                 4.6535                 1.8399
 Frc consts  --      0.9986                 1.9684                 0.8414
 IR Inten    --      3.7551                12.2913                 2.3140

                     19                     20                     21
                      A                      A                      A
 Frequencies --    904.9049               939.1598               948.0428
 Red. masses --      1.5199                 2.0692                 1.4009
 Frc consts  --      0.7333                 1.0753                 0.7419
 IR Inten    --     11.8568                 1.9727                 5.7467

                     22                     23                     24
                      A                      A                      A
 Frequencies --    984.9607              1023.6063              1053.8022
 Red. masses --      1.4299                 2.3706                 1.3783
 Frc consts  --      0.8173                 1.4634                 0.9018
 IR Inten    --      8.0869                 5.4565                19.3793

                     25                     26                     27
                      A                      A                      A
 Frequencies --   1079.4326              1083.3717              1101.2536
 Red. masses --      1.6926                 1.9120                 1.8173
 Frc consts  --      1.1620                 1.3222                 1.2985
 IR Inten    --     18.9243                54.0636                23.4624

                     28                     29                     30
                      A                      A                      A
 Frequencies --   1118.2653              1137.2789              1174.2612
 Red. masses --      1.8547                 1.8496                 2.1692
 Frc consts  --      1.3665                 1.4095                 1.7623
 IR Inten    --     24.1707                20.5394                16.7398

                     31                     32                     33
                      A                      A                      A
 Frequencies --   1237.1462              1257.0639              1290.5598
 Red. masses --      1.6915                 2.2359                 1.3056
 Frc consts  --      1.5253                 2.0817                 1.2812
 IR Inten    --      6.6267                57.3254                26.5336

                     34                     35                     36
                      A                      A                      A
 Frequencies --   1339.2922              1379.3039              1418.9388
 Red. masses --      1.6633                 2.2479                 1.4578
 Frc consts  --      1.7578                 2.5197                 1.7294
 IR Inten    --    115.5671                 1.7715                 2.1325

                     37                     38                     39
                      A                      A                      A
 Frequencies --   1424.6576              1452.6293              1482.6812
 Red. masses --      1.9396                 3.3878                 1.0473
 Frc consts  --      2.3194                 4.2119                 1.3565
 IR Inten    --     19.2556                71.9935                 3.5890

                     40                     41                     42
                      A                      A                      A
 Frequencies --   1499.0412              1505.5074              3015.8959
 Red. masses --      1.0615                 1.3053                 1.0363
 Frc consts  --      1.4054                 1.7431                 5.5536
 IR Inten    --      6.0373                 1.4450                42.8499

                     43                     44                     45
                      A                      A                      A
 Frequencies --   3072.6515              3089.1113              3095.8749
 Red. masses --      1.0997                 1.0854                 1.1000
 Frc consts  --      6.1173                 6.1023                 6.2119
 IR Inten    --     24.4340                24.7858                19.7710

                     46                     47                     48
                      A                      A                      A
 Frequencies --   3125.8626              3172.2410              3195.2285
 Red. masses --      1.0580                 1.0922                 1.0968
 Frc consts  --      6.0907                 6.4758                 6.5978
 IR Inten    --     32.6799                11.7389                 4.5325

                     49                     50                     51
                      A                      A                      A
 Frequencies --   3203.7399              3745.8957              3810.4120
 Red. masses --      1.1086                 1.0643                 1.0666
 Frc consts  --      6.7041                 8.7988                 9.1242
 IR Inten    --     19.0970                55.0651                28.6370

 - Thermochemistry -
 -------------------
 Temperature   298.150 Kelvin.  Pressure   1.00000 Atm.
 Atom     1 has atomic number  6 and mass  12.00000

 Molecular mass:   126.06808 amu.
 Principal axes and moments of inertia in atomic units:
                           1         2         3
     Eigenvalues --   591.464001410.750441523.07655
           X            0.99995   0.00720  -0.00670
           Y           -0.00673   0.99770   0.06749
           Z            0.00717  -0.06744   0.99770
 This molecule is an asymmetric top.
 Rotational symmetry number  1.
 Warning -- assumption of classical behavior for rotation
           may cause significant error
 Rotational temperatures (Kelvin)      0.14644     0.06140     0.05687
 Rotational constants (GHZ):           3.05131     1.27928     1.18493
 Zero-point vibrational energy     412656.0 (Joules/Mol)
                                   98.62715 (Kcal/Mol)
 Warning -- explicit consideration of  12 degrees of freedom as
           vibrations may cause significant error
 Vibrational temperatures:    214.11   300.85   310.58   355.73   399.01
          (Kelvin)            432.96   490.38   514.65   613.60   639.81
                              695.35   740.74   898.16   989.69  1160.34
                             1172.01  1219.10  1267.57  1301.95  1351.24
                             1364.02  1417.14  1472.74  1516.18  1553.06
                             1558.73  1584.46  1608.93  1636.29  1689.50
                             1779.98  1808.63  1856.83  1926.94  1984.51
                             2041.53  2049.76  2090.01  2133.24  2156.78
                             2166.09  4339.20  4420.85  4444.54  4454.27
                             4497.41  4564.14  4597.22  4609.46  5389.50
                             5482.33

 Zero-point correction=                           0.157172 (Hartree/Particle)
 Thermal correction to Energy=                    0.165839
 Thermal correction to Enthalpy=                  0.166783
 Thermal correction to Gibbs Free Energy=         0.124739
 Sum of electronic and zero-point Energies=           -422.944620
 Sum of electronic and thermal Energies=              -422.935953
 Sum of electronic and thermal Enthalpies=            -422.935009
 Sum of electronic and thermal Free Energies=         -422.977053

                     E (Thermal)             CV                S
                      KCal/Mol        Cal/Mol-Kelvin    Cal/Mol-Kelvin
 Total                  104.066             34.628             88.489
 Electronic               0.000              0.000              0.000
 Translational            0.889              2.981             40.409
 Rotational               0.889              2.981             28.632
 Vibrational            102.288             28.666             19.449
 Vibration     1          0.618              1.904              2.687
 Vibration     2          0.642              1.827              2.052
 Vibration     3          0.645              1.817              1.993
 Vibration     4          0.661              1.767              1.750
 Vibration     5          0.678              1.715              1.550
 Vibration     6          0.693              1.672              1.412
 Vibration     7          0.720              1.594              1.208
 Vibration     8          0.733              1.559              1.132
 Vibration     9          0.788              1.413              0.870
 Vibration    10          0.804              1.373              0.812
 Vibration    11          0.839              1.287              0.701
 Vibration    12          0.870              1.217              0.622

 Normal termination of Gaussian 09 at Mon Jan 27 22:52:22 2020.
