 Gaussian 09, Revision D.01,
 Gaussian 09:  ES64L-G09RevD.01 24-Apr-2013

 -----------------------------
 # b3lyp 6-31G(2df,p) opt Freq
 -----------------------------

 -----
 titel
 -----
 Symbolic Z-matrix:
 Charge =  0 Multiplicity = 1

 SCF Done:  E(RB3LYP) =  -423.189110103     A.U. after   14 cycles
 Optimization completed.
    -- Stationary point found.
 Normal termination of Gaussian 09 at Mon Jan 27 12:46:17 2020.

 ----------------------------------------------------------------------
 #N Geom=AllCheck Guess=TCheck SCRF=Check GenChk RB3LYP/6-31G(2df,p) Fr
 eq
 ----------------------------------------------------------------------

 Structure from the checkpoint file:  "/scratch/puck/g09_33c0405f-6030-4dac-aa03-4c9871c03de9/Gau-73817.chk"
 -----
 titel
 -----
 Charge =  0 Multiplicity = 1

                         Standard orientation:
 ---------------------------------------------------------------------
 Center     Atomic      Atomic             Coordinates (Angstroms)
 Number     Number       Type             X           Y           Z
 ---------------------------------------------------------------------
      1          6           0       -2.356253   -0.203119   -0.307385
      2          6           0       -1.728705    1.166103    0.097446
      3          6           0       -0.279207    0.796927    0.267986
      4          6           0        0.833363    1.475976    0.017116
      5          6           0        2.144216    0.728415   -0.060704
      6          8           0        1.944726   -0.586673   -0.554975
      7          6           0        1.089349   -1.349802    0.269492
      8          6           0       -0.269159   -0.683781    0.540108
      9          8           0       -1.305872   -1.174475   -0.308282
     10          1           0       -3.142635   -0.498580    0.401252
     11          1           0       -2.791260   -0.186308   -1.310571
     12          1           0       -1.876531    1.939187   -0.660079
     13          1           0       -2.169738    1.530716    1.032287
     14          1           0        0.819650    2.531813   -0.238954
     15          1           0        2.817137    1.217606   -0.771305
     16          1           0        2.664307    0.697134    0.914256
     17          1           0        0.929049   -2.304849   -0.236639
     18          1           0        1.580723   -1.544645    1.237554
     19          1           0       -0.543158   -0.877200    1.593903
 ---------------------------------------------------------------------

 SCF Done:  E(RB3LYP) =  -423.189110103     A.U. after    1 cycles

 The electronic state is 1-A.
 Alpha  occ. eigenvalues --  -19.13726 -19.13484 -10.23088 -10.23042 -10.22883
 Alpha  occ. eigenvalues --  -10.22620 -10.19209 -10.18938 -10.18197  -1.03929
 Alpha  occ. eigenvalues --   -1.02562  -0.80835  -0.76162  -0.74566  -0.64710
 Alpha  occ. eigenvalues --   -0.63692  -0.59310  -0.52009  -0.49841  -0.49546
 Alpha  occ. eigenvalues --   -0.47902  -0.45428  -0.44553  -0.43362  -0.40408
 Alpha  occ. eigenvalues --   -0.38666  -0.37917  -0.36785  -0.34376  -0.32458
 Alpha  occ. eigenvalues --   -0.30297  -0.25479  -0.24991  -0.24446
 Alpha virt. eigenvalues --    0.00879   0.08941   0.10295   0.11631   0.12134
 Alpha virt. eigenvalues --    0.13534   0.14292   0.15068   0.16025   0.16321
 Alpha virt. eigenvalues --    0.18261   0.18828   0.21483   0.22190   0.22982

 Mulliken charges:
               1
     1  C   -0.063885
     2  C   -0.356477
     3  C    0.340335
     4  C   -0.231281
     5  C   -0.125854
     6  O   -0.235099
     7  C   -0.115152
     8  C    0.038378
     9  O   -0.270716
    10  H    0.094320
    11  H    0.113147
    12  H    0.119396
    13  H    0.115230
    14  H    0.090828
    15  H    0.116501
    16  H    0.093274
    17  H    0.126177
    18  H    0.084147
    19  H    0.066729
 Sum of Mulliken charges =   0.00000

 Dipole moment (field-independent basis, Debye):
    X=             -0.7015    Y=              1.7121    Z=              1.3095  Tot=              2.2668
 Quadrupole moment (field-independent basis, Debye-Ang):
   XX=            -51.4613   YY=            -52.5070   ZZ=            -53.5478
   XY=             -0.2328   XZ=              1.3751   YZ=             -2.6388

  Exact polarizability:  95.980   4.389  76.782  -0.098  -4.376  60.044
 Approx polarizability: 129.780  11.107 111.457  -3.885  -4.834  95.215

                      1                      2                      3
                      A                      A                      A
 Frequencies --     36.1835               125.6525               200.5571
 Red. masses --      1.9473                 3.2634                 3.4370
 Frc consts  --      0.0015                 0.0304                 0.0815
 IR Inten    --      1.0400                 1.7997                 1.1128

                      4                      5                      6
                      A                      A                      A
 Frequencies --    293.6668               330.0842               366.2944
 Red. masses --      2.5341                 2.4010                 2.2757
 Frc consts  --      0.1288                 0.1541                 0.1799
 IR Inten    --      2.9686                 3.4012                 3.6558

                      7                      8                      9
                      A                      A                      A
 Frequencies --    449.6297               561.2465               666.6762
 Red. masses --      5.7859                 4.4206                 4.6758
 Frc consts  --      0.6892                 0.8204                 1.2244
 IR Inten    --      2.5183                 1.1396                 6.6839

                     10                     11                     12
                      A                      A                      A
 Frequencies --    683.3617               749.9207               792.1809
 Red. masses --      4.6269                 4.5859                 1.5458
 Frc consts  --      1.2730                 1.5195                 0.5715
 IR Inten    --     10.3399                 5.8887                 1.1921

                     13                     14                     15
                      A                      A                      A
 Frequencies --    838.3411               850.1064               885.6744
 Red. masses --      1.9698                 1.4892                 2.9816
 Frc consts  --      0.8157                 0.6341                 1.3780
 IR Inten    --     28.5762                 8.3281                 7.6480

                     16                     17                     18
                      A                      A                      A
 Frequencies --    944.7251               950.6999               972.7841
 Red. masses --      2.5926                 2.9019                 3.0880
 Frc consts  --      1.3633                 1.5453                 1.7217
 IR Inten    --      2.2688                15.2338                10.1463

                     19                     20                     21
                      A                      A                      A
 Frequencies --   1029.5623              1043.6979              1061.6076
 Red. masses --      2.6027                 2.9912                 1.7412
 Frc consts  --      1.6255                 1.9198                 1.1562
 IR Inten    --     47.0929                24.3522                16.7536

                     22                     23                     24
                      A                      A                      A
 Frequencies --   1084.2444              1119.5549              1156.3393
 Red. masses --      3.1505                 2.3289                 6.0837
 Frc consts  --      2.1821                 1.7198                 4.7928
 IR Inten    --     52.2365                26.5408                59.3521

                     25                     26                     27
                      A                      A                      A
 Frequencies --   1177.3875              1209.5473              1242.1999
 Red. masses --      2.3993                 1.2696                 1.0898
 Frc consts  --      1.9597                 1.0944                 0.9908
 IR Inten    --      4.6889                 2.3287                 1.2870

                     28                     29                     30
                      A                      A                      A
 Frequencies --   1253.3489              1268.4766              1304.4915
 Red. masses --      1.1111                 1.3962                 1.4164
 Frc consts  --      1.0284                 1.3236                 1.4201
 IR Inten    --      4.6290                 3.3372                 2.3650

                     31                     32                     33
                      A                      A                      A
 Frequencies --   1325.9948              1354.3047              1377.5579
 Red. masses --      1.2197                 1.3877                 1.3124
 Frc consts  --      1.2636                 1.4996                 1.4673
 IR Inten    --     10.0249                 9.8722                 4.1166

                     34                     35                     36
                      A                      A                      A
 Frequencies --   1377.9785              1395.7728              1419.4417
 Red. masses --      1.4461                 1.4720                 1.3222
 Frc consts  --      1.6178                 1.6897                 1.5695
 IR Inten    --     15.6949                 4.3861                 6.1425

                     37                     38                     39
                      A                      A                      A
 Frequencies --   1479.2245              1482.4953              1490.9356
 Red. masses --      1.0797                 1.0902                 1.0971
 Frc consts  --      1.3919                 1.4117                 1.4369
 IR Inten    --      1.8746                 2.4190                 3.0288

                     40                     41                     42
                      A                      A                      A
 Frequencies --   1523.9100              1762.0183              2918.2519
 Red. masses --      1.0917                 8.4861                 1.0795
 Frc consts  --      1.4938                15.5231                 5.4165
 IR Inten    --      0.5029                 3.3798                33.2919

                     43                     44                     45
                      A                      A                      A
 Frequencies --   2935.4193              2967.4414              3000.8593
 Red. masses --      1.0724                 1.0724                 1.0702
 Frc consts  --      5.4442                 5.5636                 5.6782
 IR Inten    --     67.1246                97.9031                71.4093

                     46                     47                     48
                      A                      A                      A
 Frequencies --   3039.1855              3078.5635              3079.6092
 Red. masses --      1.0664                 1.0943                 1.0886
 Frc consts  --      5.8032                 6.1104                 6.0831
 IR Inten    --     35.7794                19.9832                27.7359

                     49                     50                     51
                      A                      A                      A
 Frequencies --   3103.7304              3105.0800              3163.8356
 Red. masses --      1.0984                 1.0918                 1.0915
 Frc consts  --      6.2340                 6.2022                 6.4374
 IR Inten    --     29.3068                13.9918                16.2771

 - Thermochemistry -
 -------------------
 Temperature   298.150 Kelvin.  Pressure   1.00000 Atm.
 Atom     1 has atomic number  6 and mass  12.00000

 Molecular mass:   126.06808 amu.
 Principal axes and moments of inertia in atomic units:
                           1         2         3
     Eigenvalues --   561.842891204.615971610.04552
           X            0.99993  -0.00872   0.00795
           Y            0.00894   0.99954  -0.02883
           Z           -0.00769   0.02890   0.99955
 This molecule is an asymmetric top.
 Rotational symmetry number  1.
 Warning -- assumption of classical behavior for rotation
           may cause significant error
 Rotational temperatures (Kelvin)      0.15416     0.07190     0.05380
 Rotational constants (GHZ):           3.21218     1.49819     1.12093
 Zero-point vibrational energy     424852.9 (Joules/Mol)
                                  101.54227 (Kcal/Mol)
 Warning -- explicit consideration of   8 degrees of freedom as
           vibrations may cause significant error
 Vibrational temperatures:     52.06   180.79   288.56   422.52   474.92
          (Kelvin)            527.02   646.92   807.51   959.20   983.20
                             1078.97  1139.77  1206.18  1223.11  1274.29
                             1359.25  1367.84  1399.62  1481.31  1501.65
                             1527.41  1559.98  1610.79  1663.71  1694.00
                             1740.27  1787.25  1803.29  1825.05  1876.87
                             1907.81  1948.54  1982.00  1982.60  2008.20
                             2042.26  2128.27  2132.98  2145.12  2192.56
                             2535.15  4198.71  4223.41  4269.48  4317.56
                             4372.70  4429.36  4430.87  4465.57  4467.51
                             4552.05

 Zero-point correction=                           0.161818 (Hartree/Particle)
 Thermal correction to Energy=                    0.169426
 Thermal correction to Enthalpy=                  0.170370
 Thermal correction to Gibbs Free Energy=         0.128856
 Sum of electronic and zero-point Energies=           -423.027292
 Sum of electronic and thermal Energies=              -423.019684
 Sum of electronic and thermal Enthalpies=            -423.018740
 Sum of electronic and thermal Free Energies=         -423.060255

                     E (Thermal)             CV                S
                      KCal/Mol        Cal/Mol-Kelvin    Cal/Mol-Kelvin
 Total                  106.316             29.048             87.374
 Electronic               0.000              0.000              0.000
 Translational            0.889              2.981             40.409
 Rotational               0.889              2.981             28.479
 Vibrational            104.539             23.086             18.487
 Vibration     1          0.594              1.982              5.458
 Vibration     2          0.611              1.927              3.012
 Vibration     3          0.638              1.839              2.128
 Vibration     4          0.688              1.686              1.453
 Vibration     5          0.713              1.615              1.260
 Vibration     6          0.739              1.542              1.095
 Vibration     7          0.809              1.362              0.797
 Vibration     8          0.917              1.115              0.521

 Optimization completed.
    -- Stationary point found.
 Normal termination of Gaussian 09 at Mon Jan 27 13:27:28 2020.
