 Gaussian 09, Revision D.01,
 Gaussian 09:  ES64L-G09RevD.01 24-Apr-2013

 -----------------------------
 # b3lyp 6-31G(2df,p) opt Freq
 -----------------------------

 -----
 titel
 -----
 Symbolic Z-matrix:
 Charge =  0 Multiplicity = 1

 SCF Done:  E(RB3LYP) =  -423.124260249     A.U. after   13 cycles
 Optimization completed.
    -- Stationary point found.
 Normal termination of Gaussian 09 at Tue Jan 28 00:04:47 2020.

 ----------------------------------------------------------------------
 #N Geom=AllCheck Guess=TCheck SCRF=Check GenChk RB3LYP/6-31G(2df,p) Fr
 eq
 ----------------------------------------------------------------------

 Structure from the checkpoint file:  "/scratch/puck/g09_60a24423-cb09-4b87-9ab3-0253131c6a3a/Gau-58698.chk"
 -----
 titel
 -----
 Charge =  0 Multiplicity = 1

                         Standard orientation:
 ---------------------------------------------------------------------
 Center     Atomic      Atomic             Coordinates (Angstroms)
 Number     Number       Type             X           Y           Z
 ---------------------------------------------------------------------
      1          8           0       -0.529975    1.989211   -0.275876
      2          6           0        0.500135    1.072055   -0.472291
      3          6           0        1.245137    0.535534    0.724877
      4          6           0        2.455453   -0.284351    0.273174
      5          6           0        1.505320   -1.202874   -0.565168
      6          6           0        0.297211   -0.374986   -0.100398
      7          6           0       -1.014093   -0.972024    0.256068
      8          6           0       -2.246863   -0.719538   -0.510480
      9          8           0       -2.032477   -0.081175    0.758552
     10          1           0       -1.200968    1.566475    0.283342
     11          1           0        1.057767    1.316446   -1.377045
     12          1           0        1.081371    0.974446    1.702521
     13          1           0        3.220543    0.266654   -0.284288
     14          1           0        2.943049   -0.827263    1.085451
     15          1           0        1.672283   -1.236032   -1.647037
     16          1           0        1.483238   -2.229073   -0.187796
     17          1           0       -0.960126   -1.909184    0.813643
     18          1           0       -2.205588   -0.051366   -1.367286
     19          1           0       -3.045752   -1.458283   -0.517606
 ---------------------------------------------------------------------

 SCF Done:  E(RB3LYP) =  -423.124260249     A.U. after    1 cycles

 The electronic state is 1-A.
 Alpha  occ. eigenvalues --  -19.17070 -19.12660 -10.25220 -10.24346 -10.23328
 Alpha  occ. eigenvalues --  -10.19923 -10.19256 -10.18855 -10.18699  -1.08421
 Alpha  occ. eigenvalues --   -1.01580  -0.88815  -0.72365  -0.70745  -0.66576
 Alpha  occ. eigenvalues --   -0.63228  -0.59274  -0.54720  -0.51610  -0.50420
 Alpha  occ. eigenvalues --   -0.47685  -0.46198  -0.42819  -0.42138  -0.40518
 Alpha  occ. eigenvalues --   -0.38283  -0.36304  -0.35124  -0.34346  -0.33298
 Alpha  occ. eigenvalues --   -0.32579  -0.28656  -0.24696  -0.23038
 Alpha virt. eigenvalues --    0.06839   0.08355   0.09639   0.10001   0.11903
 Alpha virt. eigenvalues --    0.12836   0.13626   0.15114   0.15378   0.16256
 Alpha virt. eigenvalues --    0.17113   0.19118   0.20247   0.20462   0.22983

 Mulliken charges:
               1
     1  O   -0.457301
     2  C    0.085741
     3  C   -0.155817
     4  C   -0.229838
     5  C   -0.304441
     6  C    0.303968
     7  C   -0.062592
     8  C   -0.184023
     9  O   -0.249710
    10  H    0.298697
    11  H    0.088919
    12  H    0.093992
    13  H    0.100573
    14  H    0.107561
    15  H    0.099702
    16  H    0.105840
    17  H    0.098468
    18  H    0.135332
    19  H    0.124928
 Sum of Mulliken charges =   0.00000

 Dipole moment (field-independent basis, Debye):
    X=              0.3733    Y=             -2.6473    Z=             -0.4770  Tot=              2.7157
 Quadrupole moment (field-independent basis, Debye-Ang):
   XX=            -51.2596   YY=            -56.2489   ZZ=            -52.6840
   XY=              2.1787   XZ=              2.2312   YZ=              0.6174

  Exact polarizability:  89.550   0.961  72.743   3.695  -0.459  65.006
 Approx polarizability: 118.570  -0.560 109.612   4.465   0.510 103.531

                      1                      2                      3
                      A                      A                      A
 Frequencies --     69.4868               158.3197               234.8916
 Red. masses --      3.8818                 2.5028                 4.1063
 Frc consts  --      0.0110                 0.0370                 0.1335
 IR Inten    --      4.0799                 1.5561                 5.5814

                      4                      5                      6
                      A                      A                      A
 Frequencies --    261.3529               272.6040               344.2885
 Red. masses --      2.0426                 3.9575                 3.8521
 Frc consts  --      0.0822                 0.1733                 0.2690
 IR Inten    --      1.0625                 6.7042                 2.7815

                      7                      8                      9
                      A                      A                      A
 Frequencies --    349.7885               483.8533               529.9549
 Red. masses --      4.4248                 3.7558                 3.7644
 Frc consts  --      0.3190                 0.5181                 0.6229
 IR Inten    --      0.6142                10.9805                10.0348

                     10                     11                     12
                      A                      A                      A
 Frequencies --    570.0756               679.1247               706.6918
 Red. masses --      1.1111                 2.9273                 2.6729
 Frc consts  --      0.2127                 0.7955                 0.7865
 IR Inten    --     85.3747                 5.3578                 3.9243

                     13                     14                     15
                      A                      A                      A
 Frequencies --    776.1928               836.4778               852.6412
 Red. masses --      1.2666                 6.9351                 3.7253
 Frc consts  --      0.4496                 2.8590                 1.5957
 IR Inten    --      1.1599                10.8761                 9.2676

                     16                     17                     18
                      A                      A                      A
 Frequencies --    885.3564               922.1969               951.1840
 Red. masses --      3.4152                 1.4290                 2.8529
 Frc consts  --      1.5773                 0.7160                 1.5208
 IR Inten    --     30.8503                 8.3476                 0.2785

                     19                     20                     21
                      A                      A                      A
 Frequencies --    965.1521               994.6636              1017.2817
 Red. masses --      2.0907                 1.7103                 1.5559
 Frc consts  --      1.1474                 0.9970                 0.9487
 IR Inten    --      9.6918                 5.8831                 4.1048

                     22                     23                     24
                      A                      A                      A
 Frequencies --   1080.5606              1097.2508              1103.6902
 Red. masses --      1.9435                 1.4969                 1.4158
 Frc consts  --      1.3370                 1.0619                 1.0161
 IR Inten    --     13.7612                12.3162                 5.8100

                     25                     26                     27
                      A                      A                      A
 Frequencies --   1117.9566              1149.2798              1160.8190
 Red. masses --      2.3531                 1.6093                 1.5077
 Frc consts  --      1.7328                 1.2524                 1.1970
 IR Inten    --     10.9334                10.3935                14.7973

                     28                     29                     30
                      A                      A                      A
 Frequencies --   1176.0561              1195.1939              1219.4170
 Red. masses --      1.3313                 1.8750                 1.3515
 Frc consts  --      1.0849                 1.5781                 1.1840
 IR Inten    --      0.5896                36.6377                 0.4873

                     31                     32                     33
                      A                      A                      A
 Frequencies --   1240.4346              1252.5114              1281.2339
 Red. masses --      1.5748                 1.6055                 1.5265
 Frc consts  --      1.4276                 1.4840                 1.4764
 IR Inten    --      7.4533                 6.8268                 9.1219

                     34                     35                     36
                      A                      A                      A
 Frequencies --   1285.7688              1336.2701              1396.6767
 Red. masses --      1.6919                 1.4086                 1.9859
 Frc consts  --      1.6480                 1.4819                 2.2824
 IR Inten    --      1.0936                 0.3167                 3.6876

                     37                     38                     39
                      A                      A                      A
 Frequencies --   1441.5219              1476.5464              1482.0977
 Red. masses --      2.0124                 1.3600                 1.1270
 Frc consts  --      2.4638                 1.7470                 1.4586
 IR Inten    --     33.6819                60.9013                11.9836

                     40                     41                     42
                      A                      A                      A
 Frequencies --   1505.5509              1515.5996              3039.0243
 Red. masses --      1.2012                 1.3679                 1.0591
 Frc consts  --      1.6042                 1.8512                 5.7630
 IR Inten    --     17.3425                 3.4074                41.7727

                     43                     44                     45
                      A                      A                      A
 Frequencies --   3047.0644              3086.2810              3088.3567
 Red. masses --      1.0632                 1.0958                 1.0940
 Frc consts  --      5.8158                 6.1498                 6.1480
 IR Inten    --     64.7737                 7.7150                27.6006

                     46                     47                     48
                      A                      A                      A
 Frequencies --   3095.7858              3099.7541              3109.8748
 Red. masses --      1.0872                 1.0553                 1.1034
 Frc consts  --      6.1389                 5.9743                 6.2872
 IR Inten    --     34.5000                23.7332                44.1232

                     49                     50                     51
                      A                      A                      A
 Frequencies --   3180.4254              3195.5022              3669.7030
 Red. masses --      1.0921                 1.1203                 1.0659
 Frc consts  --      6.5088                 6.7402                 8.4574
 IR Inten    --     11.7453                14.8706               165.6714

 - Thermochemistry -
 -------------------
 Temperature   298.150 Kelvin.  Pressure   1.00000 Atm.
 Atom     1 has atomic number  8 and mass  15.99491

 Molecular mass:   126.06808 amu.
 Principal axes and moments of inertia in atomic units:
                           1         2         3
     Eigenvalues --   629.555881245.011711589.76892
           X            0.99994  -0.00085   0.01124
           Y            0.00073   0.99994   0.01110
           Z           -0.01125  -0.01109   0.99988
 This molecule is an asymmetric top.
 Rotational symmetry number  1.
 Warning -- assumption of classical behavior for rotation
           may cause significant error
 Rotational temperatures (Kelvin)      0.13758     0.06957     0.05448
 Rotational constants (GHZ):           2.86669     1.44958     1.13522
 Zero-point vibrational energy     418619.9 (Joules/Mol)
                                  100.05256 (Kcal/Mol)
 Warning -- explicit consideration of  10 degrees of freedom as
           vibrations may cause significant error
 Vibrational temperatures:     99.98   227.79   337.96   376.03   392.22
          (Kelvin)            495.35   503.27   696.16   762.49   820.21
                              977.11  1016.77  1116.77  1203.50  1226.76
                             1273.83  1326.83  1368.54  1388.64  1431.10
                             1463.64  1554.68  1578.70  1587.96  1608.49
                             1653.56  1670.16  1692.08  1719.62  1754.47
                             1784.71  1802.08  1843.41  1849.93  1922.59
                             2009.50  2074.03  2124.42  2132.41  2166.15
                             2180.61  4372.47  4384.04  4440.46  4443.45
                             4454.14  4459.85  4474.41  4575.92  4597.61
                             5279.88

 Zero-point correction=                           0.159444 (Hartree/Particle)
 Thermal correction to Energy=                    0.167482
 Thermal correction to Enthalpy=                  0.168426
 Thermal correction to Gibbs Free Energy=         0.126816
 Sum of electronic and zero-point Energies=           -422.964816
 Sum of electronic and thermal Energies=              -422.956778
 Sum of electronic and thermal Enthalpies=            -422.955834
 Sum of electronic and thermal Free Energies=         -422.997444

                     E (Thermal)             CV                S
                      KCal/Mol        Cal/Mol-Kelvin    Cal/Mol-Kelvin
 Total                  105.096             31.444             87.576
 Electronic               0.000              0.000              0.000
 Translational            0.889              2.981             40.409
 Rotational               0.889              2.981             28.612
 Vibrational            103.319             25.483             18.555
 Vibration     1          0.598              1.969              4.168
 Vibration     2          0.621              1.893              2.570
 Vibration     3          0.655              1.787              1.841
 Vibration     4          0.669              1.743              1.653
 Vibration     5          0.676              1.724              1.580
 Vibration     6          0.723              1.587              1.192
 Vibration     7          0.727              1.576              1.167
 Vibration     8          0.840              1.286              0.700
 Vibration     9          0.885              1.184              0.587
 Vibration    10          0.926              1.096              0.504

 Optimization completed.
    -- Stationary point found.
 Normal termination of Gaussian 09 at Tue Jan 28 00:52:07 2020.
