 Gaussian 09, Revision D.01,
 Gaussian 09:  ES64L-G09RevD.01 24-Apr-2013

 -----------------------------
 # b3lyp 6-31G(2df,p) opt Freq
 -----------------------------

 -----
 titel
 -----
 Symbolic Z-matrix:
 Charge =  0 Multiplicity = 1

 SCF Done:  E(RB3LYP) =  -423.112630125     A.U. after   13 cycles
 Optimization completed.
    -- Stationary point found.
 Normal termination of Gaussian 09 at Mon Jan 27 17:57:55 2020.

 ----------------------------------------------------------------------
 #N Geom=AllCheck Guess=TCheck SCRF=Check GenChk RB3LYP/6-31G(2df,p) Fr
 eq
 ----------------------------------------------------------------------

 Structure from the checkpoint file:  "/scratch/puck/g09_439ba170-7fc1-4553-bd22-6fc438609afd/Gau-87931.chk"
 -----
 titel
 -----
 Charge =  0 Multiplicity = 1

                         Standard orientation:
 ---------------------------------------------------------------------
 Center     Atomic      Atomic             Coordinates (Angstroms)
 Number     Number       Type             X           Y           Z
 ---------------------------------------------------------------------
      1          6           0       -0.000004    2.033555   -0.850925
      2          6           0       -0.000017    0.806172    0.016690
      3          6           0       -0.000009    0.694784    1.561247
      4          6           0        0.000006   -0.780008    1.107790
      5          6           0        0.928989   -0.468918   -0.124217
      6          8           0        2.304731   -0.518906   -0.200890
      7          6           0        0.000009   -1.161244   -1.127469
      8          6           0       -0.928986   -0.468919   -0.124228
      9          8           0       -2.304727   -0.518929   -0.200891
     10          1           0        0.884427    2.653533   -0.664764
     11          1           0        0.000774    1.765583   -1.913160
     12          1           0       -0.885180    2.652805   -0.665873
     13          1           0        0.892730    1.056116    2.085641
     14          1           0       -0.892743    1.056086    2.085670
     15          1           0       -0.000005   -1.696029    1.699909
     16          1           0        2.675261   -0.043998    0.551738
     17          1           0        0.000013   -0.774691   -2.151042
     18          1           0        0.000015   -2.255296   -1.118891
     19          1           0       -2.675259   -0.043953    0.551693
 ---------------------------------------------------------------------

 SCF Done:  E(RB3LYP) =  -423.112630125     A.U. after    1 cycles

 The electronic state is 1-A.
 Alpha  occ. eigenvalues --  -19.15098 -19.15098 -10.24357 -10.24355 -10.19294
 Alpha  occ. eigenvalues --  -10.18808 -10.18623 -10.17809 -10.17724  -1.04139
 Alpha  occ. eigenvalues --   -1.03335  -0.92372  -0.75188  -0.72582  -0.61867
 Alpha  occ. eigenvalues --   -0.61366  -0.60127  -0.55571  -0.50036  -0.47918
 Alpha  occ. eigenvalues --   -0.46049  -0.44512  -0.41543  -0.40601  -0.39247
 Alpha  occ. eigenvalues --   -0.39107  -0.37199  -0.35118  -0.34909  -0.31345
 Alpha  occ. eigenvalues --   -0.29179  -0.28647  -0.27072  -0.22696
 Alpha virt. eigenvalues --    0.04963   0.08521   0.10923   0.12972   0.13504
 Alpha virt. eigenvalues --    0.13890   0.14083   0.15313   0.15891   0.16341
 Alpha virt. eigenvalues --    0.19006   0.19340   0.20003   0.21028   0.22620

 Mulliken charges:
               1
     1  C   -0.519415
     2  C    0.200836
     3  C   -0.348366
     4  C   -0.187306
     5  C    0.395323
     6  O   -0.474221
     7  C   -0.353707
     8  C    0.395331
     9  O   -0.474224
    10  H    0.117328
    11  H    0.126653
    12  H    0.117329
    13  H    0.080566
    14  H    0.080567
    15  H    0.071744
    16  H    0.286369
    17  H    0.099615
    18  H    0.099206
    19  H    0.286369
 Sum of Mulliken charges =   0.00000

 Dipole moment (field-independent basis, Debye):
    X=              0.0000    Y=              1.4259    Z=              1.8492  Tot=              2.3351
 Quadrupole moment (field-independent basis, Debye-Ang):
   XX=            -53.7351   YY=            -53.6297   ZZ=            -52.2925
   XY=             -0.0002   XZ=              0.0001   YZ=             -0.3067

  Exact polarizability:  74.268   0.000  76.595   0.000   2.189  75.464
 Approx polarizability: 113.418   0.000 109.507   0.000   3.975 111.518

                      1                      2                      3
                      A                      A                      A
 Frequencies --    156.9065               183.0737               209.5541
 Red. masses --      1.7150                 1.3362                 1.7992
 Frc consts  --      0.0249                 0.0264                 0.0466
 IR Inten    --      0.1337                 0.0957                43.1357

                      4                      5                      6
                      A                      A                      A
 Frequencies --    234.9997               236.5794               277.7399
 Red. masses --      1.1273                 2.5361                 2.5191
 Frc consts  --      0.0367                 0.0836                 0.1145
 IR Inten    --      0.1332                21.6040                 4.9127

                      7                      8                      9
                      A                      A                      A
 Frequencies --    293.4478               307.0688               458.7012
 Red. masses --      3.3485                 2.0733                 2.1803
 Frc consts  --      0.1699                 0.1152                 0.2703
 IR Inten    --     16.0696               113.8166                 0.2068

                     10                     11                     12
                      A                      A                      A
 Frequencies --    497.5093               526.4108               604.6506
 Red. masses --      2.6015                 2.6317                 9.0191
 Frc consts  --      0.3794                 0.4297                 1.9428
 IR Inten    --      7.0405                16.8773                 1.4487

                     13                     14                     15
                      A                      A                      A
 Frequencies --    637.6136               662.0162               690.4004
 Red. masses --      3.7642                 3.2658                 3.1471
 Frc consts  --      0.9017                 0.8433                 0.8838
 IR Inten    --      0.7056                 2.2704                 1.2132

                     16                     17                     18
                      A                      A                      A
 Frequencies --    785.3309               871.3302               887.4945
 Red. masses --      4.0167                 2.2200                 2.1157
 Frc consts  --      1.4596                 0.9931                 0.9818
 IR Inten    --      0.8393                 2.3079                12.2969

                     19                     20                     21
                      A                      A                      A
 Frequencies --    917.9477               958.7973               992.6023
 Red. masses --      1.9314                 2.4443                 1.1282
 Frc consts  --      0.9588                 1.3239                 0.6549
 IR Inten    --      0.6314                 4.9166                 1.3281

                     22                     23                     24
                      A                      A                      A
 Frequencies --   1023.8269              1066.3638              1096.4185
 Red. masses --      1.6100                 2.1541                 2.1003
 Frc consts  --      0.9943                 1.4432                 1.4876
 IR Inten    --     57.7232                 0.1305                 6.2495

                     25                     26                     27
                      A                      A                      A
 Frequencies --   1098.5590              1107.6036              1130.1089
 Red. masses --      1.3648                 1.4224                 1.7887
 Frc consts  --      0.9704                 1.0281                 1.3460
 IR Inten    --      2.8895                 8.2357                30.0763

                     28                     29                     30
                      A                      A                      A
 Frequencies --   1154.3126              1160.7029              1205.5216
 Red. masses --      1.6393                 2.2608                 1.7569
 Frc consts  --      1.2870                 1.7946                 1.5043
 IR Inten    --     43.6205                 2.2000                 0.5856

                     31                     32                     33
                      A                      A                      A
 Frequencies --   1227.0593              1287.1381              1315.7946
 Red. masses --      2.2044                 2.0925                 3.0319
 Frc consts  --      1.9556                 2.0425                 3.0927
 IR Inten    --      5.2437               424.9047                 4.7021

                     34                     35                     36
                      A                      A                      A
 Frequencies --   1331.8500              1366.9278              1410.4368
 Red. masses --      2.0763                 3.4350                 1.3437
 Frc consts  --      2.1699                 3.7815                 1.5750
 IR Inten    --     10.1131                15.1832                 1.2245

                     37                     38                     39
                      A                      A                      A
 Frequencies --   1422.1563              1484.7089              1492.4257
 Red. masses --      2.0356                 1.0474                 1.0606
 Frc consts  --      2.4256                 1.3603                 1.3918
 IR Inten    --      4.6509                10.1147                 4.0627

                     40                     41                     42
                      A                      A                      A
 Frequencies --   1515.3535              1530.2163              3019.4293
 Red. masses --      1.1592                 1.3947                 1.0531
 Frc consts  --      1.5683                 1.9242                 5.6567
 IR Inten    --      1.8795                 0.1279                52.8011

                     43                     44                     45
                      A                      A                      A
 Frequencies --   3023.6176              3048.4729              3065.9302
 Red. masses --      1.0377                 1.0554                 1.1077
 Frc consts  --      5.5894                 5.7789                 6.1349
 IR Inten    --     45.1935                35.3924                39.1839

                     46                     47                     48
                      A                      A                      A
 Frequencies --   3084.1805              3093.7011              3108.5066
 Red. masses --      1.1008                 1.0999                 1.1097
 Frc consts  --      6.1695                 6.2022                 6.3177
 IR Inten    --     24.3915                20.5085                21.2235

                     49                     50                     51
                      A                      A                      A
 Frequencies --   3109.9226              3797.1098              3798.3461
 Red. masses --      1.0910                 1.0657                 1.0654
 Frc consts  --      6.2167                 9.0527                 9.0565
 IR Inten    --     50.5153                20.6658                15.0413

 - Thermochemistry -
 -------------------
 Temperature   298.150 Kelvin.  Pressure   1.00000 Atm.
 Atom     1 has atomic number  6 and mass  12.00000

 Molecular mass:   126.06808 amu.
 Principal axes and moments of inertia in atomic units:
                           1         2         3
     Eigenvalues --   789.333711073.416011203.23543
           X            1.00000   0.00000   0.00000
           Y            0.00000   0.99944  -0.03353
           Z            0.00000   0.03353   0.99944
 This molecule is an asymmetric top.
 Rotational symmetry number  1.
 Warning -- assumption of classical behavior for rotation
           may cause significant error
 Rotational temperatures (Kelvin)      0.10973     0.08069     0.07198
 Rotational constants (GHZ):           2.28641     1.68131     1.49991
 Zero-point vibrational energy     412513.5 (Joules/Mol)
                                   98.59310 (Kcal/Mol)
 Warning -- explicit consideration of  12 degrees of freedom as
           vibrations may cause significant error
 Vibrational temperatures:    225.75   263.40   301.50   338.11   340.38
          (Kelvin)            399.61   422.21   441.80   659.97   715.80
                              757.39   869.96   917.38   952.49   993.33
                             1129.91  1253.65  1276.91  1320.72  1379.49
                             1428.13  1473.06  1534.26  1577.50  1580.58
                             1593.59  1625.97  1660.80  1669.99  1734.47
                             1765.46  1851.90  1893.13  1916.23  1966.70
                             2029.30  2046.16  2136.16  2147.26  2180.25
                             2201.64  4344.28  4350.31  4386.07  4411.18
                             4437.44  4451.14  4472.44  4474.48  5463.19
                             5464.97

 Zero-point correction=                           0.157118 (Hartree/Particle)
 Thermal correction to Energy=                    0.165884
 Thermal correction to Enthalpy=                  0.166828
 Thermal correction to Gibbs Free Energy=         0.124567
 Sum of electronic and zero-point Energies=           -422.955512
 Sum of electronic and thermal Energies=              -422.946747
 Sum of electronic and thermal Enthalpies=            -422.945802
 Sum of electronic and thermal Free Energies=         -422.988063

                     E (Thermal)             CV                S
                      KCal/Mol        Cal/Mol-Kelvin    Cal/Mol-Kelvin
 Total                  104.093             34.368             88.946
 Electronic               0.000              0.000              0.000
 Translational            0.889              2.981             40.409
 Rotational               0.889              2.981             28.413
 Vibrational            102.316             28.406             20.125
 Vibration     1          0.621              1.895              2.587
 Vibration     2          0.631              1.863              2.297
 Vibration     3          0.642              1.826              2.048
 Vibration     4          0.655              1.787              1.840
 Vibration     5          0.655              1.785              1.828
 Vibration     6          0.679              1.715              1.548
 Vibration     7          0.688              1.686              1.454
 Vibration     8          0.697              1.660              1.378
 Vibration     9          0.817              1.342              0.770
 Vibration    10          0.853              1.256              0.664
 Vibration    11          0.881              1.192              0.595
 Vibration    12          0.963              1.022              0.442

 Normal termination of Gaussian 09 at Mon Jan 27 18:47:26 2020.
