 Gaussian 09, Revision D.01,
 Gaussian 09:  ES64L-G09RevD.01 24-Apr-2013

 -----------------------------
 # b3lyp 6-31G(2df,p) opt Freq
 -----------------------------

 -----
 titel
 -----
 Symbolic Z-matrix:
 Charge =  0 Multiplicity = 1

 SCF Done:  E(RB3LYP) =  -423.193167484     A.U. after   14 cycles
 Optimization completed.
    -- Stationary point found.
 Normal termination of Gaussian 09 at Mon Jan 27 23:10:13 2020.

 ----------------------------------------------------------------------
 #N Geom=AllCheck Guess=TCheck SCRF=Check GenChk RB3LYP/6-31G(2df,p) Fr
 eq
 ----------------------------------------------------------------------

 Structure from the checkpoint file:  "/scratch/puck/g09_29b3a51e-f872-4fc0-8441-5fb789a6bac6/Gau-79887.chk"
 -----
 titel
 -----
 Charge =  0 Multiplicity = 1

                         Standard orientation:
 ---------------------------------------------------------------------
 Center     Atomic      Atomic             Coordinates (Angstroms)
 Number     Number       Type             X           Y           Z
 ---------------------------------------------------------------------
      1          6           0        1.685711    1.772495   -0.086778
      2          6           0        0.599751    0.728022   -0.334251
      3          6           0       -0.683944    0.967817    0.467379
      4          6           0       -2.018604    1.118535   -0.233684
      5          6           0       -1.667210   -0.174222    0.434119
      6          8           0       -1.295893   -1.230022   -0.409357
      7          6           0       -0.030581   -1.754470   -0.043508
      8          6           0        1.075102   -0.691926   -0.023716
      9          8           0        2.218008   -0.987206    0.230541
     10          1           0        1.329716    2.769043   -0.363482
     11          1           0        1.974967    1.789944    0.968503
     12          1           0        2.582785    1.544447   -0.666308
     13          1           0        0.338505    0.720063   -1.401915
     14          1           0       -0.545681    1.493765    1.407087
     15          1           0       -2.775283    1.740975    0.230627
     16          1           0       -2.020912    1.123996   -1.318437
     17          1           0       -2.192995   -0.478486    1.338668
     18          1           0       -0.057944   -2.245494    0.941857
     19          1           0        0.228564   -2.517933   -0.783428
 ---------------------------------------------------------------------

 SCF Done:  E(RB3LYP) =  -423.193167484     A.U. after    1 cycles

 The electronic state is 1-A.
 Alpha  occ. eigenvalues --  -19.15619 -19.13221 -10.26812 -10.24234 -10.23880
 Alpha  occ. eigenvalues --  -10.20335 -10.20313 -10.19542 -10.17864  -1.05722
 Alpha  occ. eigenvalues --   -1.03975  -0.86576  -0.78747  -0.72209  -0.65292
 Alpha  occ. eigenvalues --   -0.60514  -0.60027  -0.52214  -0.51542  -0.50941
 Alpha  occ. eigenvalues --   -0.47383  -0.45614  -0.43893  -0.42058  -0.40606
 Alpha  occ. eigenvalues --   -0.38107  -0.37576  -0.37071  -0.36298  -0.33939
 Alpha  occ. eigenvalues --   -0.32180  -0.29062  -0.28014  -0.22861
 Alpha virt. eigenvalues --   -0.01606   0.08551   0.10149   0.10894   0.11662
 Alpha virt. eigenvalues --    0.12047   0.13668   0.15210   0.16732   0.17185
 Alpha virt. eigenvalues --    0.17427   0.18090   0.19055   0.21496   0.22451

 Mulliken charges:
               1
     1  C   -0.405020
     2  C   -0.101735
     3  C   -0.062209
     4  C   -0.322803
     5  C    0.096456
     6  O   -0.248702
     7  C   -0.173232
     8  C    0.355769
     9  O   -0.311155
    10  H    0.114242
    11  H    0.125398
    12  H    0.132374
    13  H    0.107487
    14  H    0.096182
    15  H    0.118002
    16  H    0.125937
    17  H    0.090233
    18  H    0.121886
    19  H    0.140892
 Sum of Mulliken charges =   0.00000

 Dipole moment (field-independent basis, Debye):
    X=             -1.7276    Y=              1.2978    Z=              0.2895  Tot=              2.1801
 Quadrupole moment (field-independent basis, Debye-Ang):
   XX=            -60.3919   YY=            -52.2778   ZZ=            -50.8411
   XY=              0.4721   XZ=             -3.2827   YZ=             -0.1076

  Exact polarizability:  84.318  -3.290  78.901  -0.133  -1.178  61.588
 Approx polarizability: 120.361  -6.745 107.713   4.087  -1.120  97.788

                      1                      2                      3
                      A                      A                      A
 Frequencies --     72.9796               173.9183               192.3171
 Red. masses --      4.1650                 2.8082                 1.0327
 Frc consts  --      0.0131                 0.0500                 0.0225
 IR Inten    --      2.8533                 5.0913                 0.0465

                      4                      5                      6
                      A                      A                      A
 Frequencies --    251.6453               291.1565               322.1000
 Red. masses --      2.6481                 2.5140                 3.6117
 Frc consts  --      0.0988                 0.1256                 0.2208
 IR Inten    --      4.9372                 0.4978                 1.4162

                      7                      8                      9
                      A                      A                      A
 Frequencies --    375.5852               452.3474               493.8389
 Red. masses --      4.3101                 2.8979                 5.6497
 Frc consts  --      0.3582                 0.3494                 0.8118
 IR Inten    --     11.3813                 3.4308                 0.2862

                     10                     11                     12
                      A                      A                      A
 Frequencies --    522.0025               597.1667               701.2435
 Red. masses --      4.4700                 3.2097                 3.4521
 Frc consts  --      0.7176                 0.6744                 1.0002
 IR Inten    --      5.0293                 6.6616                 5.2030

                     13                     14                     15
                      A                      A                      A
 Frequencies --    727.5228               787.3426               823.2593
 Red. masses --      2.4567                 2.2499                 1.6462
 Frc consts  --      0.7661                 0.8217                 0.6574
 IR Inten    --      1.6381                 9.1012                10.3319

                     16                     17                     18
                      A                      A                      A
 Frequencies --    862.4669               947.9232               982.0101
 Red. masses --      1.9254                 1.5321                 1.8352
 Frc consts  --      0.8438                 0.8111                 1.0427
 IR Inten    --      4.9313                 1.2834                 4.8908

                     19                     20                     21
                      A                      A                      A
 Frequencies --   1001.0099              1030.5699              1060.1060
 Red. masses --      1.7787                 1.9733                 2.1375
 Frc consts  --      1.0501                 1.2348                 1.4153
 IR Inten    --      2.1299                14.0809                 9.6105

                     22                     23                     24
                      A                      A                      A
 Frequencies --   1067.8819              1082.2668              1107.3063
 Red. masses --      2.0389                 2.4189                 2.4848
 Frc consts  --      1.3699                 1.6693                 1.7951
 IR Inten    --      5.2728                32.5885                 8.1257

                     25                     26                     27
                      A                      A                      A
 Frequencies --   1125.6524              1159.8732              1177.9586
 Red. masses --      1.3447                 2.0746                 2.2728
 Frc consts  --      1.0039                 1.6444                 1.8581
 IR Inten    --      0.7987                 9.5562                55.3493

                     28                     29                     30
                      A                      A                      A
 Frequencies --   1191.1298              1225.3196              1263.1280
 Red. masses --      2.0534                 1.7712                 1.3063
 Frc consts  --      1.7165                 1.5668                 1.2280
 IR Inten    --      4.9860                33.1272                12.8480

                     31                     32                     33
                      A                      A                      A
 Frequencies --   1276.2001              1319.1503              1342.3081
 Red. masses --      1.3100                 1.6082                 1.3505
 Frc consts  --      1.2570                 1.6488                 1.4337
 IR Inten    --      1.3348                 6.1953                18.0201

                     34                     35                     36
                      A                      A                      A
 Frequencies --   1374.8386              1401.5372              1411.5491
 Red. masses --      1.5235                 1.6845                 1.2242
 Frc consts  --      1.6966                 1.9495                 1.4371
 IR Inten    --      4.1936                 7.0799                 2.8037

                     37                     38                     39
                      A                      A                      A
 Frequencies --   1460.5058              1477.1308              1490.2328
 Red. masses --      1.0870                 1.3701                 1.0425
 Frc consts  --      1.3661                 1.7613                 1.3640
 IR Inten    --      5.2738                10.4926                 7.1487

                     40                     41                     42
                      A                      A                      A
 Frequencies --   1493.9018              1821.2533              2990.9819
 Red. masses --      1.0502                12.4472                 1.0690
 Frc consts  --      1.3810                24.3255                 5.6345
 IR Inten    --      2.9045               160.5298                32.8591

                     43                     44                     45
                      A                      A                      A
 Frequencies --   3010.4043              3045.9344              3090.1847
 Red. masses --      1.0809                 1.0357                 1.0921
 Frc consts  --      5.7716                 5.6613                 6.1446
 IR Inten    --      6.8061                19.9748                11.9387

                     46                     47                     48
                      A                      A                      A
 Frequencies --   3105.2246              3113.6223              3130.9204
 Red. masses --      1.0877                 1.1019                 1.1010
 Frc consts  --      6.1796                 6.2940                 6.3590
 IR Inten    --     32.7563                19.5999                13.3335

                     49                     50                     51
                      A                      A                      A
 Frequencies --   3135.3782              3154.9388              3226.0500
 Red. masses --      1.0549                 1.0899                 1.1170
 Frc consts  --      6.1099                 6.3916                 6.8496
 IR Inten    --      9.3430                12.9873                 7.2898

 - Thermochemistry -
 -------------------
 Temperature   298.150 Kelvin.  Pressure   1.00000 Atm.
 Atom     1 has atomic number  6 and mass  12.00000

 Molecular mass:   126.06808 amu.
 Principal axes and moments of inertia in atomic units:
                           1         2         3
     Eigenvalues --   735.581151059.397941644.14207
           X            0.99895   0.04449  -0.01055
           Y           -0.04456   0.99898  -0.00665
           Z            0.01025   0.00711   0.99992
 This molecule is an asymmetric top.
 Rotational symmetry number  1.
 Warning -- assumption of classical behavior for rotation
           may cause significant error
 Rotational temperatures (Kelvin)      0.11775     0.08176     0.05268
 Rotational constants (GHZ):           2.45349     1.70355     1.09768
 Zero-point vibrational energy     418341.7 (Joules/Mol)
                                   99.98607 (Kcal/Mol)
 Warning -- explicit consideration of  11 degrees of freedom as
           vibrations may cause significant error
 Vibrational temperatures:    105.00   250.23   276.70   362.06   418.91
          (Kelvin)            463.43   540.38   650.83   710.52   751.04
                              859.19  1008.93  1046.74  1132.81  1184.49
                             1240.90  1363.85  1412.89  1440.23  1482.76
                             1525.25  1536.44  1557.14  1593.16  1619.56
                             1668.80  1694.82  1713.77  1762.96  1817.36
                             1836.17  1897.96  1931.28  1978.08  2016.50
                             2030.90  2101.34  2125.26  2144.11  2149.39
                             2620.37  4303.35  4331.29  4382.41  4446.08
                             4467.72  4479.80  4504.69  4511.10  4539.25
                             4641.56

 Zero-point correction=                           0.159338 (Hartree/Particle)
 Thermal correction to Energy=                    0.167513
 Thermal correction to Enthalpy=                  0.168457
 Thermal correction to Gibbs Free Energy=         0.126624
 Sum of electronic and zero-point Energies=           -423.033830
 Sum of electronic and thermal Energies=              -423.025654
 Sum of electronic and thermal Enthalpies=            -423.024710
 Sum of electronic and thermal Free Energies=         -423.066543

                     E (Thermal)             CV                S
                      KCal/Mol        Cal/Mol-Kelvin    Cal/Mol-Kelvin
 Total                  105.116             31.682             88.045
 Electronic               0.000              0.000              0.000
 Translational            0.889              2.981             40.409
 Rotational               0.889              2.981             28.640
 Vibrational            103.339             25.720             18.996
 Vibration     1          0.599              1.967              4.071
 Vibration     2          0.627              1.875              2.393
 Vibration     3          0.634              1.851              2.205
 Vibration     4          0.664              1.760              1.719
 Vibration     5          0.687              1.690              1.467
 Vibration     6          0.707              1.631              1.299
 Vibration     7          0.746              1.522              1.057
 Vibration     8          0.811              1.356              0.789
 Vibration     9          0.849              1.264              0.674
 Vibration    10          0.877              1.201              0.605
 Vibration    11          0.955              1.038              0.455

 Normal termination of Gaussian 09 at Mon Jan 27 23:55:20 2020.
