 Gaussian 09, Revision D.01,
 Gaussian 09:  ES64L-G09RevD.01 24-Apr-2013

 -----------------------------
 # b3lyp 6-31G(2df,p) opt Freq
 -----------------------------

 -----
 titel
 -----
 Symbolic Z-matrix:
 Charge =  0 Multiplicity = 1

 SCF Done:  E(RB3LYP) =  -423.190032069     A.U. after   13 cycles
 Optimization completed.
    -- Stationary point found.
 Normal termination of Gaussian 09 at Tue Jan 28 00:06:33 2020.

 ----------------------------------------------------------------------
 #N Geom=AllCheck Guess=TCheck SCRF=Check GenChk RB3LYP/6-31G(2df,p) Fr
 eq
 ----------------------------------------------------------------------

 Structure from the checkpoint file:  "/scratch/puck/g09_c4b7a2b2-0191-42fd-b702-fa8bbe08ba9a/Gau-21130.chk"
 -----
 titel
 -----
 Charge =  0 Multiplicity = 1

                         Standard orientation:
 ---------------------------------------------------------------------
 Center     Atomic      Atomic             Coordinates (Angstroms)
 Number     Number       Type             X           Y           Z
 ---------------------------------------------------------------------
      1          8           0       -2.311232    0.000000   -0.744733
      2          6           0       -0.901151   -0.000004   -0.787147
      3          6           0       -0.243468   -1.170662   -0.019332
      4          6           0        1.250603   -1.195802   -0.428231
      5          8           0        1.923472   -0.000003   -0.063989
      6          6           0        1.250608    1.195796   -0.428239
      7          6           0       -0.243466    1.170663   -0.019346
      8          6           0       -0.369119    0.667861    1.414574
      9          6           0       -0.369113   -0.667841    1.414584
     10          1           0       -2.562559   -0.000043    0.187078
     11          1           0       -0.642611   -0.000011   -1.850739
     12          1           0       -0.712039   -2.137304   -0.223686
     13          1           0        1.789184   -2.002073    0.078849
     14          1           0        1.324222   -1.369150   -1.515284
     15          1           0        1.789187    2.002069    0.078842
     16          1           0        1.324235    1.369140   -1.515291
     17          1           0       -0.712035    2.137302   -0.223717
     18          1           0       -0.372441    1.311361    2.286260
     19          1           0       -0.372429   -1.311330    2.286278
 ---------------------------------------------------------------------

 SCF Done:  E(RB3LYP) =  -423.190032069     A.U. after    1 cycles

 The electronic state is 1-A.
 Alpha  occ. eigenvalues --  -19.13816 -19.13140 -10.23020 -10.23019 -10.22933
 Alpha  occ. eigenvalues --  -10.18987 -10.18985 -10.18739 -10.18651  -1.03315
 Alpha  occ. eigenvalues --   -1.01665  -0.84611  -0.76765  -0.71776  -0.65487
 Alpha  occ. eigenvalues --   -0.63254  -0.56720  -0.54246  -0.51722  -0.48173
 Alpha  occ. eigenvalues --   -0.47517  -0.45687  -0.43577  -0.41867  -0.40427
 Alpha  occ. eigenvalues --   -0.39560  -0.37260  -0.35121  -0.33456  -0.33062
 Alpha  occ. eigenvalues --   -0.30757  -0.26175  -0.25615  -0.24204
 Alpha virt. eigenvalues --    0.00578   0.09239   0.10490   0.12095   0.12297
 Alpha virt. eigenvalues --    0.13720   0.13967   0.15660   0.16601   0.17356
 Alpha virt. eigenvalues --    0.17639   0.17824   0.19955   0.21783   0.22738

 Mulliken charges:
               1
     1  O   -0.458508
     2  C    0.154410
     3  C   -0.109531
     4  C   -0.081649
     5  O   -0.243191
     6  C   -0.081650
     7  C   -0.109528
     8  C   -0.082425
     9  C   -0.082430
    10  H    0.274950
    11  H    0.078334
    12  H    0.072182
    13  H    0.109802
    14  H    0.089825
    15  H    0.109802
    16  H    0.089825
    17  H    0.072182
    18  H    0.098799
    19  H    0.098799
 Sum of Mulliken charges =   0.00000

 Dipole moment (field-independent basis, Debye):
    X=             -0.0007    Y=             -0.0001    Z=              0.8803  Tot=              0.8803
 Quadrupole moment (field-independent basis, Debye-Ang):
   XX=            -60.5694   YY=            -48.8051   ZZ=            -51.8182
   XY=              0.0002   XZ=             -4.7398   YZ=              0.0000

  Exact polarizability:  68.782   0.000  81.654  -2.663   0.000  72.843
 Approx polarizability:  99.960   0.000 129.711  -1.137   0.000 108.937

                      1                      2                      3
                      A                      A                      A
 Frequencies --    208.4877               260.4927               280.3887
 Red. masses --      4.9830                 2.5295                 3.3475
 Frc consts  --      0.1276                 0.1011                 0.1551
 IR Inten    --      8.0493                 0.9018                 2.2794

                      4                      5                      6
                      A                      A                      A
 Frequencies --    320.4586               375.3905               392.0847
 Red. masses --      2.3889                 1.9207                 3.1057
 Frc consts  --      0.1445                 0.1595                 0.2813
 IR Inten    --      1.8730                 1.3553                 0.2138

                      7                      8                      9
                      A                      A                      A
 Frequencies --    422.3294               441.8523               632.9272
 Red. masses --      1.3310                 6.8730                 3.9614
 Frc consts  --      0.1399                 0.7906                 0.9350
 IR Inten    --     61.9424                 2.5973                 1.0966

                     10                     11                     12
                      A                      A                      A
 Frequencies --    665.7755               754.1998               789.1821
 Red. masses --      2.5353                 2.1874                 4.2452
 Frc consts  --      0.6621                 0.7331                 1.5578
 IR Inten    --      0.6114                13.1071                 3.0089

                     13                     14                     15
                      A                      A                      A
 Frequencies --    833.8852               857.9244               872.1278
 Red. masses --      3.1521                 3.4935                 2.4068
 Frc consts  --      1.2914                 1.5150                 1.0786
 IR Inten    --     64.5218                 6.0513                 0.0458

                     16                     17                     18
                      A                      A                      A
 Frequencies --    875.0978               928.8032               960.8603
 Red. masses --      2.2355                 1.9406                 1.3391
 Frc consts  --      1.0086                 0.9863                 0.7284
 IR Inten    --      6.6757                 6.7559                 3.6083

                     19                     20                     21
                      A                      A                      A
 Frequencies --    979.1806               982.7957              1018.4379
 Red. masses --      1.8774                 3.1658                 2.2987
 Frc consts  --      1.0606                 1.8016                 1.4048
 IR Inten    --      0.3579                 3.3637                 6.9516

                     22                     23                     24
                      A                      A                      A
 Frequencies --   1043.4924              1078.6602              1112.0521
 Red. masses --      1.7171                 1.6499                 1.5892
 Frc consts  --      1.1016                 1.1310                 1.1580
 IR Inten    --     21.4346                 2.5088                55.9325

                     25                     26                     27
                      A                      A                      A
 Frequencies --   1123.0622              1140.6599              1198.4136
 Red. masses --      3.8609                 1.7287                 1.7493
 Frc consts  --      2.8691                 1.3252                 1.4802
 IR Inten    --     60.7583                47.5149                21.2799

                     28                     29                     30
                      A                      A                      A
 Frequencies --   1245.4516              1252.8855              1260.9599
 Red. masses --      1.3566                 1.4104                 1.4295
 Frc consts  --      1.2398                 1.3044                 1.3391
 IR Inten    --     21.1338                 4.9426                 4.5032

                     31                     32                     33
                      A                      A                      A
 Frequencies --   1275.1210              1302.3345              1308.1231
 Red. masses --      1.4139                 1.3088                 1.6243
 Frc consts  --      1.3544                 1.3078                 1.6377
 IR Inten    --     26.9814                 1.9207                 2.3917

                     34                     35                     36
                      A                      A                      A
 Frequencies --   1338.4320              1344.2203              1395.1933
 Red. masses --      1.4230                 1.3953                 1.4650
 Frc consts  --      1.5019                 1.4854                 1.6802
 IR Inten    --      2.3783                 0.0014                 0.0423

                     37                     38                     39
                      A                      A                      A
 Frequencies --   1408.0650              1446.4105              1498.0576
 Red. masses --      1.2918                 1.2472                 1.0812
 Frc consts  --      1.5090                 1.5373                 1.4296
 IR Inten    --     34.0070                51.8576                 0.0131

                     40                     41                     42
                      A                      A                      A
 Frequencies --   1506.2699              1653.5179              2959.4389
 Red. masses --      1.0980                 6.0405                 1.0706
 Frc consts  --      1.4678                 9.7306                 5.5245
 IR Inten    --      3.7850                 0.3463                42.9258

                     43                     44                     45
                      A                      A                      A
 Frequencies --   2964.8649              3064.1171              3073.8291
 Red. masses --      1.0707                 1.0851                 1.0888
 Frc consts  --      5.5453                 6.0022                 6.0610
 IR Inten    --     84.8104                24.7332                 1.9631

                     46                     47                     48
                      A                      A                      A
 Frequencies --   3077.1850              3079.6455              3082.2747
 Red. masses --      1.0919                 1.0882                 1.0899
 Frc consts  --      6.0917                 6.0807                 6.1008
 IR Inten    --     51.3106                84.3405                 3.7285

                     49                     50                     51
                      A                      A                      A
 Frequencies --   3190.5038              3215.3957              3779.3224
 Red. masses --      1.0852                 1.1053                 1.0647
 Frc consts  --      6.5082                 6.7329                 8.9600
 IR Inten    --      5.1728                16.5947                15.4544

 - Thermochemistry -
 -------------------
 Temperature   298.150 Kelvin.  Pressure   1.00000 Atm.
 Atom     1 has atomic number  8 and mass  15.99491

 Molecular mass:   126.06808 amu.
 Principal axes and moments of inertia in atomic units:
                           1         2         3
     Eigenvalues --   678.024361080.175241133.82910
           X            0.99941   0.00000  -0.03422
           Y            0.00000   1.00000   0.00000
           Z            0.03422   0.00000   0.99941
 This molecule is an asymmetric top.
 Rotational symmetry number  1.
 Warning -- assumption of classical behavior for rotation
           may cause significant error
 Rotational temperatures (Kelvin)      0.12774     0.08018     0.07639
 Rotational constants (GHZ):           2.66176     1.67079     1.59172
 Zero-point vibrational energy     426293.1 (Joules/Mol)
                                  101.88650 (Kcal/Mol)
 Warning -- explicit consideration of   8 degrees of freedom as
           vibrations may cause significant error
 Vibrational temperatures:    299.97   374.79   403.42   461.07   540.10
          (Kelvin)            564.12   607.64   635.73   910.64   957.90
                             1085.12  1135.46  1199.77  1234.36  1254.80
                             1259.07  1336.34  1382.46  1408.82  1414.02
                             1465.30  1501.35  1551.95  1599.99  1615.83
                             1641.15  1724.25  1791.92  1802.62  1814.24
                             1834.61  1873.77  1882.10  1925.70  1934.03
                             2007.37  2025.89  2081.06  2155.37  2167.18
                             2379.04  4257.97  4265.77  4408.58  4422.55
                             4427.38  4430.92  4434.70  4590.42  4626.23
                             5437.60

 Zero-point correction=                           0.162366 (Hartree/Particle)
 Thermal correction to Energy=                    0.169440
 Thermal correction to Enthalpy=                  0.170384
 Thermal correction to Gibbs Free Energy=         0.131432
 Sum of electronic and zero-point Energies=           -423.027666
 Sum of electronic and thermal Energies=              -423.020592
 Sum of electronic and thermal Enthalpies=            -423.019648
 Sum of electronic and thermal Free Energies=         -423.058600

                     E (Thermal)             CV                S
                      KCal/Mol        Cal/Mol-Kelvin    Cal/Mol-Kelvin
 Total                  106.325             29.551             81.982
 Electronic               0.000              0.000              0.000
 Translational            0.889              2.981             40.409
 Rotational               0.889              2.981             28.209
 Vibrational            104.548             23.590             13.365
 Vibration     1          0.642              1.828              2.057
 Vibration     2          0.669              1.745              1.658
 Vibration     3          0.680              1.710              1.531
 Vibration     4          0.706              1.634              1.308
 Vibration     5          0.746              1.523              1.058
 Vibration     6          0.760              1.487              0.992
 Vibration     7          0.785              1.422              0.884
 Vibration     8          0.802              1.379              0.821

 Optimization completed.
    -- Stationary point found.
 Normal termination of Gaussian 09 at Tue Jan 28 01:01:14 2020.
