 Gaussian 09, Revision D.01,
 Gaussian 09:  ES64L-G09RevD.01 24-Apr-2013

 -----------------------------
 # b3lyp 6-31G(2df,p) opt Freq
 -----------------------------

 -----
 titel
 -----
 Symbolic Z-matrix:
 Charge =  0 Multiplicity = 1

 SCF Done:  E(RB3LYP) =  -423.194975867     A.U. after   15 cycles
 Optimization completed.
    -- Stationary point found.
 Normal termination of Gaussian 09 at Mon Jan 27 14:02:19 2020.

 ----------------------------------------------------------------------
 #N Geom=AllCheck Guess=TCheck SCRF=Check GenChk RB3LYP/6-31G(2df,p) Fr
 eq
 ----------------------------------------------------------------------

 Structure from the checkpoint file:  "/scratch/puck/g09_e69f69dd-da23-4e1c-b126-8655c153d6f3/Gau-40376.chk"
 -----
 titel
 -----
 Charge =  0 Multiplicity = 1

                         Standard orientation:
 ---------------------------------------------------------------------
 Center     Atomic      Atomic             Coordinates (Angstroms)
 Number     Number       Type             X           Y           Z
 ---------------------------------------------------------------------
      1          6           0        3.815909    0.714633   -0.156110
      2          6           0        2.587104   -0.058405   -0.045485
      3          6           0        1.573548   -0.700592    0.049450
      4          6           0        0.336787   -1.466800    0.146580
      5          6           0       -0.915116   -0.658377   -0.221107
      6          6           0       -2.185354   -1.499736   -0.224872
      7          8           0       -1.028882    0.386234    0.781286
      8          6           0       -1.608528    1.531452    0.403690
      9          8           0       -2.069499    1.779444   -0.677512
     10          1           0        4.289389    0.853211    0.822158
     11          1           0        4.542580    0.218173   -0.808719
     12          1           0        3.622475    1.708948   -0.573552
     13          1           0        0.380872   -2.337151   -0.520482
     14          1           0        0.210171   -1.861034    1.163129
     15          1           0       -0.779609   -0.174386   -1.191014
     16          1           0       -2.356042   -1.950560    0.757813
     17          1           0       -3.046907   -0.880981   -0.484829
     18          1           0       -2.104780   -2.301498   -0.965294
     19          1           0       -1.597199    2.226811    1.257730
 ---------------------------------------------------------------------

 SCF Done:  E(RB3LYP) =  -423.194975867     A.U. after    1 cycles

 The electronic state is 1-A.
 Alpha  occ. eigenvalues --  -19.18560 -19.13082 -10.30609 -10.25133 -10.21141
 Alpha  occ. eigenvalues --  -10.20253 -10.18577 -10.17274 -10.16824  -1.10230
 Alpha  occ. eigenvalues --   -1.01900  -0.81608  -0.77121  -0.73043  -0.67494
 Alpha  occ. eigenvalues --   -0.65522  -0.56791  -0.53212  -0.49435  -0.47449
 Alpha  occ. eigenvalues --   -0.45844  -0.44584  -0.42998  -0.42587  -0.41979
 Alpha  occ. eigenvalues --   -0.41599  -0.40421  -0.38208  -0.37268  -0.34230
 Alpha  occ. eigenvalues --   -0.30293  -0.27775  -0.25013  -0.24848
 Alpha virt. eigenvalues --    0.01167   0.05444   0.06153   0.09749   0.11050
 Alpha virt. eigenvalues --    0.11325   0.13770   0.14557   0.14845   0.17465
 Alpha virt. eigenvalues --    0.17553   0.18108   0.18792   0.20824   0.21381

 Mulliken charges:
               1
     1  C   -0.497444
     2  C    0.104988
     3  C    0.034435
     4  C   -0.365124
     5  C    0.136999
     6  C   -0.411418
     7  O   -0.210297
     8  C    0.187914
     9  O   -0.309527
    10  H    0.147684
    11  H    0.147256
    12  H    0.149631
    13  H    0.129339
    14  H    0.133347
    15  H    0.121704
    16  H    0.124820
    17  H    0.143498
    18  H    0.123036
    19  H    0.109158
 Sum of Mulliken charges =   0.00000

 Dipole moment (field-independent basis, Debye):
    X=              1.0520    Y=             -1.3230    Z=              0.8428  Tot=              1.8887
 Quadrupole moment (field-independent basis, Debye-Ang):
   XX=            -50.2620   YY=            -51.5621   ZZ=            -53.8823
   XY=              6.3045   XZ=             -3.4704   YZ=              3.7561

  Exact polarizability:  99.305  10.825  80.995   0.275   0.743  62.174
 Approx polarizability: 130.159  18.305 115.025   2.907  -4.380 100.313

                      1                      2                      3
                      A                      A                      A
 Frequencies --     23.8929                33.5203                64.1149
 Red. masses --      1.0195                 7.4414                 3.4752
 Frc consts  --      0.0003                 0.0049                 0.0084
 IR Inten    --      0.0176                 1.3461                 0.4743

                      4                      5                      6
                      A                      A                      A
 Frequencies --     96.9498               202.7718               213.9617
 Red. masses --      3.5523                 3.4656                 3.5858
 Frc consts  --      0.0197                 0.0840                 0.0967
 IR Inten    --      1.7000                 9.3898                 2.0460

                      7                      8                      9
                      A                      A                      A
 Frequencies --    227.1180               238.4847               291.8590
 Red. masses --      1.1321                 2.4945                 2.5349
 Frc consts  --      0.0344                 0.0836                 0.1272
 IR Inten    --      0.4216                 5.4344                10.5383

                     10                     11                     12
                      A                      A                      A
 Frequencies --    328.2725               384.7921               394.7463
 Red. masses --      3.1435                 3.6583                 4.1779
 Frc consts  --      0.1996                 0.3191                 0.3836
 IR Inten    --      0.2186                 0.3602                 7.1233

                     13                     14                     15
                      A                      A                      A
 Frequencies --    469.8770               526.0801               770.9256
 Red. masses --      3.0942                 4.3638                 4.2723
 Frc consts  --      0.4025                 0.7116                 1.4960
 IR Inten    --      6.1865                11.2501                 0.4806

                     16                     17                     18
                      A                      A                      A
 Frequencies --    774.5655               817.0229               911.1699
 Red. masses --      3.5670                 3.4015                 1.6135
 Frc consts  --      1.2609                 1.3378                 0.7892
 IR Inten    --      0.0856                12.5244                 0.3120

                     19                     20                     21
                      A                      A                      A
 Frequencies --    925.1817              1044.5597              1051.0769
 Red. masses --      1.9689                 1.6794                 1.4955
 Frc consts  --      0.9929                 1.0796                 0.9734
 IR Inten    --      4.3959                 0.7981                 1.8992

                     22                     23                     24
                      A                      A                      A
 Frequencies --   1053.0256              1067.9517              1122.6247
 Red. masses --      1.4019                 2.2444                 2.0477
 Frc consts  --      0.9159                 1.5082                 1.5205
 IR Inten    --      0.7060                30.0099                 3.5953

                     25                     26                     27
                      A                      A                      A
 Frequencies --   1148.3947              1171.5341              1213.5398
 Red. masses --      1.8555                 3.2846                 7.9796
 Frc consts  --      1.4417                 2.6561                 6.9237
 IR Inten    --     37.2910                 0.4067               360.3707

                     28                     29                     30
                      A                      A                      A
 Frequencies --   1255.1092              1316.5465              1376.2897
 Red. masses --      1.2525                 1.3459                 1.3771
 Frc consts  --      1.1625                 1.3745                 1.5368
 IR Inten    --      4.0870                12.8113                 7.8164

                     31                     32                     33
                      A                      A                      A
 Frequencies --   1390.3103              1407.4004              1411.1908
 Red. masses --      1.3359                 1.2885                 1.1588
 Frc consts  --      1.5214                 1.5037                 1.3596
 IR Inten    --      0.9130                 6.4700                 2.5758

                     34                     35                     36
                      A                      A                      A
 Frequencies --   1415.1991              1460.8083              1478.4818
 Red. masses --      1.2489                 1.0902                 1.0396
 Frc consts  --      1.4737                 1.3706                 1.3389
 IR Inten    --      6.6730                 2.2049                 5.0855

                     37                     38                     39
                      A                      A                      A
 Frequencies --   1479.2196              1487.4902              1499.9015
 Red. masses --      1.0398                 1.0561                 1.0456
 Frc consts  --      1.3404                 1.3767                 1.3860
 IR Inten    --      5.3205                 3.2598                 5.5507

                     40                     41                     42
                      A                      A                      A
 Frequencies --   1815.8752              2377.6902              3021.1299
 Red. masses --      9.4370                11.8237                 1.0584
 Frc consts  --     18.3339                39.3834                 5.6919
 IR Inten    --    270.3699                 1.9169                21.5939

                     43                     44                     45
                      A                      A                      A
 Frequencies --   3025.8572              3027.0195              3043.5679
 Red. masses --      1.0879                 1.0368                 1.0367
 Frc consts  --      5.8687                 5.5972                 5.6579
 IR Inten    --     60.4464                36.5145                16.0266

                     46                     47                     48
                      A                      A                      A
 Frequencies --   3054.7950              3087.2806              3088.1938
 Red. masses --      1.0997                 1.1002                 1.1001
 Frc consts  --      6.0463                 6.1786                 6.1814
 IR Inten    --      7.6412                10.8338                10.2029

                     49                     50                     51
                      A                      A                      A
 Frequencies --   3093.5927              3117.4915              3133.9984
 Red. masses --      1.0877                 1.0997                 1.1014
 Frc consts  --      6.1331                 6.2969                 6.3738
 IR Inten    --      2.6051                26.2875                11.5540

 - Thermochemistry -
 -------------------
 Temperature   298.150 Kelvin.  Pressure   1.00000 Atm.
 Atom     1 has atomic number  6 and mass  12.00000

 Molecular mass:   126.06808 amu.
 Principal axes and moments of inertia in atomic units:
                           1         2         3
     Eigenvalues --   738.674362053.434932585.77513
           X            0.99880   0.04899  -0.00234
           Y           -0.04894   0.99864   0.01818
           Z            0.00322  -0.01805   0.99983
 This molecule is an asymmetric top.
 Rotational symmetry number  1.
 Warning -- assumption of classical behavior for rotation
           may cause significant error
 Rotational temperatures (Kelvin)      0.11726     0.04218     0.03350
 Rotational constants (GHZ):           2.44322     0.87889     0.69795
 Zero-point vibrational energy     409317.0 (Joules/Mol)
                                   97.82910 (Kcal/Mol)
 Warning -- explicit consideration of  14 degrees of freedom as
           vibrations may cause significant error
 Vibrational temperatures:     34.38    48.23    92.25   139.49   291.74
          (Kelvin)            307.84   326.77   343.13   419.92   472.31
                              553.63   567.95   676.05   756.91  1109.19
                             1114.43  1175.51  1310.97  1331.13  1502.89
                             1512.26  1515.07  1536.54  1615.20  1652.28
                             1685.57  1746.01  1805.82  1894.21  1980.17
                             2000.34  2024.93  2030.39  2036.15  2101.77
                             2127.20  2128.26  2140.16  2158.02  2612.64
                             3420.96  4346.73  4353.53  4355.20  4379.01
                             4395.16  4441.90  4443.22  4450.98  4485.37
                             4509.12

 Zero-point correction=                           0.155901 (Hartree/Particle)
 Thermal correction to Energy=                    0.166701
 Thermal correction to Enthalpy=                  0.167645
 Thermal correction to Gibbs Free Energy=         0.117557
 Sum of electronic and zero-point Energies=           -423.039075
 Sum of electronic and thermal Energies=              -423.028275
 Sum of electronic and thermal Enthalpies=            -423.027331
 Sum of electronic and thermal Free Energies=         -423.077419

                     E (Thermal)             CV                S
                      KCal/Mol        Cal/Mol-Kelvin    Cal/Mol-Kelvin
 Total                  104.606             36.338            105.418
 Electronic               0.000              0.000              0.000
 Translational            0.889              2.981             40.409
 Rotational               0.889              2.981             29.752
 Vibrational            102.829             30.376             35.258
 Vibration     1          0.593              1.985              6.281
 Vibration     2          0.594              1.983              5.609
 Vibration     3          0.597              1.971              4.326
 Vibration     4          0.603              1.951              3.515
 Vibration     5          0.639              1.836              2.108
 Vibration     6          0.644              1.820              2.010
 Vibration     7          0.651              1.800              1.902
 Vibration     8          0.656              1.782              1.814
 Vibration     9          0.687              1.689              1.463
 Vibration    10          0.711              1.619              1.269
 Vibration    11          0.754              1.503              1.020
 Vibration    12          0.762              1.481              0.982
 Vibration    13          0.827              1.317              0.738
 Vibration    14          0.881              1.192              0.596

 Normal termination of Gaussian 09 at Mon Jan 27 14:35:39 2020.
