 Gaussian 09, Revision D.01,
 Gaussian 09:  ES64L-G09RevD.01 24-Apr-2013

 -----------------------------
 # b3lyp 6-31G(2df,p) opt Freq
 -----------------------------

 -----
 titel
 -----
 Symbolic Z-matrix:
 Charge =  0 Multiplicity = 1

 SCF Done:  E(RB3LYP) =  -423.136800120     A.U. after   13 cycles
 Optimization completed.
    -- Stationary point found.
 Normal termination of Gaussian 09 at Mon Jan 27 17:53:17 2020.

 ----------------------------------------------------------------------
 #N Geom=AllCheck Guess=TCheck SCRF=Check GenChk RB3LYP/6-31G(2df,p) Fr
 eq
 ----------------------------------------------------------------------

 Structure from the checkpoint file:  "/scratch/puck/g09_af71abe5-1e2c-4c27-8878-3621767c5a33/Gau-51719.chk"
 -----
 titel
 -----
 Charge =  0 Multiplicity = 1

                         Standard orientation:
 ---------------------------------------------------------------------
 Center     Atomic      Atomic             Coordinates (Angstroms)
 Number     Number       Type             X           Y           Z
 ---------------------------------------------------------------------
      1          8           0        0.820063    1.885589   -0.135785
      2          6           0        0.874747    0.529421    0.079973
      3          6           0        1.964300   -0.103178    0.870976
      4          6           0        1.718019   -0.603498   -0.539343
      5          6           0        0.485051   -1.517694   -0.539379
      6          6           0       -0.371264   -0.342641    0.013102
      7          6           0       -1.459815   -0.409128    1.102594
      8          6           0       -2.376474    0.219928    0.039376
      9          8           0       -1.317577    0.202132   -0.948377
     10          1           0        0.153284    2.006383   -0.826863
     11          1           0        2.839523    0.530394    0.978876
     12          1           0        1.758916   -0.733346    1.735570
     13          1           0        2.490134   -0.572415   -1.297179
     14          1           0        0.135571   -1.794947   -1.536433
     15          1           0        0.543692   -2.413696    0.089314
     16          1           0       -1.734814   -1.419283    1.410982
     17          1           0       -1.264003    0.200047    1.986845
     18          1           0       -3.232368   -0.384426   -0.280739
     19          1           0       -2.717201    1.240253    0.249137
 ---------------------------------------------------------------------

 SCF Done:  E(RB3LYP) =  -423.136800120     A.U. after    1 cycles

 The electronic state is 1-A.
 Alpha  occ. eigenvalues --  -19.14439 -19.13897 -10.23906 -10.23411 -10.23381
 Alpha  occ. eigenvalues --  -10.18830 -10.18695 -10.18587 -10.18313  -1.04833
 Alpha  occ. eigenvalues --   -1.02494  -0.88282  -0.74455  -0.72689  -0.65910
 Alpha  occ. eigenvalues --   -0.59921  -0.57292  -0.54971  -0.50635  -0.49322
 Alpha  occ. eigenvalues --   -0.47998  -0.45079  -0.41915  -0.41607  -0.40625
 Alpha  occ. eigenvalues --   -0.38935  -0.37258  -0.36403  -0.32406  -0.31999
 Alpha  occ. eigenvalues --   -0.31035  -0.28944  -0.24736  -0.22744
 Alpha virt. eigenvalues --    0.06863   0.09361   0.10875   0.10968   0.12104
 Alpha virt. eigenvalues --    0.12738   0.13918   0.15009   0.15556   0.16835
 Alpha virt. eigenvalues --    0.17516   0.18226   0.19826   0.21464   0.22115

 Mulliken charges:
               1
     1  O   -0.460724
     2  C    0.381869
     3  C   -0.334060
     4  C   -0.141455
     5  C   -0.303176
     6  C    0.369455
     7  C   -0.367955
     8  C   -0.074183
     9  O   -0.334046
    10  H    0.290447
    11  H    0.123353
    12  H    0.101739
    13  H    0.091770
    14  H    0.117694
    15  H    0.092441
    16  H    0.113185
    17  H    0.118985
    18  H    0.107631
    19  H    0.107029
 Sum of Mulliken charges =   0.00000

 Dipole moment (field-independent basis, Debye):
    X=             -0.9406    Y=             -1.0419    Z=              0.6669  Tot=              1.5540
 Quadrupole moment (field-independent basis, Debye-Ang):
   XX=            -50.5683   YY=            -54.3337   ZZ=            -53.0799
   XY=             -1.5297   XZ=             -1.9854   YZ=             -1.3867

  Exact polarizability:  86.525  -2.196  72.188   0.788   0.771  66.792
 Approx polarizability: 112.522  -3.670 108.466   2.099   0.945 103.282

                      1                      2                      3
                      A                      A                      A
 Frequencies --     75.1937               123.6950               199.0864
 Red. masses --      2.2380                 3.2188                 3.4034
 Frc consts  --      0.0075                 0.0290                 0.0795
 IR Inten    --      0.9023                 0.0379                 8.2541

                      4                      5                      6
                      A                      A                      A
 Frequencies --    233.4327               349.1623               402.6907
 Red. masses --      3.3650                 2.5103                 2.4055
 Frc consts  --      0.1080                 0.1803                 0.2298
 IR Inten    --     10.7057                 0.5333                 0.8422

                      7                      8                      9
                      A                      A                      A
 Frequencies --    433.0098               467.9231               514.1853
 Red. masses --      2.7468                 1.5353                 2.2544
 Frc consts  --      0.3034                 0.1981                 0.3512
 IR Inten    --      0.5201                55.6216                53.9075

                     10                     11                     12
                      A                      A                      A
 Frequencies --    545.1273               659.5307               777.1935
 Red. masses --      3.2926                 3.2763                 1.3160
 Frc consts  --      0.5765                 0.8397                 0.4684
 IR Inten    --     10.1617                10.9731                 0.4654

                     13                     14                     15
                      A                      A                      A
 Frequencies --    786.0025               849.8062               853.2009
 Red. masses --      2.6513                 1.9348                 2.0055
 Frc consts  --      0.9651                 0.8232                 0.8602
 IR Inten    --      0.4508                 0.8182                 5.0313

                     16                     17                     18
                      A                      A                      A
 Frequencies --    864.4070               902.0572               916.0528
 Red. masses --      3.7008                 2.1530                 2.4072
 Frc consts  --      1.6292                 1.0322                 1.1902
 IR Inten    --     19.9020                 3.5004                16.9326

                     19                     20                     21
                      A                      A                      A
 Frequencies --    960.8718               983.1940              1001.1680
 Red. masses --      1.4449                 2.8354                 1.4697
 Frc consts  --      0.7860                 1.6149                 0.8680
 IR Inten    --     16.0266                 2.5594                28.2936

                     22                     23                     24
                      A                      A                      A
 Frequencies --   1016.0761              1023.8165              1100.3528
 Red. masses --      5.4196                 1.6239                 1.4972
 Frc consts  --      3.2967                 1.0029                 1.0681
 IR Inten    --     87.8625                 4.3921                 4.1905

                     25                     26                     27
                      A                      A                      A
 Frequencies --   1107.0636              1140.0621              1155.8102
 Red. masses --      2.1544                 2.3872                 1.7659
 Frc consts  --      1.5557                 1.8281                 1.3899
 IR Inten    --      2.3646                20.1646                18.7674

                     28                     29                     30
                      A                      A                      A
 Frequencies --   1170.2724              1200.9886              1213.2149
 Red. masses --      1.2760                 1.8511                 1.3941
 Frc consts  --      1.0296                 1.5731                 1.2090
 IR Inten    --      1.6994                42.9779                 0.7793

                     31                     32                     33
                      A                      A                      A
 Frequencies --   1227.8172              1257.9458              1259.3475
 Red. masses --      1.5273                 1.9533                 1.5887
 Frc consts  --      1.3566                 1.8211                 1.4845
 IR Inten    --      8.9565                20.9052                 5.6799

                     34                     35                     36
                      A                      A                      A
 Frequencies --   1298.6428              1349.4925              1379.4903
 Red. masses --      1.8925                 1.4661                 2.9983
 Frc consts  --      1.8805                 1.5731                 3.3617
 IR Inten    --     37.7109                18.6446               134.0822

                     37                     38                     39
                      A                      A                      A
 Frequencies --   1433.4769              1472.0741              1483.3977
 Red. masses --      1.5138                 1.1501                 1.1061
 Frc consts  --      1.8328                 1.4684                 1.4341
 IR Inten    --      9.0644                 3.0163                 3.9532

                     40                     41                     42
                      A                      A                      A
 Frequencies --   1509.4415              1527.8179              3026.7665
 Red. masses --      1.6455                 1.1099                 1.0554
 Frc consts  --      2.2090                 1.5264                 5.6968
 IR Inten    --     23.5114                 1.0609                87.1117

                     43                     44                     45
                      A                      A                      A
 Frequencies --   3034.5143              3069.5900              3077.6898
 Red. masses --      1.0637                 1.1112                 1.0594
 Frc consts  --      5.7710                 6.1687                 5.9124
 IR Inten    --     39.8704                28.9099                17.8916

                     46                     47                     48
                      A                      A                      A
 Frequencies --   3089.3347              3111.1156              3132.9421
 Red. masses --      1.0601                 1.1010                 1.1087
 Frc consts  --      5.9612                 6.2789                 6.4118
 IR Inten    --     25.0273                13.3417                17.6050

                     49                     50                     51
                      A                      A                      A
 Frequencies --   3190.6545              3199.9672              3743.0881
 Red. masses --      1.1050                 1.0973                 1.0647
 Frc consts  --      6.6277                 6.6201                 8.7890
 IR Inten    --      2.8895                18.1176                39.0791

 - Thermochemistry -
 -------------------
 Temperature   298.150 Kelvin.  Pressure   1.00000 Atm.
 Atom     1 has atomic number  8 and mass  15.99491

 Molecular mass:   126.06808 amu.
 Principal axes and moments of inertia in atomic units:
                           1         2         3
     Eigenvalues --   625.926851171.396901366.84457
           X            0.99982  -0.01532  -0.01154
           Y            0.01524   0.99986  -0.00647
           Z            0.01164   0.00629   0.99991
 This molecule is an asymmetric top.
 Rotational symmetry number  1.
 Warning -- assumption of classical behavior for rotation
           may cause significant error
 Rotational temperatures (Kelvin)      0.13838     0.07394     0.06337
 Rotational constants (GHZ):           2.88331     1.54067     1.32037
 Zero-point vibrational energy     418090.4 (Joules/Mol)
                                   99.92600 (Kcal/Mol)
 Warning -- explicit consideration of  10 degrees of freedom as
           vibrations may cause significant error
 Vibrational temperatures:    108.19   177.97   286.44   335.86   502.37
          (Kelvin)            579.38   623.00   673.24   739.80   784.32
                              948.92  1118.21  1130.88  1222.68  1227.56
                             1243.69  1297.86  1317.99  1382.48  1414.60
                             1440.46  1461.91  1473.04  1583.16  1592.82
                             1640.29  1662.95  1683.76  1727.95  1745.54
                             1766.55  1809.90  1811.92  1868.45  1941.62
                             1984.78  2062.45  2117.98  2134.28  2171.75
                             2198.19  4354.84  4365.98  4416.45  4428.10
                             4444.86  4476.20  4507.60  4590.63  4604.03
                             5385.46

 Zero-point correction=                           0.159242 (Hartree/Particle)
 Thermal correction to Energy=                    0.167242
 Thermal correction to Enthalpy=                  0.168187
 Thermal correction to Gibbs Free Energy=         0.126670
 Sum of electronic and zero-point Energies=           -422.977558
 Sum of electronic and thermal Energies=              -422.969558
 Sum of electronic and thermal Enthalpies=            -422.968613
 Sum of electronic and thermal Free Energies=         -423.010131

                     E (Thermal)             CV                S
                      KCal/Mol        Cal/Mol-Kelvin    Cal/Mol-Kelvin
 Total                  104.946             31.435             87.380
 Electronic               0.000              0.000              0.000
 Translational            0.889              2.981             40.409
 Rotational               0.889              2.981             28.396
 Vibrational            103.169             25.473             18.576
 Vibration     1          0.599              1.966              4.013
 Vibration     2          0.610              1.929              3.042
 Vibration     3          0.637              1.841              2.142
 Vibration     4          0.654              1.790              1.852
 Vibration     5          0.726              1.577              1.170
 Vibration     6          0.768              1.464              0.953
 Vibration     7          0.794              1.398              0.849
 Vibration     8          0.825              1.321              0.743
 Vibration     9          0.869              1.219              0.624
 Vibration    10          0.900              1.150              0.554

 Optimization completed.
    -- Stationary point found.
 Normal termination of Gaussian 09 at Mon Jan 27 18:37:17 2020.
