 Gaussian 09, Revision D.01,
 Gaussian 09:  ES64L-G09RevD.01 24-Apr-2013

 -----------------------------
 # b3lyp 6-31G(2df,p) opt Freq
 -----------------------------

 -----
 titel
 -----
 Symbolic Z-matrix:
 Charge =  0 Multiplicity = 1

 SCF Done:  E(RB3LYP) =  -423.164760989     A.U. after   14 cycles
 Optimization completed.
    -- Stationary point found.
 Normal termination of Gaussian 09 at Mon Jan 27 18:50:19 2020.

 ----------------------------------------------------------------------
 #N Geom=AllCheck Guess=TCheck SCRF=Check GenChk RB3LYP/6-31G(2df,p) Fr
 eq
 ----------------------------------------------------------------------

 Structure from the checkpoint file:  "/scratch/puck/g09_0a00b1f0-20ca-4ccc-9f6f-c6d94b9f5d0b/Gau-182995.chk"
 -----
 titel
 -----
 Charge =  0 Multiplicity = 1

                         Standard orientation:
 ---------------------------------------------------------------------
 Center     Atomic      Atomic             Coordinates (Angstroms)
 Number     Number       Type             X           Y           Z
 ---------------------------------------------------------------------
      1          6           0       -1.789354   -1.290211    0.635224
      2          6           0       -0.741634   -0.379381    0.030543
      3          8           0       -1.288146    0.488709   -0.992158
      4          6           0       -0.669691    1.652798   -0.398584
      5          6           0       -0.194490    0.843636    0.828581
      6          6           0        1.308061    0.634885    1.096140
      7          6           0        1.703550   -0.529443    0.203732
      8          8           0        1.409971   -0.300400   -1.176671
      9          6           0        0.510442   -1.123061   -0.428622
     10          1           0       -2.615727   -0.704773    1.046538
     11          1           0       -2.194639   -1.963358   -0.127937
     12          1           0       -1.359974   -1.901777    1.436785
     13          1           0        0.133580    2.051585   -1.026739
     14          1           0       -1.407433    2.438574   -0.198323
     15          1           0       -0.750414    1.080265    1.737258
     16          1           0        1.905823    1.527432    0.880426
     17          1           0        1.486011    0.371372    2.145128
     18          1           0        2.610172   -1.098178    0.399745
     19          1           0        0.456696   -2.162947   -0.744332
 ---------------------------------------------------------------------

 SCF Done:  E(RB3LYP) =  -423.164760989     A.U. after    1 cycles

 The electronic state is 1-A.
 Alpha  occ. eigenvalues --  -19.15135 -19.12408 -10.23886 -10.23810 -10.23205
 Alpha  occ. eigenvalues --  -10.22212 -10.19291 -10.19190 -10.18105  -1.07758
 Alpha  occ. eigenvalues --   -1.02710  -0.80153  -0.75805  -0.69558  -0.66783
 Alpha  occ. eigenvalues --   -0.63150  -0.58302  -0.54396  -0.51315  -0.47119
 Alpha  occ. eigenvalues --   -0.46300  -0.45087  -0.43169  -0.41828  -0.40686
 Alpha  occ. eigenvalues --   -0.39422  -0.37537  -0.36424  -0.35745  -0.31279
 Alpha  occ. eigenvalues --   -0.30430  -0.28824  -0.27011  -0.23715
 Alpha virt. eigenvalues --    0.07283   0.08775   0.09959   0.11010   0.12759
 Alpha virt. eigenvalues --    0.13195   0.14128   0.14330   0.15123   0.16471
 Alpha virt. eigenvalues --    0.17270   0.18322   0.19552   0.20263   0.22011

 Mulliken charges:
               1
     1  C   -0.473432
     2  C    0.430722
     3  O   -0.323693
     4  C   -0.080525
     5  C   -0.125448
     6  C   -0.273175
     7  C    0.045240
     8  O   -0.247816
     9  C   -0.017417
    10  H    0.124586
    11  H    0.130795
    12  H    0.117514
    13  H    0.111025
    14  H    0.095059
    15  H    0.080103
    16  H    0.115509
    17  H    0.104677
    18  H    0.094579
    19  H    0.091698
 Sum of Mulliken charges =   0.00000

 Dipole moment (field-independent basis, Debye):
    X=              0.4701    Y=             -0.4690    Z=              2.9321  Tot=              3.0064
 Quadrupole moment (field-independent basis, Debye-Ang):
   XX=            -53.7569   YY=            -48.7800   ZZ=            -56.2267
   XY=              0.1519   XZ=              0.4944   YZ=              0.6881

  Exact polarizability:  77.935   1.042  76.864   1.945   0.681  65.376
 Approx polarizability: 108.421   3.305 108.660   3.912   0.006 104.182

                      1                      2                      3
                      A                      A                      A
 Frequencies --    151.3431               210.9437               217.4229
 Red. masses --      2.6985                 1.2875                 2.7593
 Frc consts  --      0.0364                 0.0338                 0.0769
 IR Inten    --      2.1406                 0.3756                 0.7423

                      4                      5                      6
                      A                      A                      A
 Frequencies --    263.0901               323.9159               369.1148
 Red. masses --      2.1669                 3.2535                 3.4373
 Frc consts  --      0.0884                 0.2011                 0.2759
 IR Inten    --      1.0001                 2.8290                 2.1121

                      7                      8                      9
                      A                      A                      A
 Frequencies --    392.8625               529.1047               582.3448
 Red. masses --      1.9650                 5.1838                 3.9170
 Frc consts  --      0.1787                 0.8550                 0.7826
 IR Inten    --      0.8430                16.3554                 1.7552

                     10                     11                     12
                      A                      A                      A
 Frequencies --    671.5484               706.1689               789.6915
 Red. masses --      4.6612                 4.5545                 2.9435
 Frc consts  --      1.2385                 1.3382                 1.0815
 IR Inten    --      2.5253                 1.6280                 1.9099

                     13                     14                     15
                      A                      A                      A
 Frequencies --    837.0062               862.7170               885.8623
 Red. masses --      2.7783                 2.2017                 1.6924
 Frc consts  --      1.1468                 0.9655                 0.7825
 IR Inten    --      4.5063                16.5160                12.7229

                     16                     17                     18
                      A                      A                      A
 Frequencies --    892.2936               901.5378               953.5426
 Red. masses --      2.8794                 2.5718                 1.5757
 Frc consts  --      1.3507                 1.2316                 0.8441
 IR Inten    --     13.4600                10.1687                 1.5055

                     19                     20                     21
                      A                      A                      A
 Frequencies --    973.0154              1010.7706              1037.4078
 Red. masses --      2.8121                 5.1640                 1.6186
 Frc consts  --      1.5686                 3.1084                 1.0263
 IR Inten    --      2.5319                87.0900                 4.4815

                     22                     23                     24
                      A                      A                      A
 Frequencies --   1077.0793              1084.7812              1125.2222
 Red. masses --      1.7082                 1.8193                 1.7619
 Frc consts  --      1.1676                 1.2613                 1.3143
 IR Inten    --      2.2912                 2.9415                 0.8521

                     25                     26                     27
                      A                      A                      A
 Frequencies --   1135.8380              1157.4067              1168.9897
 Red. masses --      2.4206                 1.7073                 1.2865
 Frc consts  --      1.8400                 1.3475                 1.0358
 IR Inten    --     13.6869                12.4436                 6.4405

                     28                     29                     30
                      A                      A                      A
 Frequencies --   1214.0164              1237.4803              1249.1455
 Red. masses --      1.3120                 2.5079                 1.7065
 Frc consts  --      1.1393                 2.2628                 1.5688
 IR Inten    --      0.6363                 8.4989                 9.4260

                     31                     32                     33
                      A                      A                      A
 Frequencies --   1262.5321              1308.4166              1330.8461
 Red. masses --      1.5247                 1.8026                 1.4079
 Frc consts  --      1.4320                 1.8182                 1.4692
 IR Inten    --      9.5736                 2.9619                 1.9087

                     34                     35                     36
                      A                      A                      A
 Frequencies --   1347.6631              1380.3895              1402.8265
 Red. masses --      1.4326                 1.6605                 1.3215
 Frc consts  --      1.5330                 1.8642                 1.5323
 IR Inten    --      0.4155                 2.5326                 9.0860

                     37                     38                     39
                      A                      A                      A
 Frequencies --   1427.4021              1479.2728              1481.1051
 Red. masses --      3.0912                 1.0885                 1.0609
 Frc consts  --      3.7108                 1.4034                 1.3711
 IR Inten    --     11.1896                 3.8407                 1.4978

                     40                     41                     42
                      A                      A                      A
 Frequencies --   1491.9745              1516.7613              3024.6337
 Red. masses --      1.0556                 1.1093                 1.0572
 Frc consts  --      1.3845                 1.5036                 5.6987
 IR Inten    --      2.4255                 0.1460                79.0003

                     43                     44                     45
                      A                      A                      A
 Frequencies --   3031.9214              3038.3640              3075.1055
 Red. masses --      1.0360                 1.0602                 1.1058
 Frc consts  --      5.6113                 5.7667                 6.1610
 IR Inten    --     11.2429                25.6769                15.9620

                     46                     47                     48
                      A                      A                      A
 Frequencies --   3077.0370              3097.8956              3099.8067
 Red. masses --      1.1022                 1.0919                 1.0999
 Frc consts  --      6.1484                 6.1742                 6.2267
 IR Inten    --     13.7057                35.3529                22.9802

                     49                     50                     51
                      A                      A                      A
 Frequencies --   3118.9263              3129.6597              3142.5486
 Red. masses --      1.1011                 1.0867                 1.0953
 Frc consts  --      6.3107                 6.2712                 6.3729
 IR Inten    --     18.4940                20.3756                40.4056

 - Thermochemistry -
 -------------------
 Temperature   298.150 Kelvin.  Pressure   1.00000 Atm.
 Atom     1 has atomic number  6 and mass  12.00000

 Molecular mass:   126.06808 amu.
 Principal axes and moments of inertia in atomic units:
                           1         2         3
     Eigenvalues --   723.124761000.970841129.56849
           X            0.99844   0.05589  -0.00138
           Y           -0.05591   0.99828  -0.01758
           Z            0.00039   0.01763   0.99984
 This molecule is an asymmetric top.
 Rotational symmetry number  1.
 Warning -- assumption of classical behavior for rotation
           may cause significant error
 Rotational temperatures (Kelvin)      0.11978     0.08653     0.07668
 Rotational constants (GHZ):           2.49575     1.80299     1.59773
 Zero-point vibrational energy     420348.3 (Joules/Mol)
                                  100.46566 (Kcal/Mol)
 Warning -- explicit consideration of   9 degrees of freedom as
           vibrations may cause significant error
 Vibrational temperatures:    217.75   303.50   312.82   378.53   466.04
          (Kelvin)            531.07   565.24   761.26   837.86   966.21
                             1016.02  1136.19  1204.26  1241.26  1274.56
                             1283.81  1297.11  1371.93  1399.95  1454.27
                             1492.60  1549.67  1560.76  1618.94  1634.22
                             1665.25  1681.91  1746.70  1780.46  1797.24
                             1816.50  1882.52  1914.79  1938.98  1986.07
                             2018.35  2053.71  2128.34  2130.98  2146.62
                             2182.28  4351.77  4362.25  4371.52  4424.39
                             4427.16  4457.18  4459.92  4487.43  4502.88
                             4521.42

 Zero-point correction=                           0.160102 (Hartree/Particle)
 Thermal correction to Energy=                    0.167575
 Thermal correction to Enthalpy=                  0.168519
 Thermal correction to Gibbs Free Energy=         0.128599
 Sum of electronic and zero-point Energies=           -423.004659
 Sum of electronic and thermal Energies=              -422.997186
 Sum of electronic and thermal Enthalpies=            -422.996242
 Sum of electronic and thermal Free Energies=         -423.036162

                     E (Thermal)             CV                S
                      KCal/Mol        Cal/Mol-Kelvin    Cal/Mol-Kelvin
 Total                  105.155             30.042             84.019
 Electronic               0.000              0.000              0.000
 Translational            0.889              2.981             40.409
 Rotational               0.889              2.981             28.194
 Vibrational            103.377             24.081             15.417
 Vibration     1          0.619              1.901              2.655
 Vibration     2          0.643              1.824              2.035
 Vibration     3          0.646              1.815              1.980
 Vibration     4          0.670              1.740              1.641
 Vibration     5          0.708              1.628              1.290
 Vibration     6          0.741              1.536              1.083
 Vibration     7          0.760              1.485              0.989
 Vibration     8          0.884              1.186              0.589
 Vibration     9          0.939              1.070              0.481

 Normal termination of Gaussian 09 at Mon Jan 27 19:33:49 2020.
