 Gaussian 09, Revision D.01,
 Gaussian 09:  ES64L-G09RevD.01 24-Apr-2013

 -----------------------------
 # b3lyp 6-31G(2df,p) opt Freq
 -----------------------------

 -----
 titel
 -----
 Symbolic Z-matrix:
 Charge =  0 Multiplicity = 1

 SCF Done:  E(RB3LYP) =  -423.155870946     A.U. after   14 cycles
 Optimization completed.
    -- Stationary point found.
 Normal termination of Gaussian 09 at Tue Jan 28 08:13:00 2020.

 ----------------------------------------------------------------------
 #N Geom=AllCheck Guess=TCheck SCRF=Check GenChk RB3LYP/6-31G(2df,p) Fr
 eq
 ----------------------------------------------------------------------

 Structure from the checkpoint file:  "/scratch/puck/g09_d5a0f51e-21a9-459a-a869-4f36fc293a83/Gau-14219.chk"
 -----
 titel
 -----
 Charge =  0 Multiplicity = 1

                         Standard orientation:
 ---------------------------------------------------------------------
 Center     Atomic      Atomic             Coordinates (Angstroms)
 Number     Number       Type             X           Y           Z
 ---------------------------------------------------------------------
      1          6           0       -2.573952   -1.327103   -0.184948
      2          6           0       -1.451430   -0.435494    0.318227
      3          6           0       -0.052394   -1.002348    0.043366
      4          6           0        1.008064    0.054882    0.409436
      5          8           0        0.708199    1.283441   -0.255083
      6          6           0       -0.585514    1.725236    0.071043
      7          8           0       -1.586524    0.831873   -0.326901
      8          6           0        2.358736   -0.360766    0.052359
      9          6           0        3.460781   -0.745281   -0.229987
     10          1           0       -2.537005   -2.304099    0.306196
     11          1           0       -3.544579   -0.868259    0.021314
     12          1           0       -2.486506   -1.475868   -1.265324
     13          1           0       -1.560905   -0.284655    1.407822
     14          1           0        0.116315   -1.916592    0.621355
     15          1           0        0.044872   -1.242703   -1.019943
     16          1           0        0.967463    0.226992    1.500600
     17          1           0       -0.652383    1.903324    1.162636
     18          1           0       -0.745842    2.656965   -0.474293
     19          1           0        4.439425   -1.072378   -0.481466
 ---------------------------------------------------------------------

 SCF Done:  E(RB3LYP) =  -423.155870946     A.U. after    1 cycles

 The electronic state is 1-A.
 Alpha  occ. eigenvalues --  -19.14939 -19.14573 -10.27443 -10.26247 -10.24154
 Alpha  occ. eigenvalues --  -10.19087 -10.18493 -10.18036 -10.18014  -1.07737
 Alpha  occ. eigenvalues --   -1.01085  -0.81711  -0.76291  -0.72000  -0.68116
 Alpha  occ. eigenvalues --   -0.64455  -0.58450  -0.54063  -0.50890  -0.50206
 Alpha  occ. eigenvalues --   -0.48492  -0.46427  -0.45981  -0.43243  -0.39662
 Alpha  occ. eigenvalues --   -0.38761  -0.37763  -0.35981  -0.32905  -0.32712
 Alpha  occ. eigenvalues --   -0.28370  -0.27871  -0.27204  -0.25798
 Alpha virt. eigenvalues --    0.03367   0.05011   0.09230   0.10592   0.12134
 Alpha virt. eigenvalues --    0.13190   0.13502   0.13639   0.15874   0.16237
 Alpha virt. eigenvalues --    0.17283   0.17847   0.18795   0.19950   0.23440

 Mulliken charges:
               1
     1  C   -0.404455
     2  C    0.120696
     3  C   -0.205746
     4  C   -0.086808
     5  O   -0.246181
     6  C    0.020493
     7  O   -0.246720
     8  C    0.303607
     9  C   -0.410079
    10  H    0.116596
    11  H    0.127002
    12  H    0.129352
    13  H    0.064982
    14  H    0.108608
    15  H    0.120714
    16  H    0.093962
    17  H    0.074388
    18  H    0.121353
    19  H    0.198234
 Sum of Mulliken charges =   0.00000

 Dipole moment (field-independent basis, Debye):
    X=             -0.3532    Y=             -1.2363    Z=              1.3071  Tot=              1.8335
 Quadrupole moment (field-independent basis, Debye-Ang):
   XX=            -51.2546   YY=            -51.6168   ZZ=            -53.2914
   XY=             -1.6197   XZ=             -1.6314   YZ=              1.2734

  Exact polarizability: 101.096  -5.937  73.542  -4.214   1.366  60.338
 Approx polarizability: 135.833 -13.698 102.982  -9.105   0.763  95.740

                      1                      2                      3
                      A                      A                      A
 Frequencies --    106.9676               138.4800               161.2305
 Red. masses --      3.3919                 3.8203                 3.5832
 Frc consts  --      0.0229                 0.0432                 0.0549
 IR Inten    --      0.1609                 0.8318                 1.3983

                      4                      5                      6
                      A                      A                      A
 Frequencies --    224.2817               275.6100               303.9859
 Red. masses --      1.0781                 2.9169                 2.7567
 Frc consts  --      0.0320                 0.1305                 0.1501
 IR Inten    --      0.3482                 4.2651                 0.4450

                      7                      8                      9
                      A                      A                      A
 Frequencies --    359.6777               410.6143               449.2352
 Red. masses --      2.3621                 7.4789                 4.3343
 Frc consts  --      0.1800                 0.7429                 0.5154
 IR Inten    --      2.3737                 2.2710                 1.2302

                     10                     11                     12
                      A                      A                      A
 Frequencies --    486.0050               524.1339               562.7325
 Red. masses --      2.5305                 3.9132                 3.6182
 Frc consts  --      0.3522                 0.6334                 0.6751
 IR Inten    --      2.6853                 1.8804                 4.2155

                     13                     14                     15
                      A                      A                      A
 Frequencies --    623.5464               675.5165               680.7563
 Red. masses --      1.2132                 1.3084                 3.8162
 Frc consts  --      0.2779                 0.3518                 1.0420
 IR Inten    --     44.2944                32.3342                 7.5127

                     16                     17                     18
                      A                      A                      A
 Frequencies --    828.0969               864.5028               920.4114
 Red. masses --      2.8028                 3.0137                 1.8613
 Frc consts  --      1.1324                 1.3270                 0.9290
 IR Inten    --     11.1047                 9.0679                 3.6021

                     19                     20                     21
                      A                      A                      A
 Frequencies --    947.9079              1009.5604              1040.3158
 Red. masses --      1.6171                 3.5427                 2.8202
 Frc consts  --      0.8561                 2.1274                 1.7983
 IR Inten    --      2.2259                 4.3640                 4.8731

                     22                     23                     24
                      A                      A                      A
 Frequencies --   1056.0681              1082.0709              1126.3996
 Red. masses --      6.9934                 3.4414                 2.2976
 Frc consts  --      4.5954                 2.3741                 1.7175
 IR Inten    --    199.6814                48.8831                17.4528

                     25                     26                     27
                      A                      A                      A
 Frequencies --   1142.0709              1159.1186              1217.8279
 Red. masses --      1.8416                 3.0613                 2.3059
 Frc consts  --      1.4152                 2.4233                 2.0149
 IR Inten    --     19.9731                99.6592                96.1575

                     28                     29                     30
                      A                      A                      A
 Frequencies --   1234.0707              1275.5790              1304.2132
 Red. masses --      1.3413                 1.2622                 1.1292
 Frc consts  --      1.2035                 1.2101                 1.1317
 IR Inten    --     15.5197                 1.0379                 3.2026

                     31                     32                     33
                      A                      A                      A
 Frequencies --   1356.9397              1375.6525              1380.6054
 Red. masses --      1.2055                 1.3300                 1.2597
 Frc consts  --      1.3078                 1.4829                 1.4146
 IR Inten    --      6.8277                 9.2473                20.0231

                     34                     35                     36
                      A                      A                      A
 Frequencies --   1393.3864              1412.9317              1443.7579
 Red. masses --      1.5512                 1.3832                 1.2120
 Frc consts  --      1.7744                 1.6270                 1.4885
 IR Inten    --     33.9223                11.8608                12.4475

                     37                     38                     39
                      A                      A                      A
 Frequencies --   1465.9358              1483.2317              1498.8547
 Red. masses --      1.0979                 1.0483                 1.0583
 Frc consts  --      1.3900                 1.3588                 1.4007
 IR Inten    --      0.8771                 3.8281                 0.9454

                     40                     41                     42
                      A                      A                      A
 Frequencies --   1505.3886              2246.7965              2908.7411
 Red. masses --      1.1022                 5.9061                 1.0709
 Frc consts  --      1.4717                17.5661                 5.3384
 IR Inten    --      4.0144                 1.4839                62.4716

                     43                     44                     45
                      A                      A                      A
 Frequencies --   2931.7011              2941.2499              3043.1099
 Red. masses --      1.0807                 1.0802                 1.0361
 Frc consts  --      5.4727                 5.5057                 5.6533
 IR Inten    --      0.9154                98.8434                11.6663

                     46                     47                     48
                      A                      A                      A
 Frequencies --   3052.0133              3103.9831              3117.7574
 Red. masses --      1.0571                 1.1054                 1.0928
 Frc consts  --      5.8016                 6.2747                 6.2585
 IR Inten    --     17.7790                11.3084                35.2886

                     49                     50                     51
                      A                      A                      A
 Frequencies --   3119.4930              3123.1250              3504.3728
 Red. masses --      1.1018                 1.1022                 1.1636
 Frc consts  --      6.3174                 6.3341                 8.4194
 IR Inten    --     24.4751                19.1914                66.0905

 - Thermochemistry -
 -------------------
 Temperature   298.150 Kelvin.  Pressure   1.00000 Atm.
 Atom     1 has atomic number  6 and mass  12.00000

 Molecular mass:   126.06808 amu.
 Principal axes and moments of inertia in atomic units:
                           1         2         3
     Eigenvalues --   566.335181591.459532041.40955
           X            0.99983   0.01803  -0.00227
           Y           -0.01798   0.99964   0.02009
           Z            0.00263  -0.02005   0.99980
 This molecule is an asymmetric top.
 Rotational symmetry number  1.
 Warning -- assumption of classical behavior for rotation
           may cause significant error
 Rotational temperatures (Kelvin)      0.15294     0.05442     0.04243
 Rotational constants (GHZ):           3.18670     1.13402     0.88407
 Zero-point vibrational energy     416300.5 (Joules/Mol)
                                   99.49822 (Kcal/Mol)
 Warning -- explicit consideration of  12 degrees of freedom as
           vibrations may cause significant error
 Vibrational temperatures:    153.90   199.24   231.97   322.69   396.54
          (Kelvin)            437.37   517.50   590.78   646.35   699.25
                              754.11   809.65   897.14   971.92   979.46
                             1191.45  1243.83  1324.27  1363.83  1452.53
                             1496.78  1519.44  1556.86  1620.64  1643.18
                             1667.71  1752.18  1775.55  1835.27  1876.47
                             1952.33  1979.25  1986.38  2004.77  2032.89
                             2077.24  2109.15  2134.04  2156.51  2165.92
                             3232.64  4185.02  4218.06  4231.80  4378.35
                             4391.16  4465.93  4485.75  4488.25  4493.47
                             5042.00

 Zero-point correction=                           0.158561 (Hartree/Particle)
 Thermal correction to Energy=                    0.167256
 Thermal correction to Enthalpy=                  0.168200
 Thermal correction to Gibbs Free Energy=         0.125410
 Sum of electronic and zero-point Energies=           -422.997310
 Sum of electronic and thermal Energies=              -422.988615
 Sum of electronic and thermal Enthalpies=            -422.987671
 Sum of electronic and thermal Free Energies=         -423.030461

                     E (Thermal)             CV                S
                      KCal/Mol        Cal/Mol-Kelvin    Cal/Mol-Kelvin
 Total                  104.954             33.353             90.059
 Electronic               0.000              0.000              0.000
 Translational            0.889              2.981             40.409
 Rotational               0.889              2.981             28.999
 Vibrational            103.177             27.392             20.651
 Vibration     1          0.606              1.944              3.323
 Vibration     2          0.614              1.915              2.825
 Vibration     3          0.622              1.890              2.535
 Vibration     4          0.649              1.804              1.924
 Vibration     5          0.677              1.718              1.561
 Vibration     6          0.695              1.666              1.395
 Vibration     7          0.734              1.555              1.123
 Vibration     8          0.775              1.447              0.924
 Vibration     9          0.808              1.363              0.798
 Vibration    10          0.842              1.281              0.694
 Vibration    11          0.879              1.197              0.600
 Vibration    12          0.918              1.112              0.518

 Optimization completed.
    -- Stationary point found.
 Normal termination of Gaussian 09 at Tue Jan 28 08:53:23 2020.
