 Gaussian 09, Revision D.01,
 Gaussian 09:  ES64L-G09RevD.01 24-Apr-2013

 -----------------------------
 # b3lyp 6-31G(2df,p) opt Freq
 -----------------------------

 -----
 titel
 -----
 Symbolic Z-matrix:
 Charge =  0 Multiplicity = 1

 SCF Done:  E(RB3LYP) =  -423.093021441     A.U. after   13 cycles
 Optimization completed.
    -- Stationary point found.
 Normal termination of Gaussian 09 at Mon Jan 27 16:00:48 2020.

 ----------------------------------------------------------------------
 #N Geom=AllCheck Guess=TCheck SCRF=Check GenChk RB3LYP/6-31G(2df,p) Fr
 eq
 ----------------------------------------------------------------------

 Structure from the checkpoint file:  "/scratch/puck/g09_6b54f1e4-aba1-4a49-9bce-44c33ba608ea/Gau-143497.chk"
 -----
 titel
 -----
 Charge =  0 Multiplicity = 1

                         Standard orientation:
 ---------------------------------------------------------------------
 Center     Atomic      Atomic             Coordinates (Angstroms)
 Number     Number       Type             X           Y           Z
 ---------------------------------------------------------------------
      1          6           0        0.839979    1.868488   -0.567176
      2          6           0        0.843990    0.476017    0.061350
      3          8           0        2.176618    0.012282    0.278804
      4          6           0       -0.076555   -0.090706    1.141339
      5          6           0       -1.603995    0.047286    0.888281
      6          6           0       -2.021990    0.753927   -0.377041
      7          6           0       -1.468381   -0.642295   -0.460393
      8          6           0        0.050105   -0.774943   -0.230086
      9          8           0        0.646731   -1.943675   -0.637066
     10          1           0        1.859856    2.262738   -0.536980
     11          1           0        0.532034    1.847552   -1.616732
     12          1           0        0.193309    2.564617   -0.028094
     13          1           0        2.501536    0.397895    1.099610
     14          1           0        0.326425   -0.367286    2.109667
     15          1           0       -2.318286   -0.175556    1.670440
     16          1           0       -3.100582    0.793901   -0.508910
     17          1           0       -1.513743    1.617998   -0.779339
     18          1           0       -2.033191   -1.479180   -0.849127
     19          1           0        1.586939   -1.838178   -0.432084
 ---------------------------------------------------------------------

 SCF Done:  E(RB3LYP) =  -423.093021441     A.U. after    1 cycles

 The electronic state is 1-A.
 Alpha  occ. eigenvalues --  -19.15360 -19.13710 -10.24383 -10.23839 -10.19425
 Alpha  occ. eigenvalues --  -10.18878 -10.18853 -10.18218 -10.17794  -1.04850
 Alpha  occ. eigenvalues --   -1.01475  -0.90290  -0.79043  -0.72047  -0.63481
 Alpha  occ. eigenvalues --   -0.62468  -0.56389  -0.53725  -0.52441  -0.48313
 Alpha  occ. eigenvalues --   -0.47495  -0.45635  -0.42388  -0.41705  -0.39158
 Alpha  occ. eigenvalues --   -0.38444  -0.37215  -0.35520  -0.33954  -0.30907
 Alpha  occ. eigenvalues --   -0.29787  -0.28580  -0.25859  -0.19265
 Alpha virt. eigenvalues --    0.06244   0.08151   0.09401   0.11349   0.13011
 Alpha virt. eigenvalues --    0.13598   0.14209   0.15241   0.16882   0.16990
 Alpha virt. eigenvalues --    0.17833   0.20990   0.21077   0.21888   0.22982

 Mulliken charges:
               1
     1  C   -0.486981
     2  C    0.286484
     3  O   -0.475650
     4  C   -0.239565
     5  C   -0.060266
     6  C   -0.317429
     7  C   -0.110274
     8  C    0.406046
     9  O   -0.467212
    10  H    0.115089
    11  H    0.136131
    12  H    0.131244
    13  H    0.287663
    14  H    0.081244
    15  H    0.093602
    16  H    0.112342
    17  H    0.114518
    18  H    0.100053
    19  H    0.292961
 Sum of Mulliken charges =   0.00000

 Dipole moment (field-independent basis, Debye):
    X=              0.2303    Y=              1.6184    Z=              1.4811  Tot=              2.2059
 Quadrupole moment (field-independent basis, Debye-Ang):
   XX=            -48.3990   YY=            -55.6292   ZZ=            -52.0448
   XY=              1.1142   XZ=              3.0994   YZ=             -1.2403

  Exact polarizability:  84.503   0.367  72.637   1.840  -0.436  66.925
 Approx polarizability: 115.359  -1.204 108.054   1.599   5.355 109.056

                      1                      2                      3
                      A                      A                      A
 Frequencies --     76.0528               196.6046               229.2354
 Red. masses --      1.3898                 2.0594                 1.6746
 Frc consts  --      0.0047                 0.0469                 0.0518
 IR Inten    --      0.1589                 0.2928                21.9131

                      4                      5                      6
                      A                      A                      A
 Frequencies --    262.5523               271.1069               302.4021
 Red. masses --      1.6575                 2.9909                 4.2369
 Frc consts  --      0.0673                 0.1295                 0.2283
 IR Inten    --     39.5527                 6.8577                 3.3314

                      7                      8                      9
                      A                      A                      A
 Frequencies --    359.2854               399.7304               447.4867
 Red. masses --      2.9465                 3.8571                 3.1146
 Frc consts  --      0.2241                 0.3631                 0.3675
 IR Inten    --      2.5564                15.8175                 3.9584

                     10                     11                     12
                      A                      A                      A
 Frequencies --    477.2108               516.0310               593.3819
 Red. masses --      1.3795                 2.0471                 3.3593
 Frc consts  --      0.1851                 0.3212                 0.6969
 IR Inten    --     57.2504                54.2387                 3.9691

                     13                     14                     15
                      A                      A                      A
 Frequencies --    637.7437               690.6456               721.1313
 Red. masses --      4.1628                 2.6028                 4.7899
 Frc consts  --      0.9975                 0.7315                 1.4676
 IR Inten    --      3.4488                 7.5856                10.3465

                     16                     17                     18
                      A                      A                      A
 Frequencies --    761.9308               857.1377               880.3767
 Red. masses --      1.5111                 2.3828                 1.6752
 Frc consts  --      0.5169                 1.0314                 0.7650
 IR Inten    --      3.6741                 5.7420                 4.2033

                     19                     20                     21
                      A                      A                      A
 Frequencies --    894.8652               917.8160               939.1162
 Red. masses --      1.6311                 5.1183                 2.3550
 Frc consts  --      0.7696                 2.5403                 1.2237
 IR Inten    --      7.1747                23.7888                 8.2912

                     22                     23                     24
                      A                      A                      A
 Frequencies --    970.8391              1005.1181              1022.2865
 Red. masses --      1.6050                 2.1995                 1.5056
 Frc consts  --      0.8913                 1.3092                 0.9271
 IR Inten    --      9.5849                 5.7206                 6.9172

                     25                     26                     27
                      A                      A                      A
 Frequencies --   1061.3564              1064.7188              1087.1812
 Red. masses --      1.3608                 1.3600                 1.5047
 Frc consts  --      0.9032                 0.9084                 1.0479
 IR Inten    --      9.9994                 3.2941                32.3943

                     28                     29                     30
                      A                      A                      A
 Frequencies --   1095.9328              1156.6072              1182.4986
 Red. masses --      1.4977                 2.3373                 1.9247
 Frc consts  --      1.0599                 1.8422                 1.5856
 IR Inten    --      5.7500                43.5895                31.6908

                     31                     32                     33
                      A                      A                      A
 Frequencies --   1192.4134              1235.8981              1278.2192
 Red. masses --      2.2348                 2.0227                 1.6141
 Frc consts  --      1.8721                 1.8203                 1.5537
 IR Inten    --     81.1222                26.1519                43.8072

                     34                     35                     36
                      A                      A                      A
 Frequencies --   1292.6060              1337.2106              1401.9582
 Red. masses --      1.8263                 2.1914                 1.2663
 Frc consts  --      1.7979                 2.3087                 1.4664
 IR Inten    --     79.2961                 4.9740                 1.9753

                     37                     38                     39
                      A                      A                      A
 Frequencies --   1420.9621              1445.3296              1490.8917
 Red. masses --      1.8735                 3.6439                 1.1772
 Frc consts  --      2.2288                 4.4849                 1.5416
 IR Inten    --     30.8859                71.3775                11.8057

                     40                     41                     42
                      A                      A                      A
 Frequencies --   1497.3248              1511.6196              3040.9033
 Red. masses --      1.0529                 1.1160                 1.0355
 Frc consts  --      1.3909                 1.5025                 5.6415
 IR Inten    --      3.0470                 1.3365                19.2658

                     43                     44                     45
                      A                      A                      A
 Frequencies --   3107.3147              3121.4984              3133.3269
 Red. masses --      1.1012                 1.1016                 1.0633
 Frc consts  --      6.2642                 6.3239                 6.1503
 IR Inten    --     15.8246                12.5324                22.9642

                     46                     47                     48
                      A                      A                      A
 Frequencies --   3165.3348              3190.4003              3204.7976
 Red. masses --      1.0911                 1.0905                 1.0956
 Frc consts  --      6.4410                 6.5399                 6.6300
 IR Inten    --     14.5004                16.5770                 8.7877

                     49                     50                     51
                      A                      A                      A
 Frequencies --   3242.8683              3745.3636              3799.4746
 Red. masses --      1.1045                 1.0638                 1.0666
 Frc consts  --      6.8437                 8.7921                 9.0719
 IR Inten    --      8.9505                56.3947                22.8481

 - Thermochemistry -
 -------------------
 Temperature   298.150 Kelvin.  Pressure   1.00000 Atm.
 Atom     1 has atomic number  6 and mass  12.00000

 Molecular mass:   126.06808 amu.
 Principal axes and moments of inertia in atomic units:
                           1         2         3
     Eigenvalues --   725.412151051.304611386.53237
           X            0.99970   0.02312   0.00751
           Y           -0.02273   0.99861  -0.04751
           Z           -0.00860   0.04732   0.99884
 This molecule is an asymmetric top.
 Rotational symmetry number  1.
 Warning -- assumption of classical behavior for rotation
           may cause significant error
 Rotational temperatures (Kelvin)      0.11940     0.08239     0.06247
 Rotational constants (GHZ):           2.48788     1.71667     1.30162
 Zero-point vibrational energy     412317.5 (Joules/Mol)
                                   98.54624 (Kcal/Mol)
 Warning -- explicit consideration of  12 degrees of freedom as
           vibrations may cause significant error
 Vibrational temperatures:    109.42   282.87   329.82   377.75   390.06
          (Kelvin)            435.09   516.93   575.12   643.83   686.60
                              742.45   853.74   917.57   993.68  1037.55
                             1096.25  1233.23  1266.66  1287.51  1320.53
                             1351.18  1396.82  1446.14  1470.84  1527.05
                             1531.89  1564.21  1576.80  1664.10  1701.35
                             1715.61  1778.18  1839.07  1859.77  1923.95
                             2017.10  2044.44  2079.50  2145.06  2154.31
                             2174.88  4375.18  4470.73  4491.13  4508.15
                             4554.21  4590.27  4610.98  4665.76  5388.74
                             5466.59

 Zero-point correction=                           0.157043 (Hartree/Particle)
 Thermal correction to Energy=                    0.165712
 Thermal correction to Enthalpy=                  0.166656
 Thermal correction to Gibbs Free Energy=         0.124342
 Sum of electronic and zero-point Energies=           -422.935978
 Sum of electronic and thermal Energies=              -422.927310
 Sum of electronic and thermal Enthalpies=            -422.926366
 Sum of electronic and thermal Free Energies=         -422.968680

                     E (Thermal)             CV                S
                      KCal/Mol        Cal/Mol-Kelvin    Cal/Mol-Kelvin
 Total                  103.986             34.626             89.057
 Electronic               0.000              0.000              0.000
 Translational            0.889              2.981             40.409
 Rotational               0.889              2.981             28.449
 Vibrational            102.208             28.665             20.200
 Vibration     1          0.599              1.965              3.990
 Vibration     2          0.636              1.845              2.165
 Vibration     3          0.652              1.796              1.885
 Vibration     4          0.670              1.741              1.645
 Vibration     5          0.675              1.726              1.589
 Vibration     6          0.694              1.669              1.404
 Vibration     7          0.734              1.556              1.125
 Vibration     8          0.766              1.471              0.964
 Vibration     9          0.807              1.366              0.803
 Vibration    10          0.834              1.301              0.718
 Vibration    11          0.871              1.214              0.619
 Vibration    12          0.951              1.046              0.461

 Normal termination of Gaussian 09 at Mon Jan 27 17:17:13 2020.
 Normal termination of Gaussian 09 at Mon Jan 27 15:54:11 2020.
