 Gaussian 09, Revision D.01,
 Gaussian 09:  ES64L-G09RevD.01 24-Apr-2013

 -----------------------------
 # b3lyp 6-31G(2df,p) opt Freq
 -----------------------------

 -----
 titel
 -----
 Symbolic Z-matrix:
 Charge =  0 Multiplicity = 1

 SCF Done:  E(RB3LYP) =  -423.213953223     A.U. after   14 cycles
 Optimization completed.
    -- Stationary point found.
 Normal termination of Gaussian 09 at Mon Jan 27 17:53:36 2020.

 ----------------------------------------------------------------------
 #N Geom=AllCheck Guess=TCheck SCRF=Check GenChk RB3LYP/6-31G(2df,p) Fr
 eq
 ----------------------------------------------------------------------

 Structure from the checkpoint file:  "/scratch/puck/g09_1f1ef681-f4f4-41f5-8953-ff5e469b9ab6/Gau-87871.chk"
 -----
 titel
 -----
 Charge =  0 Multiplicity = 1

                         Standard orientation:
 ---------------------------------------------------------------------
 Center     Atomic      Atomic             Coordinates (Angstroms)
 Number     Number       Type             X           Y           Z
 ---------------------------------------------------------------------
      1          6           0       -2.411042   -0.999243   -0.351793
      2          6           0       -1.109586   -0.314308   -0.001969
      3          6           0        0.089749   -1.236698    0.161048
      4          6           0        1.469022   -0.585125    0.050666
      5          8           0        2.444848   -1.248263   -0.212286
      6          6           0        1.536264    0.910742    0.295967
      7          6           0        0.489629    1.668547   -0.539790
      8          6           0       -0.898872    1.104978   -0.334577
      9          8           0       -1.226562    0.709430    1.005286
     10          1           0       -2.657581   -1.760931    0.396252
     11          1           0       -3.228856   -0.275189   -0.383167
     12          1           0       -2.342838   -1.495803   -1.325489
     13          1           0        0.030844   -1.713249    1.149965
     14          1           0        0.054613   -2.050627   -0.569550
     15          1           0        1.320825    1.083897    1.356928
     16          1           0        2.551176    1.253106    0.085375
     17          1           0        0.500085    2.731182   -0.271558
     18          1           0        0.736938    1.613551   -1.607862
     19          1           0       -1.702467    1.631374   -0.852203
 ---------------------------------------------------------------------

 SCF Done:  E(RB3LYP) =  -423.213953223     A.U. after    1 cycles

 The electronic state is 1-A.
 Alpha  occ. eigenvalues --  -19.15190 -19.12686 -10.26946 -10.25052 -10.24202
 Alpha  occ. eigenvalues --  -10.20164 -10.19641 -10.19183 -10.18890  -1.07416
 Alpha  occ. eigenvalues --   -1.03812  -0.80804  -0.77951  -0.72482  -0.68944
 Alpha  occ. eigenvalues --   -0.61387  -0.57887  -0.52554  -0.50155  -0.47941
 Alpha  occ. eigenvalues --   -0.46932  -0.44569  -0.43643  -0.41748  -0.40246
 Alpha  occ. eigenvalues --   -0.40035  -0.39526  -0.38217  -0.36410  -0.34972
 Alpha  occ. eigenvalues --   -0.33710  -0.29408  -0.27303  -0.23905
 Alpha virt. eigenvalues --   -0.01451   0.08565   0.09286   0.11126   0.11380
 Alpha virt. eigenvalues --    0.13326   0.13843   0.14699   0.15606   0.16091
 Alpha virt. eigenvalues --    0.17610   0.18120   0.18229   0.20424   0.21356

 Mulliken charges:
               1
     1  C   -0.463119
     2  C    0.377995
     3  C   -0.371927
     4  C    0.380957
     5  O   -0.307775
     6  C   -0.304011
     7  C   -0.258607
     8  C    0.006113
     9  O   -0.294030
    10  H    0.128515
    11  H    0.130098
    12  H    0.124246
    13  H    0.142204
    14  H    0.130731
    15  H    0.139389
    16  H    0.118791
    17  H    0.117063
    18  H    0.116621
    19  H    0.086747
 Sum of Mulliken charges =   0.00000

 Dipole moment (field-independent basis, Debye):
    X=             -1.9601    Y=              1.0044    Z=             -1.0079  Tot=              2.4222
 Quadrupole moment (field-independent basis, Debye-Ang):
   XX=            -59.8239   YY=            -52.0076   ZZ=            -53.2710
   XY=              6.5916   XZ=              3.6543   YZ=             -2.4868

  Exact polarizability:  83.382   2.124  81.168   0.111  -1.553  60.294
 Approx polarizability: 111.946  -4.327 116.921  -4.868   0.893 100.289

                      1                      2                      3
                      A                      A                      A
 Frequencies --     55.9631               159.0706               203.6042
 Red. masses --      3.6356                 2.4872                 1.1566
 Frc consts  --      0.0067                 0.0371                 0.0283
 IR Inten    --      6.0540                 2.2492                 0.4522

                      4                      5                      6
                      A                      A                      A
 Frequencies --    245.3598               299.8832               345.1757
 Red. masses --      2.0661                 2.3773                 5.6399
 Frc consts  --      0.0733                 0.1260                 0.3959
 IR Inten    --      0.5125                 0.8978                 2.8038

                      7                      8                      9
                      A                      A                      A
 Frequencies --    377.4708               396.8097               486.9941
 Red. masses --      3.0293                 1.9745                 3.9421
 Frc consts  --      0.2543                 0.1832                 0.5508
 IR Inten    --      4.7438                 3.8021                12.4059

                     10                     11                     12
                      A                      A                      A
 Frequencies --    519.5330               568.7068               628.8581
 Red. masses --      3.3481                 4.4339                 3.0346
 Frc consts  --      0.5325                 0.8449                 0.7071
 IR Inten    --      4.0445                 5.2908                 1.3741

                     13                     14                     15
                      A                      A                      A
 Frequencies --    722.6220               765.3148               804.2129
 Red. masses --      3.1158                 3.0126                 2.7545
 Frc consts  --      0.9586                 1.0396                 1.0496
 IR Inten    --     10.1998                 1.2432                11.9920

                     16                     17                     18
                      A                      A                      A
 Frequencies --    856.4981               904.3187               926.8003
 Red. masses --      2.2542                 2.5899                 2.1341
 Frc consts  --      0.9743                 1.2479                 1.0800
 IR Inten    --      1.3360                 4.2051                10.8795

                     19                     20                     21
                      A                      A                      A
 Frequencies --    951.5132              1000.2110              1032.7745
 Red. masses --      2.4946                 1.5618                 1.7075
 Frc consts  --      1.3307                 0.9206                 1.0731
 IR Inten    --     12.4056                 2.5225                 3.7041

                     22                     23                     24
                      A                      A                      A
 Frequencies --   1064.5719              1074.5926              1119.2537
 Red. masses --      1.5428                 1.6984                 2.0251
 Frc consts  --      1.0302                 1.1555                 1.4947
 IR Inten    --      3.7086                 2.0695                 6.4103

                     25                     26                     27
                      A                      A                      A
 Frequencies --   1172.5233              1201.9219              1226.2726
 Red. masses --      2.3571                 1.6999                 1.5933
 Frc consts  --      1.9093                 1.4469                 1.4117
 IR Inten    --     50.6210                 8.3443                17.5528

                     28                     29                     30
                      A                      A                      A
 Frequencies --   1238.2063              1257.5467              1325.2533
 Red. masses --      1.3467                 1.5236                 1.3993
 Frc consts  --      1.2165                 1.4196                 1.4479
 IR Inten    --      3.3351                10.2839                18.2325

                     31                     32                     33
                      A                      A                      A
 Frequencies --   1344.2665              1350.5535              1375.1532
 Red. masses --      1.8714                 1.6493                 1.6389
 Frc consts  --      1.9924                 1.7724                 1.8260
 IR Inten    --      2.3106                 7.0357                 8.8854

                     34                     35                     36
                      A                      A                      A
 Frequencies --   1413.2457              1431.9737              1458.1717
 Red. masses --      1.2892                 1.1297                 1.1656
 Frc consts  --      1.5171                 1.3649                 1.4602
 IR Inten    --      7.4331                 7.4173                11.7849

                     37                     38                     39
                      A                      A                      A
 Frequencies --   1471.2839              1486.3197              1490.1238
 Red. masses --      1.3512                 1.1029                 1.0708
 Frc consts  --      1.7233                 1.4355                 1.4009
 IR Inten    --      4.7132                 6.2188                 4.8330

                     40                     41                     42
                      A                      A                      A
 Frequencies --   1508.2705              1815.2317              3022.0251
 Red. masses --      1.6816                11.6198                 1.0665
 Frc consts  --      2.2539                22.5586                 5.7388
 IR Inten    --      2.7115               189.3571                 7.0091

                     43                     44                     45
                      A                      A                      A
 Frequencies --   3027.4955              3034.7166              3047.5743
 Red. masses --      1.0606                 1.0368                 1.0661
 Frc consts  --      5.7275                 5.6258                 5.8339
 IR Inten    --     25.0139                18.0187                 5.1737

                     46                     47                     48
                      A                      A                      A
 Frequencies --   3067.2592              3088.5243              3096.8765
 Red. masses --      1.0978                 1.0933                 1.0894
 Frc consts  --      6.0852                 6.1447                 6.1559
 IR Inten    --     20.9314                 4.9423                25.4312

                     49                     50                     51
                      A                      A                      A
 Frequencies --   3098.8024              3122.1032              3124.4286
 Red. masses --      1.0987                 1.1000                 1.1013
 Frc consts  --      6.2162                 6.3174                 6.3341
 IR Inten    --     28.3381                13.1140                18.3174

 - Thermochemistry -
 -------------------
 Temperature   298.150 Kelvin.  Pressure   1.00000 Atm.
 Atom     1 has atomic number  6 and mass  12.00000

 Molecular mass:   126.06808 amu.
 Principal axes and moments of inertia in atomic units:
                           1         2         3
     Eigenvalues --   668.436221216.999961646.67230
           X            0.99606   0.08660   0.01909
           Y           -0.08624   0.99609  -0.01894
           Z           -0.02066   0.01722   0.99964
 This molecule is an asymmetric top.
 Rotational symmetry number  1.
 Warning -- assumption of classical behavior for rotation
           may cause significant error
 Rotational temperatures (Kelvin)      0.12958     0.07117     0.05260
 Rotational constants (GHZ):           2.69995     1.48294     1.09599
 Zero-point vibrational energy     417534.0 (Joules/Mol)
                                   99.79302 (Kcal/Mol)
 Warning -- explicit consideration of  11 degrees of freedom as
           vibrations may cause significant error
 Vibrational temperatures:     80.52   228.87   292.94   353.02   431.46
          (Kelvin)            496.63   543.10   570.92   700.67   747.49
                              818.24   904.79  1039.69  1101.12  1157.08
                             1232.31  1301.11  1333.46  1369.01  1439.08
                             1485.93  1531.68  1546.10  1610.35  1687.00
                             1729.30  1764.33  1781.50  1809.33  1906.74
                             1934.10  1943.14  1978.54  2033.34  2060.29
                             2097.98  2116.85  2138.48  2143.95  2170.06
                             2611.71  4348.01  4355.89  4366.27  4384.77
                             4413.10  4443.69  4455.71  4458.48  4492.00
                             4495.35

 Zero-point correction=                           0.159030 (Hartree/Particle)
 Thermal correction to Energy=                    0.167344
 Thermal correction to Enthalpy=                  0.168288
 Thermal correction to Gibbs Free Energy=         0.126014
 Sum of electronic and zero-point Energies=           -423.054923
 Sum of electronic and thermal Energies=              -423.046609
 Sum of electronic and thermal Enthalpies=            -423.045665
 Sum of electronic and thermal Free Energies=         -423.087939

                     E (Thermal)             CV                S
                      KCal/Mol        Cal/Mol-Kelvin    Cal/Mol-Kelvin
 Total                  105.010             32.027             88.973
 Electronic               0.000              0.000              0.000
 Translational            0.889              2.981             40.409
 Rotational               0.889              2.981             28.684
 Vibrational            103.232             26.065             19.880
 Vibration     1          0.596              1.975              4.595
 Vibration     2          0.621              1.892              2.561
 Vibration     3          0.639              1.835              2.100
 Vibration     4          0.660              1.770              1.764
 Vibration     5          0.692              1.674              1.418
 Vibration     6          0.724              1.585              1.188
 Vibration     7          0.748              1.518              1.049
 Vibration     8          0.763              1.477              0.974
 Vibration     9          0.843              1.279              0.691
 Vibration    10          0.875              1.207              0.611
 Vibration    11          0.925              1.099              0.507

 Normal termination of Gaussian 09 at Mon Jan 27 18:37:26 2020.
