 Gaussian 09, Revision D.01,
 Gaussian 09:  ES64L-G09RevD.01 24-Apr-2013

 -----------------------------
 # b3lyp 6-31G(2df,p) opt Freq
 -----------------------------

 -----
 titel
 -----
 Symbolic Z-matrix:
 Charge =  0 Multiplicity = 1

 SCF Done:  E(RB3LYP) =  -423.157347335     A.U. after   12 cycles
 Optimization completed.
    -- Stationary point found.
 Normal termination of Gaussian 09 at Tue Jan 28 03:23:41 2020.

 ----------------------------------------------------------------------
 #N Geom=AllCheck Guess=TCheck SCRF=Check GenChk RB3LYP/6-31G(2df,p) Fr
 eq
 ----------------------------------------------------------------------

 Structure from the checkpoint file:  "/scratch/puck/g09_ac8ae2c5-fe68-4e79-bb3b-37763b35b651/Gau-173950.chk"
 -----
 titel
 -----
 Charge =  0 Multiplicity = 1

                         Standard orientation:
 ---------------------------------------------------------------------
 Center     Atomic      Atomic             Coordinates (Angstroms)
 Number     Number       Type             X           Y           Z
 ---------------------------------------------------------------------
      1          6           0        2.025333   -1.253400    0.537087
      2          6           0        1.406413   -0.308938   -0.490378
      3          8           0        1.393195    1.049139   -0.011562
      4          6           0        0.040588    1.468545    0.094524
      5          6           0       -0.731275    0.677205    1.201825
      6          6           0       -1.181477   -0.271743    0.090064
      7          8           0       -2.342962   -1.020815    0.102845
      8          6           0       -0.777882    0.714856   -0.985605
      9          6           0       -0.040610   -0.592096   -0.876014
     10          1           0        3.027045   -0.911259    0.812081
     11          1           0        1.420165   -1.312324    1.445694
     12          1           0        2.113534   -2.261381    0.116499
     13          1           0        2.027090   -0.327478   -1.398574
     14          1           0        0.014218    2.555921    0.139323
     15          1           0       -0.140103    0.301337    2.042584
     16          1           0       -1.588358    1.246249    1.575056
     17          1           0       -2.165662   -1.850463    0.559708
     18          1           0       -1.296523    1.096782   -1.853723
     19          1           0       -0.259808   -1.370546   -1.597932
 ---------------------------------------------------------------------

 SCF Done:  E(RB3LYP) =  -423.157347335     A.U. after    1 cycles

 The electronic state is 1-A.
 Alpha  occ. eigenvalues --  -19.15067 -19.13006 -10.24452 -10.23422 -10.23072
 Alpha  occ. eigenvalues --  -10.19192 -10.18611 -10.17915 -10.17382  -1.04181
 Alpha  occ. eigenvalues --   -1.02853  -0.87942  -0.77237  -0.71433  -0.64280
 Alpha  occ. eigenvalues --   -0.61644  -0.57936  -0.55100  -0.52892  -0.47636
 Alpha  occ. eigenvalues --   -0.45056  -0.44012  -0.43021  -0.42117  -0.40357
 Alpha  occ. eigenvalues --   -0.38206  -0.37893  -0.35585  -0.34399  -0.32502
 Alpha  occ. eigenvalues --   -0.30936  -0.25956  -0.25483  -0.23747
 Alpha virt. eigenvalues --    0.07529   0.09097   0.10741   0.11844   0.13354
 Alpha virt. eigenvalues --    0.13931   0.14675   0.15272   0.16455   0.17098
 Alpha virt. eigenvalues --    0.18341   0.19028   0.19553   0.20735   0.23313

 Mulliken charges:
               1
     1  C   -0.399100
     2  C    0.120841
     3  O   -0.283294
     4  C    0.087502
     5  C   -0.322795
     6  C    0.376849
     7  O   -0.461925
     8  C   -0.151016
     9  C   -0.151907
    10  H    0.125968
    11  H    0.115545
    12  H    0.109294
    13  H    0.076176
    14  H    0.085305
    15  H    0.092409
    16  H    0.105810
    17  H    0.285717
    18  H    0.096711
    19  H    0.091909
 Sum of Mulliken charges =   0.00000

 Dipole moment (field-independent basis, Debye):
    X=             -0.1744    Y=             -1.4199    Z=              0.1188  Tot=              1.4355
 Quadrupole moment (field-independent basis, Debye-Ang):
   XX=            -58.6639   YY=            -48.9348   ZZ=            -51.5230
   XY=             -2.1820   XZ=             -1.4867   YZ=             -0.9750

  Exact polarizability:  78.149  -3.790  74.920  -1.637   0.494  69.250
 Approx polarizability: 110.194  -1.618 111.794  -3.343  -0.354 104.028

                      1                      2                      3
                      A                      A                      A
 Frequencies --    150.7462               188.8909               223.9371
 Red. masses --      3.1613                 3.4801                 1.0277
 Frc consts  --      0.0423                 0.0732                 0.0304
 IR Inten    --      1.5959                 5.4327                 0.7622

                      4                      5                      6
                      A                      A                      A
 Frequencies --    257.3618               350.4640               354.7733
 Red. masses --      1.1245                 3.3292                 3.8872
 Frc consts  --      0.0439                 0.2409                 0.2883
 IR Inten    --     76.1804                22.0544                 4.4054

                      7                      8                      9
                      A                      A                      A
 Frequencies --    422.9103               455.4040               521.9723
 Red. masses --      2.7270                 3.0355                 3.0260
 Frc consts  --      0.2874                 0.3709                 0.4858
 IR Inten    --      6.5427                 0.7747                 1.9280

                     10                     11                     12
                      A                      A                      A
 Frequencies --    588.4142               654.4488               712.6527
 Red. masses --      4.4277                 3.4442                 2.5690
 Frc consts  --      0.9032                 0.8691                 0.7687
 IR Inten    --      1.4626                 4.7331                 2.6828

                     13                     14                     15
                      A                      A                      A
 Frequencies --    770.3424               835.1074               854.0403
 Red. masses --      2.8141                 3.3969                 2.9083
 Frc consts  --      0.9839                 1.3958                 1.2498
 IR Inten    --      4.4567                13.1990                 5.9777

                     16                     17                     18
                      A                      A                      A
 Frequencies --    875.5906               900.2740               904.7060
 Red. masses --      2.2382                 2.0822                 1.5464
 Frc consts  --      1.0110                 0.9943                 0.7457
 IR Inten    --      8.9904                10.1273                 5.5744

                     19                     20                     21
                      A                      A                      A
 Frequencies --    952.7889               979.8384              1005.2796
 Red. masses --      1.9177                 2.3759                 1.9560
 Frc consts  --      1.0257                 1.3440                 1.1646
 IR Inten    --      1.9384                33.3143                 7.3205

                     22                     23                     24
                      A                      A                      A
 Frequencies --   1018.2033              1050.6954              1100.6475
 Red. masses --      1.5742                 1.9810                 2.8072
 Frc consts  --      0.9616                 1.2885                 2.0036
 IR Inten    --     23.1477                 8.8715                52.1288

                     25                     26                     27
                      A                      A                      A
 Frequencies --   1107.2003              1132.4342              1148.2122
 Red. masses --      1.9106                 1.6244                 2.2223
 Frc consts  --      1.3800                 1.2274                 1.7262
 IR Inten    --      5.9687                21.5696                38.3018

                     28                     29                     30
                      A                      A                      A
 Frequencies --   1173.9028              1183.4448              1234.7582
 Red. masses --      1.6216                 1.7047                 2.0247
 Frc consts  --      1.3166                 1.4067                 1.8188
 IR Inten    --      2.1098                 9.4154                36.0321

                     31                     32                     33
                      A                      A                      A
 Frequencies --   1254.9192              1300.8009              1304.6043
 Red. masses --      1.5318                 2.1244                 1.5515
 Frc consts  --      1.4213                 2.1179                 1.5558
 IR Inten    --     12.9153                88.6414                73.0551

                     34                     35                     36
                      A                      A                      A
 Frequencies --   1327.9937              1359.1488              1383.0221
 Red. masses --      1.5528                 1.4569                 1.3074
 Frc consts  --      1.6135                 1.5857                 1.4734
 IR Inten    --      2.5891                12.7362                 8.9310

                     37                     38                     39
                      A                      A                      A
 Frequencies --   1405.8199              1439.4063              1487.1504
 Red. masses --      1.2933                 2.5334                 1.0788
 Frc consts  --      1.5059                 3.0926                 1.4057
 IR Inten    --      9.8627                26.5283                 4.0646

                     40                     41                     42
                      A                      A                      A
 Frequencies --   1495.2968              1505.2511              2988.1185
 Red. masses --      1.0500                 1.2001                 1.0844
 Frc consts  --      1.3832                 1.6021                 5.7049
 IR Inten    --      1.8141                 3.4698                57.1054

                     43                     44                     45
                      A                      A                      A
 Frequencies --   3037.1888              3045.6555              3100.0823
 Red. masses --      1.0367                 1.0559                 1.1080
 Frc consts  --      5.6345                 5.7708                 6.2738
 IR Inten    --     17.2457                38.0667                29.6137

                     46                     47                     48
                      A                      A                      A
 Frequencies --   3107.0780              3123.7548              3133.1927
 Red. masses --      1.0995                 1.1023                 1.0906
 Frc consts  --      6.2541                 6.3371                 6.3082
 IR Inten    --     24.7685                25.9869                35.1270

                     49                     50                     51
                      A                      A                      A
 Frequencies --   3185.8702              3215.0698              3795.7518
 Red. masses --      1.0896                 1.0964                 1.0660
 Frc consts  --      6.5157                 6.6775                 9.0493
 IR Inten    --      6.3013                 6.7582                22.7617

 - Thermochemistry -
 -------------------
 Temperature   298.150 Kelvin.  Pressure   1.00000 Atm.
 Atom     1 has atomic number  6 and mass  12.00000

 Molecular mass:   126.06808 amu.
 Principal axes and moments of inertia in atomic units:
                           1         2         3
     Eigenvalues --   648.321141123.137581323.49863
           X            0.99764  -0.06846   0.00454
           Y            0.06850   0.99762  -0.00822
           Z           -0.00397   0.00852   0.99996
 This molecule is an asymmetric top.
 Rotational symmetry number  1.
 Warning -- assumption of classical behavior for rotation
           may cause significant error
 Rotational temperatures (Kelvin)      0.13360     0.07712     0.06544
 Rotational constants (GHZ):           2.78371     1.60687     1.36361
 Zero-point vibrational energy     419318.7 (Joules/Mol)
                                  100.21958 (Kcal/Mol)
 Warning -- explicit consideration of  10 degrees of freedom as
           vibrations may cause significant error
 Vibrational temperatures:    216.89   271.77   322.20   370.29   504.24
          (Kelvin)            510.44   608.47   655.22   751.00   846.60
                              941.60  1025.35  1108.35  1201.53  1228.77
                             1259.78  1295.29  1301.67  1370.85  1409.77
                             1446.37  1464.97  1511.71  1583.58  1593.01
                             1629.32  1652.02  1688.98  1702.71  1776.54
                             1805.55  1871.56  1877.03  1910.68  1955.51
                             1989.86  2022.66  2070.98  2139.68  2151.40
                             2165.72  4299.23  4369.83  4382.01  4460.32
                             4470.39  4494.38  4507.96  4583.75  4625.76
                             5461.23

 Zero-point correction=                           0.159710 (Hartree/Particle)
 Thermal correction to Energy=                    0.167447
 Thermal correction to Enthalpy=                  0.168391
 Thermal correction to Gibbs Free Energy=         0.127990
 Sum of electronic and zero-point Energies=           -422.997637
 Sum of electronic and thermal Energies=              -422.989900
 Sum of electronic and thermal Enthalpies=            -422.988956
 Sum of electronic and thermal Free Energies=         -423.029358

                     E (Thermal)             CV                S
                      KCal/Mol        Cal/Mol-Kelvin    Cal/Mol-Kelvin
 Total                  105.075             31.368             85.032
 Electronic               0.000              0.000              0.000
 Translational            0.889              2.981             40.409
 Rotational               0.889              2.981             28.357
 Vibrational            103.297             25.406             16.266
 Vibration     1          0.618              1.902              2.663
 Vibration     2          0.633              1.855              2.239
 Vibration     3          0.649              1.805              1.927
 Vibration     4          0.667              1.750              1.680
 Vibration     5          0.727              1.574              1.164
 Vibration     6          0.731              1.565              1.145
 Vibration     7          0.785              1.420              0.882
 Vibration     8          0.814              1.349              0.780
 Vibration     9          0.877              1.201              0.605
 Vibration    10          0.946              1.056              0.470

 Optimization completed.
    -- Stationary point found.
 Normal termination of Gaussian 09 at Tue Jan 28 04:01:04 2020.
