 Gaussian 09, Revision D.01,
 Gaussian 09:  ES64L-G09RevD.01 24-Apr-2013

 -----------------------------
 # b3lyp 6-31G(2df,p) opt Freq
 -----------------------------

 -----
 titel
 -----
 Symbolic Z-matrix:
 Charge =  0 Multiplicity = 1

 SCF Done:  E(RB3LYP) =  -423.116268701     A.U. after   12 cycles
 Optimization completed.
    -- Stationary point found.
 Normal termination of Gaussian 09 at Tue Jan 28 10:04:13 2020.

 ----------------------------------------------------------------------
 #N Geom=AllCheck Guess=TCheck SCRF=Check GenChk RB3LYP/6-31G(2df,p) Fr
 eq
 ----------------------------------------------------------------------

 Structure from the checkpoint file:  "/scratch/puck/g09_a4cb2631-c5cc-463f-860e-fd4e002b8cdb/Gau-20045.chk"
 -----
 titel
 -----
 Charge =  0 Multiplicity = 1

                         Standard orientation:
 ---------------------------------------------------------------------
 Center     Atomic      Atomic             Coordinates (Angstroms)
 Number     Number       Type             X           Y           Z
 ---------------------------------------------------------------------
      1          6           0       -2.857165   -0.452122   -0.212091
      2          8           0       -1.844618   -0.163752    0.733616
      3          6           0       -0.609555    0.075588    0.168773
      4          6           0       -0.303902    1.364213   -0.659415
      5          6           0        1.120007    1.201577   -0.130092
      6          6           0        0.663275    0.364817    1.052294
      7          6           0        1.421397   -0.309870   -0.050445
      8          8           0        2.709804   -0.792147    0.046244
      9          6           0        0.190502   -1.052098   -0.567588
     10          1           0       -2.621876   -1.353256   -0.796152
     11          1           0       -3.778299   -0.623499    0.348653
     12          1           0       -3.014558    0.384120   -0.908216
     13          1           0       -0.476150    1.338557   -1.741751
     14          1           0       -0.796967    2.236402   -0.219601
     15          1           0        1.932762    1.916680   -0.138030
     16          1           0        0.822940    0.449492    2.116282
     17          1           0        3.143673   -0.672359   -0.805943
     18          1           0        0.049622   -1.171573   -1.648532
     19          1           0        0.070017   -2.010012   -0.054203
 ---------------------------------------------------------------------

 SCF Done:  E(RB3LYP) =  -423.116268701     A.U. after    1 cycles

 The electronic state is 1-A.
 Alpha  occ. eigenvalues --  -19.14850 -19.14559 -10.24322 -10.23870 -10.22600
 Alpha  occ. eigenvalues --  -10.18949 -10.18226 -10.18080 -10.17756  -1.04339
 Alpha  occ. eigenvalues --   -1.03408  -0.91861  -0.71974  -0.71421  -0.68613
 Alpha  occ. eigenvalues --   -0.60646  -0.56624  -0.53295  -0.52751  -0.47004
 Alpha  occ. eigenvalues --   -0.46047  -0.45596  -0.43513  -0.42785  -0.42165
 Alpha  occ. eigenvalues --   -0.39292  -0.37295  -0.34779  -0.33336  -0.31599
 Alpha  occ. eigenvalues --   -0.29270  -0.26028  -0.24625  -0.23705
 Alpha virt. eigenvalues --    0.07931   0.08724   0.11379   0.12164   0.13899
 Alpha virt. eigenvalues --    0.14802   0.14913   0.15523   0.15572   0.16136
 Alpha virt. eigenvalues --    0.16655   0.18414   0.19056   0.19243   0.21718

 Mulliken charges:
               1
     1  C   -0.266450
     2  O   -0.292446
     3  C    0.432581
     4  C   -0.302315
     5  C   -0.139675
     6  C   -0.209875
     7  C    0.400260
     8  O   -0.461777
     9  C   -0.370689
    10  H    0.114529
    11  H    0.129871
    12  H    0.113531
    13  H    0.084262
    14  H    0.104299
    15  H    0.088517
    16  H    0.101828
    17  H    0.284682
    18  H    0.080461
    19  H    0.108405
 Sum of Mulliken charges =   0.00000

 Dipole moment (field-independent basis, Debye):
    X=             -0.2744    Y=              0.4249    Z=             -2.0467  Tot=              2.1083
 Quadrupole moment (field-independent basis, Debye-Ang):
   XX=            -50.0513   YY=            -53.5091   ZZ=            -52.3987
   XY=              2.4094   XZ=             -1.6888   YZ=              1.3291

  Exact polarizability:  87.608   0.978  71.424   0.659   0.397  66.637
 Approx polarizability: 114.766  -0.538 105.230  -1.838  -0.440 107.468

                      1                      2                      3
                      A                      A                      A
 Frequencies --     84.3309               179.0237               190.0079
 Red. masses --      2.8207                 2.0103                 1.4072
 Frc consts  --      0.0118                 0.0380                 0.0299
 IR Inten    --      2.1392                 0.7253                 0.6598

                      4                      5                      6
                      A                      A                      A
 Frequencies --    249.8639               307.7724               340.8628
 Red. masses --      1.7413                 1.5398                 4.8015
 Frc consts  --      0.0641                 0.0859                 0.3287
 IR Inten    --     21.9099                67.7440                18.8317

                      7                      8                      9
                      A                      A                      A
 Frequencies --    368.1252               415.3235               447.7452
 Red. masses --      2.4991                 3.3857                 2.2708
 Frc consts  --      0.1995                 0.3441                 0.2682
 IR Inten    --      3.6475                 8.1670                 1.6151

                     10                     11                     12
                      A                      A                      A
 Frequencies --    474.5158               595.1957               637.4074
 Red. masses --      2.4034                 4.1239                 3.4333
 Frc consts  --      0.3188                 0.8607                 0.8219
 IR Inten    --      4.4475                 2.6523                 6.7657

                     13                     14                     15
                      A                      A                      A
 Frequencies --    738.6248               744.0557               826.2336
 Red. masses --      2.5734                 3.7115                 1.3471
 Frc consts  --      0.8272                 1.2106                 0.5418
 IR Inten    --      3.4348                 1.4142                 5.0124

                     16                     17                     18
                      A                      A                      A
 Frequencies --    894.7613               899.2265               945.9296
 Red. masses --      3.1641                 1.9281                 1.3689
 Frc consts  --      1.4925                 0.9186                 0.7217
 IR Inten    --      2.7558                 2.3808                14.2631

                     19                     20                     21
                      A                      A                      A
 Frequencies --    949.9653               963.6391              1009.8199
 Red. masses --      2.1915                 1.7846                 2.9194
 Frc consts  --      1.1652                 0.9764                 1.7540
 IR Inten    --      5.5444                 5.8675                 2.8619

                     22                     23                     24
                      A                      A                      A
 Frequencies --   1039.1429              1078.0386              1100.4446
 Red. masses --      2.5873                 2.4247                 1.8782
 Frc consts  --      1.6461                 1.6602                 1.3401
 IR Inten    --      8.1621                56.2998                 5.7297

                     25                     26                     27
                      A                      A                      A
 Frequencies --   1112.6226              1128.3836              1143.3222
 Red. masses --      2.0973                 2.0087                 1.4923
 Frc consts  --      1.5297                 1.5069                 1.1493
 IR Inten    --     32.4492                28.3968                 1.6734

                     28                     29                     30
                      A                      A                      A
 Frequencies --   1180.3890              1183.0463              1212.4968
 Red. masses --      1.4221                 1.3887                 1.5632
 Frc consts  --      1.1674                 1.1452                 1.3540
 IR Inten    --     16.7585                14.1726                 2.5012

                     31                     32                     33
                      A                      A                      A
 Frequencies --   1228.1420              1244.1023              1287.2822
 Red. masses --      1.9912                 1.8200                 2.9262
 Frc consts  --      1.7695                 1.6597                 2.8570
 IR Inten    --     38.5555                18.4258                39.9234

                     34                     35                     36
                      A                      A                      A
 Frequencies --   1302.5570              1342.5509              1438.1850
 Red. masses --      1.8114                 3.0598                 2.5839
 Frc consts  --      1.8108                 3.2494                 3.1489
 IR Inten    --    114.4115               202.6596                23.1937

                     37                     38                     39
                      A                      A                      A
 Frequencies --   1483.1244              1488.4474              1492.0436
 Red. masses --      1.1690                 1.0782                 1.1622
 Frc consts  --      1.5150                 1.4074                 1.5243
 IR Inten    --      2.8549                 3.1942                 6.5422

                     40                     41                     42
                      A                      A                      A
 Frequencies --   1506.4966              1512.4755              2991.1647
 Red. masses --      1.0634                 1.2561                 1.0355
 Frc consts  --      1.4220                 1.6930                 5.4586
 IR Inten    --      9.0027                 1.8330                38.6017

                     43                     44                     45
                      A                      A                      A
 Frequencies --   3023.2847              3031.4428              3043.1417
 Red. masses --      1.0613                 1.0593                 1.1026
 Frc consts  --      5.7152                 5.7357                 6.0159
 IR Inten    --     19.1935                71.8743                54.6426

                     46                     47                     48
                      A                      A                      A
 Frequencies --   3093.4721              3104.5335              3123.7531
 Red. masses --      1.1046                 1.1034                 1.0977
 Frc consts  --      6.2281                 6.2658                 6.3111
 IR Inten    --     23.9982                21.3035                28.5480

                     49                     50                     51
                      A                      A                      A
 Frequencies --   3197.8452              3239.6104              3789.1936
 Red. masses --      1.0921                 1.0987                 1.0660
 Frc consts  --      6.5802                 6.7935                 9.0180
 IR Inten    --     14.1828                 1.8907                20.9840

 - Thermochemistry -
 -------------------
 Temperature   298.150 Kelvin.  Pressure   1.00000 Atm.
 Atom     1 has atomic number  6 and mass  12.00000

 Molecular mass:   126.06808 amu.
 Principal axes and moments of inertia in atomic units:
                           1         2         3
     Eigenvalues --   472.351211466.568481620.50626
           X            0.99984   0.01419   0.01109
           Y           -0.01443   0.99964   0.02269
           Z           -0.01077  -0.02285   0.99968
 This molecule is an asymmetric top.
 Rotational symmetry number  1.
 Warning -- assumption of classical behavior for rotation
           may cause significant error
 Rotational temperatures (Kelvin)      0.18337     0.05906     0.05345
 Rotational constants (GHZ):           3.82076     1.23059     1.11369
 Zero-point vibrational energy     415123.1 (Joules/Mol)
                                   99.21681 (Kcal/Mol)
 Warning -- explicit consideration of  11 degrees of freedom as
           vibrations may cause significant error
 Vibrational temperatures:    121.33   257.57   273.38   359.50   442.82
          (Kelvin)            490.42   529.65   597.56   644.20   682.72
                              856.35   917.09  1062.72  1070.53  1188.76
                             1287.36  1293.78  1360.98  1366.79  1386.46
                             1452.90  1495.09  1551.06  1583.29  1600.81
                             1623.49  1644.98  1698.31  1702.14  1744.51
                             1767.02  1789.98  1852.11  1874.09  1931.63
                             2069.22  2133.88  2141.54  2146.72  2167.51
                             2176.11  4303.61  4349.83  4361.56  4378.40
                             4450.81  4466.73  4494.38  4600.98  4661.07
                             5451.80

 Zero-point correction=                           0.158112 (Hartree/Particle)
 Thermal correction to Energy=                    0.166436
 Thermal correction to Enthalpy=                  0.167380
 Thermal correction to Gibbs Free Energy=         0.125518
 Sum of electronic and zero-point Energies=           -422.958157
 Sum of electronic and thermal Energies=              -422.949833
 Sum of electronic and thermal Enthalpies=            -422.948888
 Sum of electronic and thermal Free Energies=         -422.990751

                     E (Thermal)             CV                S
                      KCal/Mol        Cal/Mol-Kelvin    Cal/Mol-Kelvin
 Total                  104.440             32.669             88.106
 Electronic               0.000              0.000              0.000
 Translational            0.889              2.981             40.409
 Rotational               0.889              2.981             28.509
 Vibrational            102.663             26.708             19.189
 Vibration     1          0.601              1.960              3.787
 Vibration     2          0.629              1.868              2.339
 Vibration     3          0.633              1.854              2.228
 Vibration     4          0.663              1.763              1.732
 Vibration     5          0.698              1.659              1.374
 Vibration     6          0.720              1.594              1.208
 Vibration     7          0.741              1.538              1.088
 Vibration     8          0.779              1.437              0.908
 Vibration     9          0.807              1.366              0.803
 Vibration    10          0.831              1.307              0.725
 Vibration    11          0.953              1.042              0.458

 Optimization completed.
    -- Stationary point found.
 Normal termination of Gaussian 09 at Tue Jan 28 10:47:42 2020.
