 Gaussian 09, Revision D.01,
 Gaussian 09:  ES64L-G09RevD.01 24-Apr-2013

 -----------------------------
 # b3lyp 6-31G(2df,p) opt Freq
 -----------------------------

 -----
 titel
 -----
 Symbolic Z-matrix:
 Charge =  0 Multiplicity = 1

 SCF Done:  E(RB3LYP) =  -423.162221730     A.U. after   14 cycles
 Optimization completed.
    -- Stationary point found.
 Normal termination of Gaussian 09 at Tue Jan 28 14:11:11 2020.

 ----------------------------------------------------------------------
 #N Geom=AllCheck Guess=TCheck SCRF=Check GenChk RB3LYP/6-31G(2df,p) Fr
 eq
 ----------------------------------------------------------------------

 Structure from the checkpoint file:  "/scratch/puck/g09_28af254b-33b2-490a-b99c-f9ab8d8f7219/Gau-32300.chk"
 -----
 titel
 -----
 Charge =  0 Multiplicity = 1

                         Standard orientation:
 ---------------------------------------------------------------------
 Center     Atomic      Atomic             Coordinates (Angstroms)
 Number     Number       Type             X           Y           Z
 ---------------------------------------------------------------------
      1          8           0        2.882990   -0.466615    0.031930
      2          6           0        1.905372    0.511131   -0.297599
      3          6           0        0.630184    0.384992    0.557477
      4          6           0       -0.322643    1.532706    0.279070
      5          6           0       -1.534077    1.265145   -0.209014
      6          6           0       -1.856475   -0.200769   -0.418101
      7          6           0       -1.527129   -0.977035    0.880875
      8          6           0       -0.110374   -0.934612    0.270546
      9          8           0       -0.706759   -0.842804   -1.059104
     10          1           0        2.688870   -1.263132   -0.469363
     11          1           0        2.369766    1.486891   -0.116613
     12          1           0        1.626267    0.464682   -1.358031
     13          1           0        0.943635    0.398420    1.611056
     14          1           0        0.020083    2.547666    0.462080
     15          1           0       -2.271034    2.030675   -0.427083
     16          1           0       -2.788256   -0.393287   -0.952640
     17          1           0       -1.712191   -0.485773    1.837461
     18          1           0       -1.932508   -1.990294    0.872609
     19          1           0        0.536381   -1.809845    0.378399
 ---------------------------------------------------------------------

 SCF Done:  E(RB3LYP) =  -423.162221730     A.U. after    1 cycles

 The electronic state is 1-A.
 Alpha  occ. eigenvalues --  -19.13446 -19.13085 -10.23914 -10.23622 -10.22404
 Alpha  occ. eigenvalues --  -10.18948 -10.18866 -10.18681 -10.18313  -1.04007
 Alpha  occ. eigenvalues --   -1.01409  -0.81356  -0.75540  -0.73235  -0.66823
 Alpha  occ. eigenvalues --   -0.60115  -0.59282  -0.52657  -0.51081  -0.50317
 Alpha  occ. eigenvalues --   -0.45760  -0.43795  -0.43354  -0.42407  -0.40203
 Alpha  occ. eigenvalues --   -0.39769  -0.38213  -0.35087  -0.33004  -0.31512
 Alpha  occ. eigenvalues --   -0.31061  -0.27341  -0.25160  -0.23659
 Alpha virt. eigenvalues --   -0.00108   0.06834   0.10096   0.10922   0.12883
 Alpha virt. eigenvalues --    0.13479   0.14695   0.15673   0.16109   0.16378
 Alpha virt. eigenvalues --    0.17685   0.18694   0.19985   0.21055   0.22654

 Mulliken charges:
               1
     1  O   -0.427049
     2  C   -0.083492
     3  C   -0.039191
     4  C   -0.089586
     5  C   -0.062464
     6  C    0.045051
     7  C   -0.251080
     8  C    0.071652
     9  O   -0.300986
    10  H    0.290016
    11  H    0.104062
    12  H    0.112833
    13  H    0.086066
    14  H    0.095220
    15  H    0.094305
    16  H    0.076821
    17  H    0.103318
    18  H    0.108174
    19  H    0.066330
 Sum of Mulliken charges =   0.00000

 Dipole moment (field-independent basis, Debye):
    X=             -1.4205    Y=              0.1479    Z=              0.6444  Tot=              1.5668
 Quadrupole moment (field-independent basis, Debye-Ang):
   XX=            -55.4215   YY=            -49.5336   ZZ=            -55.0093
   XY=             -1.1794   XZ=             -2.1878   YZ=             -0.4240

  Exact polarizability:  89.148   0.958  75.862   4.747  -0.392  60.355
 Approx polarizability: 128.551   1.508 108.725  12.752   3.422  98.488

                      1                      2                      3
                      A                      A                      A
 Frequencies --     83.3836               145.6641               199.4563
 Red. masses --      3.8538                 3.3497                 2.9580
 Frc consts  --      0.0158                 0.0419                 0.0693
 IR Inten    --      3.2342                10.4900                 1.5031

                      4                      5                      6
                      A                      A                      A
 Frequencies --    243.7819               338.5178               363.1712
 Red. masses --      1.0844                 3.8175                 2.3460
 Frc consts  --      0.0380                 0.2577                 0.1823
 IR Inten    --    114.6315                 1.0390                 1.0187

                      7                      8                      9
                      A                      A                      A
 Frequencies --    424.9890               489.5816               551.5474
 Red. masses --      3.3480                 3.4818                 4.0039
 Frc consts  --      0.3563                 0.4917                 0.7176
 IR Inten    --      6.2647                 1.0670                10.0261

                     10                     11                     12
                      A                      A                      A
 Frequencies --    596.1182               717.3059               730.8489
 Red. masses --      3.7229                 2.1046                 2.4809
 Frc consts  --      0.7795                 0.6380                 0.7808
 IR Inten    --      0.4205                 9.6062                17.4161

                     13                     14                     15
                      A                      A                      A
 Frequencies --    788.6102               856.7166               892.7377
 Red. masses --      2.1922                 2.3307                 3.1398
 Frc consts  --      0.8033                 1.0079                 1.4744
 IR Inten    --      1.5178                14.1689                22.5728

                     16                     17                     18
                      A                      A                      A
 Frequencies --    912.4053               941.8237               961.4683
 Red. masses --      4.1045                 3.0683                 2.4793
 Frc consts  --      2.0132                 1.6036                 1.3504
 IR Inten    --     42.6205                 8.1775                12.7872

                     19                     20                     21
                      A                      A                      A
 Frequencies --    970.4463               985.2631               996.0282
 Red. masses --      1.5659                 1.5033                 2.1788
 Frc consts  --      0.8689                 0.8598                 1.2735
 IR Inten    --      1.0962                 1.8804                12.0965

                     22                     23                     24
                      A                      A                      A
 Frequencies --   1053.6457              1064.5261              1072.5985
 Red. masses --      3.0872                 5.3894                 1.5313
 Frc consts  --      2.0193                 3.5983                 1.0380
 IR Inten    --     32.8749                89.2869                11.5657

                     25                     26                     27
                      A                      A                      A
 Frequencies --   1112.4025              1117.0794              1166.8250
 Red. masses --      1.4204                 1.9798                 1.1208
 Frc consts  --      1.0356                 1.4556                 0.8991
 IR Inten    --      7.2512                 1.2751                 0.3801

                     28                     29                     30
                      A                      A                      A
 Frequencies --   1184.4524              1215.7622              1251.2215
 Red. masses --      1.1899                 1.4896                 1.3888
 Frc consts  --      0.9836                 1.2972                 1.2810
 IR Inten    --     17.4532                 1.6163                 4.4467

                     31                     32                     33
                      A                      A                      A
 Frequencies --   1272.1095              1308.0757              1310.8909
 Red. masses --      1.3865                 1.4852                 1.2853
 Frc consts  --      1.3220                 1.4973                 1.3014
 IR Inten    --      4.6382                 3.6720                 0.3128

                     34                     35                     36
                      A                      A                      A
 Frequencies --   1351.7920              1357.8214              1393.7301
 Red. masses --      1.6935                 1.5113                 1.5632
 Frc consts  --      1.8233                 1.6416                 1.7890
 IR Inten    --      6.7892                 6.9999                 5.4504

                     37                     38                     39
                      A                      A                      A
 Frequencies --   1396.2334              1404.9138              1484.0584
 Red. masses --      1.2521                 1.2301                 1.1293
 Frc consts  --      1.4381                 1.4305                 1.4655
 IR Inten    --      2.4790                33.0810                 1.4630

                     40                     41                     42
                      A                      A                      A
 Frequencies --   1498.8483              1691.9273              3010.0956
 Red. masses --      1.0875                 6.5225                 1.0795
 Frc consts  --      1.4395                11.0010                 5.7629
 IR Inten    --      3.0697                 3.5160                 9.4040

                     43                     44                     45
                      A                      A                      A
 Frequencies --   3023.4885              3065.8549              3074.4208
 Red. masses --      1.0601                 1.0783                 1.1066
 Frc consts  --      5.7098                 5.9718                 6.1628
 IR Inten    --     39.3607                40.8808                31.1922

                     46                     47                     48
                      A                      A                      A
 Frequencies --   3076.4569              3099.3343              3139.2146
 Red. masses --      1.0666                 1.0894                 1.1105
 Frc consts  --      5.9477                 6.1653                 6.4477
 IR Inten    --     45.4596                46.6364                24.1520

                     49                     50                     51
                      A                      A                      A
 Frequencies --   3158.3766              3190.7862              3841.1740
 Red. masses --      1.0860                 1.0989                 1.0666
 Frc consts  --      6.3825                 6.5918                 9.2724
 IR Inten    --     11.0915                22.3866                23.4314

 - Thermochemistry -
 -------------------
 Temperature   298.150 Kelvin.  Pressure   1.00000 Atm.
 Atom     1 has atomic number  8 and mass  15.99491

 Molecular mass:   126.06808 amu.
 Principal axes and moments of inertia in atomic units:
                           1         2         3
     Eigenvalues --   567.542281326.787761560.80173
           X            0.99991   0.00647  -0.01167
           Y           -0.00685   0.99942  -0.03329
           Z            0.01145   0.03337   0.99938
 This molecule is an asymmetric top.
 Rotational symmetry number  1.
 Warning -- assumption of classical behavior for rotation
           may cause significant error
 Rotational temperatures (Kelvin)      0.15261     0.06528     0.05549
 Rotational constants (GHZ):           3.17992     1.36023     1.15629
 Zero-point vibrational energy     422150.1 (Joules/Mol)
                                  100.89629 (Kcal/Mol)
 Warning -- explicit consideration of  10 degrees of freedom as
           vibrations may cause significant error
 Vibrational temperatures:    119.97   209.58   286.97   350.75   487.05
          (Kelvin)            522.52   611.46   704.40   793.55   857.68
                             1032.04  1051.53  1134.63  1232.62  1284.45
                             1312.75  1355.07  1383.34  1396.25  1417.57
                             1433.06  1515.96  1531.61  1543.23  1600.50
                             1607.23  1678.80  1704.16  1749.21  1800.23
                             1830.28  1882.03  1886.08  1944.92  1953.60
                             2005.26  2008.87  2021.36  2135.23  2156.51
                             2434.30  4330.85  4350.12  4411.08  4423.40
                             4426.33  4459.25  4516.62  4544.19  4590.82
                             5526.59

 Zero-point correction=                           0.160788 (Hartree/Particle)
 Thermal correction to Energy=                    0.168638
 Thermal correction to Enthalpy=                  0.169582
 Thermal correction to Gibbs Free Energy=         0.128363
 Sum of electronic and zero-point Energies=           -423.001433
 Sum of electronic and thermal Energies=              -422.993584
 Sum of electronic and thermal Enthalpies=            -422.992640
 Sum of electronic and thermal Free Energies=         -423.033858

                     E (Thermal)             CV                S
                      KCal/Mol        Cal/Mol-Kelvin    Cal/Mol-Kelvin
 Total                  105.822             30.794             86.751
 Electronic               0.000              0.000              0.000
 Translational            0.889              2.981             40.409
 Rotational               0.889              2.981             28.554
 Vibrational            104.044             24.832             17.789
 Vibration     1          0.600              1.961              3.810
 Vibration     2          0.617              1.907              2.728
 Vibration     3          0.638              1.841              2.138
 Vibration     4          0.659              1.773              1.775
 Vibration     5          0.719              1.599              1.219
 Vibration     6          0.737              1.548              1.108
 Vibration     7          0.787              1.416              0.875
 Vibration     8          0.845              1.273              0.685
 Vibration     9          0.907              1.136              0.541
 Vibration    10          0.954              1.040              0.456

 Optimization completed.
    -- Stationary point found.
 Normal termination of Gaussian 09 at Tue Jan 28 14:58:58 2020.
