 Gaussian 09, Revision D.01,
 Gaussian 09:  ES64L-G09RevD.01 24-Apr-2013

 -----------------------------
 # b3lyp 6-31G(2df,p) opt Freq
 -----------------------------

 -----
 titel
 -----
 Symbolic Z-matrix:
 Charge =  0 Multiplicity = 1

 SCF Done:  E(RB3LYP) =  -423.160772592     A.U. after   14 cycles
 Optimization completed.
    -- Stationary point found.
 Normal termination of Gaussian 09 at Mon Jan 27 11:56:10 2020.

 ----------------------------------------------------------------------
 #N Geom=AllCheck Guess=TCheck SCRF=Check GenChk RB3LYP/6-31G(2df,p) Fr
 eq
 ----------------------------------------------------------------------

 Structure from the checkpoint file:  "/scratch/puck/g09_3e5dbcaf-765f-4b83-8176-c38622cf423c/Gau-71257.chk"
 -----
 titel
 -----
 Charge =  0 Multiplicity = 1

                         Standard orientation:
 ---------------------------------------------------------------------
 Center     Atomic      Atomic             Coordinates (Angstroms)
 Number     Number       Type             X           Y           Z
 ---------------------------------------------------------------------
      1          6           0        2.509998   -0.006002    0.095564
      2          8           0        1.536467   -0.082151    1.141463
      3          6           0        1.080681    0.013510   -0.216082
      4          6           0        0.308049   -1.182863   -0.763069
      5          6           0       -1.163764   -0.757524   -0.662967
      6          6           0       -1.765446   -0.700421    0.758247
      7          8           0       -1.697893    0.741449    0.786732
      8          6           0       -1.168378    0.798684   -0.554584
      9          6           0        0.290907    1.260546   -0.594564
     10          1           0        3.085291    0.918834    0.059353
     11          1           0        3.089540   -0.913582   -0.073479
     12          1           0        0.579880   -1.351043   -1.812452
     13          1           0        0.540076   -2.094603   -0.205834
     14          1           0       -1.802686   -1.211920   -1.420219
     15          1           0       -2.798782   -1.059214    0.842564
     16          1           0       -1.158855   -1.154227    1.550958
     17          1           0       -1.826805    1.367260   -1.220105
     18          1           0        0.552251    1.578276   -1.612095
     19          1           0        0.479221    2.090258    0.090480
 ---------------------------------------------------------------------

 SCF Done:  E(RB3LYP) =  -423.160772592     A.U. after    1 cycles

 The electronic state is 1-A.
 Alpha  occ. eigenvalues --  -19.14518 -19.12602 -10.24065 -10.23212 -10.23049
 Alpha  occ. eigenvalues --  -10.22437 -10.19335 -10.18972 -10.18404  -1.06630
 Alpha  occ. eigenvalues --   -1.03277  -0.81846  -0.74225  -0.68867  -0.66107
 Alpha  occ. eigenvalues --   -0.64844  -0.56001  -0.54066  -0.51532  -0.48290
 Alpha  occ. eigenvalues --   -0.47132  -0.45284  -0.44517  -0.42112  -0.40481
 Alpha  occ. eigenvalues --   -0.39682  -0.36771  -0.35335  -0.34859  -0.31183
 Alpha  occ. eigenvalues --   -0.29906  -0.29092  -0.26196  -0.24259
 Alpha virt. eigenvalues --    0.07047   0.08752   0.10878   0.11154   0.12150
 Alpha virt. eigenvalues --    0.13345   0.14050   0.14429   0.15175   0.16425
 Alpha virt. eigenvalues --    0.17602   0.18360   0.19349   0.20061   0.20613

 Mulliken charges:
               1
     1  C   -0.261382
     2  O   -0.268601
     3  C    0.434147
     4  C   -0.304059
     5  C   -0.079716
     6  C   -0.078446
     7  O   -0.291008
     8  C    0.128489
     9  C   -0.302611
    10  H    0.110936
    11  H    0.108946
    12  H    0.104619
    13  H    0.114523
    14  H    0.075563
    15  H    0.096881
    16  H    0.115658
    17  H    0.069748
    18  H    0.099942
    19  H    0.126369
 Sum of Mulliken charges =   0.00000

 Dipole moment (field-independent basis, Debye):
    X=              0.6328    Y=             -1.0050    Z=             -2.8228  Tot=              3.0625
 Quadrupole moment (field-independent basis, Debye-Ang):
   XX=            -51.3499   YY=            -51.4344   ZZ=            -55.3722
   XY=              2.7946   XZ=             -0.3504   YZ=             -1.7893

  Exact polarizability:  85.470   2.115  71.254   0.432  -2.650  65.609
 Approx polarizability: 110.890   1.245 103.380  -0.215  -2.905 105.545

                      1                      2                      3
                      A                      A                      A
 Frequencies --     93.2195               111.8715               279.1163
 Red. masses --      4.1934                 3.4126                 2.7281
 Frc consts  --      0.0215                 0.0252                 0.1252
 IR Inten    --      0.8328                 3.3763                 1.7745

                      4                      5                      6
                      A                      A                      A
 Frequencies --    340.8442               355.6201               379.4500
 Red. masses --      2.9615                 3.1014                 1.8736
 Frc consts  --      0.2027                 0.2311                 0.1589
 IR Inten    --      1.5480                 4.9494                 2.3624

                      7                      8                      9
                      A                      A                      A
 Frequencies --    400.9513               547.4098               633.3126
 Red. masses --      2.1938                 3.5244                 4.6764
 Frc consts  --      0.2078                 0.6223                 1.1051
 IR Inten    --      3.9503                 3.1333                 1.5348

                     10                     11                     12
                      A                      A                      A
 Frequencies --    761.5661               783.6846               832.3457
 Red. masses --      4.5416                 2.4350                 2.8309
 Frc consts  --      1.5519                 0.8811                 1.1555
 IR Inten    --     10.6135                 1.5341                11.2043

                     13                     14                     15
                      A                      A                      A
 Frequencies --    848.1064               861.9478               889.6257
 Red. masses --      2.8287                 1.9203                 2.8877
 Frc consts  --      1.1988                 0.8406                 1.3465
 IR Inten    --      3.5052                 6.0240                 0.9361

                     16                     17                     18
                      A                      A                      A
 Frequencies --    900.1397               925.4497               980.5584
 Red. masses --      1.9717                 1.6663                 4.4929
 Frc consts  --      0.9413                 0.8408                 2.5452
 IR Inten    --     11.1924                 2.5699                23.8661

                     19                     20                     21
                      A                      A                      A
 Frequencies --   1005.6288              1019.1603              1035.6538
 Red. masses --      2.5650                 1.6958                 4.2576
 Frc consts  --      1.5283                 1.0378                 2.6906
 IR Inten    --     16.7834                 3.3948                78.8479

                     22                     23                     24
                      A                      A                      A
 Frequencies --   1076.2997              1102.5708              1126.6215
 Red. masses --      1.6641                 2.1322                 1.3041
 Frc consts  --      1.1358                 1.5272                 0.9753
 IR Inten    --      5.3895                 9.7629                 2.0941

                     25                     26                     27
                      A                      A                      A
 Frequencies --   1150.9327              1156.1559              1166.7417
 Red. masses --      1.3783                 1.4202                 1.1359
 Frc consts  --      1.0757                 1.1185                 0.9110
 IR Inten    --      7.0784                 3.4506                 0.4182

                     28                     29                     30
                      A                      A                      A
 Frequencies --   1184.2371              1236.1653              1251.4973
 Red. masses --      1.5932                 2.0724                 1.4925
 Frc consts  --      1.3164                 1.8659                 1.3773
 IR Inten    --      9.5612                 4.0358                 0.7333

                     31                     32                     33
                      A                      A                      A
 Frequencies --   1272.1125              1293.2337              1296.8407
 Red. masses --      1.5016                 1.7498                 1.4826
 Frc consts  --      1.4317                 1.7242                 1.4691
 IR Inten    --      0.5980                 2.4770                 3.2373

                     34                     35                     36
                      A                      A                      A
 Frequencies --   1344.0472              1351.7534              1373.5098
 Red. masses --      1.4764                 1.4132                 1.4864
 Frc consts  --      1.5714                 1.5215                 1.6521
 IR Inten    --      4.0377                10.1816                 2.7662

                     37                     38                     39
                      A                      A                      A
 Frequencies --   1432.3168              1452.5109              1473.1084
 Red. masses --      2.1736                 1.1450                 1.1112
 Frc consts  --      2.6273                 1.4233                 1.4207
 IR Inten    --     12.7165                 7.5936                 3.2757

                     40                     41                     42
                      A                      A                      A
 Frequencies --   1522.4911              1536.9081              3013.9563
 Red. masses --      1.1043                 1.4616                 1.0562
 Frc consts  --      1.5081                 2.0341                 5.6528
 IR Inten    --      0.4806                 3.6006                78.1349

                     43                     44                     45
                      A                      A                      A
 Frequencies --   3028.7253              3034.1110              3048.8799
 Red. masses --      1.0686                 1.0663                 1.0847
 Frc consts  --      5.7754                 5.7837                 5.9409
 IR Inten    --      7.1122                25.5111                67.8206

                     46                     47                     48
                      A                      A                      A
 Frequencies --   3060.9948              3074.4337              3097.3211
 Red. masses --      1.1095                 1.0507                 1.0982
 Frc consts  --      6.1249                 5.8513                 6.2072
 IR Inten    --     27.3558                30.0933                12.0623

                     49                     50                     51
                      A                      A                      A
 Frequencies --   3108.8470              3115.5168              3157.2201
 Red. masses --      1.0893                 1.0968                 1.1189
 Frc consts  --      6.2027                 6.2725                 6.5715
 IR Inten    --     45.5701                 5.0479                23.5789

 - Thermochemistry -
 -------------------
 Temperature   298.150 Kelvin.  Pressure   1.00000 Atm.
 Atom     1 has atomic number  6 and mass  12.00000

 Molecular mass:   126.06808 amu.
 Principal axes and moments of inertia in atomic units:
                           1         2         3
     Eigenvalues --   560.069271259.958071314.40395
           X            0.99978   0.01886  -0.00908
           Y           -0.01987   0.99156  -0.12810
           Z            0.00659   0.12825   0.99172
 This molecule is an asymmetric top.
 Rotational symmetry number  1.
 Warning -- assumption of classical behavior for rotation
           may cause significant error
 Rotational temperatures (Kelvin)      0.15465     0.06874     0.06590
 Rotational constants (GHZ):           3.22235     1.43238     1.37305
 Zero-point vibrational energy     421837.5 (Joules/Mol)
                                  100.82158 (Kcal/Mol)
 Warning -- explicit consideration of   8 degrees of freedom as
           vibrations may cause significant error
 Vibrational temperatures:    134.12   160.96   401.59   490.40   511.66
          (Kelvin)            545.94   576.88   787.60   911.19  1095.72
                             1127.55  1197.56  1220.23  1240.15  1279.97
                             1295.10  1331.51  1410.80  1446.87  1466.34
                             1490.07  1548.55  1586.35  1620.95  1655.93
                             1663.45  1678.68  1703.85  1778.56  1800.62
                             1830.28  1860.67  1865.86  1933.78  1944.87
                             1976.17  2060.78  2089.84  2119.47  2190.52
                             2211.27  4336.41  4357.65  4365.40  4386.65
                             4404.08  4423.42  4456.35  4472.93  4482.53
                             4542.53

 Zero-point correction=                           0.160669 (Hartree/Particle)
 Thermal correction to Energy=                    0.168048
 Thermal correction to Enthalpy=                  0.168993
 Thermal correction to Gibbs Free Energy=         0.128701
 Sum of electronic and zero-point Energies=           -423.000103
 Sum of electronic and thermal Energies=              -422.992724
 Sum of electronic and thermal Enthalpies=            -422.991780
 Sum of electronic and thermal Free Energies=         -423.032072

                     E (Thermal)             CV                S
                      KCal/Mol        Cal/Mol-Kelvin    Cal/Mol-Kelvin
 Total                  105.452             29.227             84.801
 Electronic               0.000              0.000              0.000
 Translational            0.889              2.981             40.409
 Rotational               0.889              2.981             28.319
 Vibrational            103.675             23.265             16.074
 Vibration     1          0.602              1.954              3.591
 Vibration     2          0.607              1.940              3.236
 Vibration     3          0.679              1.712              1.539
 Vibration     4          0.720              1.594              1.208
 Vibration     5          0.731              1.564              1.141
 Vibration     6          0.749              1.514              1.041
 Vibration     7          0.767              1.468              0.959
 Vibration     8          0.903              1.145              0.550

 Optimization completed.
    -- Stationary point found.
 Normal termination of Gaussian 09 at Mon Jan 27 12:39:19 2020.
