 Gaussian 09, Revision D.01,
 Gaussian 09:  ES64L-G09RevD.01 24-Apr-2013

 -----------------------------
 # b3lyp 6-31G(2df,p) opt Freq
 -----------------------------

 -----
 titel
 -----
 Symbolic Z-matrix:
 Charge =  0 Multiplicity = 1

 SCF Done:  E(RB3LYP) =  -423.160931688     A.U. after   14 cycles
 Optimization completed.
    -- Stationary point found.
 Normal termination of Gaussian 09 at Tue Jan 28 02:51:50 2020.

 ----------------------------------------------------------------------
 #N Geom=AllCheck Guess=TCheck SCRF=Check GenChk RB3LYP/6-31G(2df,p) Fr
 eq
 ----------------------------------------------------------------------

 Structure from the checkpoint file:  "/scratch/puck/g09_5fa0646a-e019-486c-90ce-28a917f63bb3/Gau-40681.chk"
 -----
 titel
 -----
 Charge =  0 Multiplicity = 1

                         Standard orientation:
 ---------------------------------------------------------------------
 Center     Atomic      Atomic             Coordinates (Angstroms)
 Number     Number       Type             X           Y           Z
 ---------------------------------------------------------------------
      1          6           0       -0.874061    1.897077   -0.368474
      2          6           0       -0.863912    0.410069   -0.067669
      3          6           0       -2.206107   -0.242447   -0.175150
      4          8           0       -2.425539   -1.414427    0.019016
      5          6           0       -0.001088   -0.255783    1.000992
      6          6           0        1.360979    0.435679    1.135552
      7          6           0        1.635071    0.143772   -0.380559
      8          8           0        2.730466   -0.698790   -0.648445
      9          6           0        0.259987   -0.542327   -0.464637
     10          1           0       -1.598396    2.415603    0.269610
     11          1           0        0.096509    2.366944   -0.203175
     12          1           0       -1.155754    2.084124   -1.410650
     13          1           0       -3.030416    0.452372   -0.454528
     14          1           0       -0.477460   -0.895308    1.733709
     15          1           0        1.373514    1.474807    1.478472
     16          1           0        2.057699   -0.139226    1.751600
     17          1           0        1.781297    1.015667   -1.023839
     18          1           0        2.613149   -1.512888   -0.145465
     19          1           0        0.035224   -1.432598   -1.040640
 ---------------------------------------------------------------------

 SCF Done:  E(RB3LYP) =  -423.160931688     A.U. after    1 cycles

 The electronic state is 1-A.
 Alpha  occ. eigenvalues --  -19.14435 -19.13710 -10.27022 -10.24342 -10.21484
 Alpha  occ. eigenvalues --  -10.20727 -10.20188 -10.19286 -10.19175  -1.04531
 Alpha  occ. eigenvalues --   -1.02904  -0.90587  -0.76719  -0.70978  -0.66122
 Alpha  occ. eigenvalues --   -0.63523  -0.56856  -0.54060  -0.52649  -0.47646
 Alpha  occ. eigenvalues --   -0.45905  -0.45741  -0.43500  -0.42397  -0.40859
 Alpha  occ. eigenvalues --   -0.39188  -0.39089  -0.37730  -0.37243  -0.32326
 Alpha  occ. eigenvalues --   -0.29503  -0.28094  -0.26469  -0.25070
 Alpha virt. eigenvalues --   -0.02693   0.07557   0.08822   0.10332   0.10714
 Alpha virt. eigenvalues --    0.12312   0.13422   0.14211   0.15187   0.16579
 Alpha virt. eigenvalues --    0.17256   0.18747   0.19610   0.20841   0.22195

 Mulliken charges:
               1
     1  C   -0.493818
     2  C    0.210132
     3  C    0.095952
     4  O   -0.269975
     5  C   -0.075724
     6  C   -0.301842
     7  C    0.137949
     8  O   -0.435238
     9  C   -0.125197
    10  H    0.124666
    11  H    0.133703
    12  H    0.127835
    13  H    0.074461
    14  H    0.107174
    15  H    0.102205
    16  H    0.108201
    17  H    0.090657
    18  H    0.280887
    19  H    0.107971
 Sum of Mulliken charges =   0.00000

 Dipole moment (field-independent basis, Debye):
    X=              0.3680    Y=              1.7006    Z=              0.7410  Tot=              1.8912
 Quadrupole moment (field-independent basis, Debye-Ang):
   XX=            -60.9528   YY=            -52.8555   ZZ=            -52.8281
   XY=             -6.8960   XZ=              3.9087   YZ=             -1.1232

  Exact polarizability:  89.864  -2.235  75.697   3.494  -1.851  64.482
 Approx polarizability: 121.631  -0.450 117.660   1.877  -3.000 101.704

                      1                      2                      3
                      A                      A                      A
 Frequencies --     89.8183               119.7520               161.2297
 Red. masses --      3.3385                 1.6555                 1.8506
 Frc consts  --      0.0159                 0.0140                 0.0283
 IR Inten    --      9.4940                 2.6362                 4.8729

                      4                      5                      6
                      A                      A                      A
 Frequencies --    204.2712               215.1931               281.3402
 Red. masses --      3.1539                 2.6127                 3.1399
 Frc consts  --      0.0775                 0.0713                 0.1464
 IR Inten    --      0.5667                 3.1328                 1.1021

                      7                      8                      9
                      A                      A                      A
 Frequencies --    303.7326               361.4672               408.4824
 Red. masses --      2.0365                 1.3973                 3.3438
 Frc consts  --      0.1107                 0.1076                 0.3287
 IR Inten    --     13.9905                62.9268                 9.7289

                     10                     11                     12
                      A                      A                      A
 Frequencies --    428.1516               491.5776               633.5622
 Red. masses --      3.1541                 2.3727                 4.6095
 Frc consts  --      0.3407                 0.3378                 1.0902
 IR Inten    --      9.6692                 0.9274                11.8461

                     13                     14                     15
                      A                      A                      A
 Frequencies --    683.7616               738.4243               827.9747
 Red. masses --      3.9611                 2.6160                 3.5042
 Frc consts  --      1.0911                 0.8404                 1.4154
 IR Inten    --      0.8465                 3.3125                 7.9494

                     16                     17                     18
                      A                      A                      A
 Frequencies --    853.9551               892.4541               939.1483
 Red. masses --      2.7209                 1.4846                 1.8930
 Frc consts  --      1.1691                 0.6967                 0.9837
 IR Inten    --      1.6266                33.1408                14.5957

                     19                     20                     21
                      A                      A                      A
 Frequencies --    947.9024               983.6647              1017.1864
 Red. masses --      1.6326                 1.8054                 1.7656
 Frc consts  --      0.8643                 1.0292                 1.0763
 IR Inten    --     75.4921                 9.0221                 4.5301

                     22                     23                     24
                      A                      A                      A
 Frequencies --   1025.7977              1040.8224              1061.6875
 Red. masses --      2.1152                 1.6764                 1.7116
 Frc consts  --      1.3114                 1.0700                 1.1367
 IR Inten    --     14.1291                 4.1331                 4.3949

                     25                     26                     27
                      A                      A                      A
 Frequencies --   1116.5022              1121.4209              1129.9061
 Red. masses --      1.8411                 2.4248                 1.5083
 Frc consts  --      1.3522                 1.7967                 1.1345
 IR Inten    --      5.9815                74.8549                 6.3985

                     28                     29                     30
                      A                      A                      A
 Frequencies --   1192.5427              1228.7799              1244.9567
 Red. masses --      1.6339                 1.3982                 1.7265
 Frc consts  --      1.3690                 1.2438                 1.5766
 IR Inten    --     72.2117                 4.6322                12.6754

                     31                     32                     33
                      A                      A                      A
 Frequencies --   1269.8865              1283.9650              1307.5355
 Red. masses --      2.1878                 1.6312                 1.6344
 Frc consts  --      2.0787                 1.5844                 1.6463
 IR Inten    --      1.7217                 8.6450                 3.2705

                     34                     35                     36
                      A                      A                      A
 Frequencies --   1367.7422              1420.6411              1437.4581
 Red. masses --      3.2660                 1.2770                 1.3010
 Frc consts  --      3.5997                 1.5185                 1.5839
 IR Inten    --     32.5699                 7.8009                41.1122

                     37                     38                     39
                      A                      A                      A
 Frequencies --   1442.0055              1481.5923              1498.6349
 Red. masses --      1.2297                 1.1020                 1.0492
 Frc consts  --      1.5065                 1.4252                 1.3883
 IR Inten    --     27.0502                 6.3310                 5.4409

                     40                     41                     42
                      A                      A                      A
 Frequencies --   1501.1318              1807.0720              2873.9366
 Red. masses --      1.0614                10.3896                 1.0829
 Frc consts  --      1.4092                19.9894                 5.2697
 IR Inten    --      9.5231               148.7299               131.1688

                     43                     44                     45
                      A                      A                      A
 Frequencies --   3035.3277              3050.5431              3074.5720
 Red. masses --      1.0404                 1.0602                 1.0863
 Frc consts  --      5.6476                 5.8127                 6.0500
 IR Inten    --     24.6440                34.3894                32.7933

                     46                     47                     48
                      A                      A                      A
 Frequencies --   3090.1515              3105.0286              3136.7947
 Red. masses --      1.1012                 1.1055                 1.0952
 Frc consts  --      6.1955                 6.2794                 6.3490
 IR Inten    --     17.3268                25.6711                14.1937

                     49                     50                     51
                      A                      A                      A
 Frequencies --   3183.0403              3194.3505              3793.5556
 Red. masses --      1.0887                 1.0959                 1.0658
 Frc consts  --      6.4987                 6.5883                 9.0367
 IR Inten    --      9.3491                 4.1068                15.0370

 - Thermochemistry -
 -------------------
 Temperature   298.150 Kelvin.  Pressure   1.00000 Atm.
 Atom     1 has atomic number  6 and mass  12.00000

 Molecular mass:   126.06808 amu.
 Principal axes and moments of inertia in atomic units:
                           1         2         3
     Eigenvalues --   607.012431529.159831755.61964
           X            0.99948  -0.02764   0.01653
           Y            0.02815   0.99912  -0.03113
           Z           -0.01565   0.03158   0.99938
 This molecule is an asymmetric top.
 Rotational symmetry number  1.
 Warning -- assumption of classical behavior for rotation
           may cause significant error
 Rotational temperatures (Kelvin)      0.14269     0.05664     0.04934
 Rotational constants (GHZ):           2.97315     1.18022     1.02798
 Zero-point vibrational energy     413312.4 (Joules/Mol)
                                   98.78402 (Kcal/Mol)
 Warning -- explicit consideration of  11 degrees of freedom as
           vibrations may cause significant error
 Vibrational temperatures:    129.23   172.30   231.97   293.90   309.61
          (Kelvin)            404.79   437.00   520.07   587.71   616.01
                              707.27   911.55   983.78  1062.43  1191.27
                             1228.65  1284.04  1351.22  1363.82  1415.27
                             1463.50  1475.89  1497.51  1527.53  1606.40
                             1613.47  1625.68  1715.80  1767.94  1791.21
                             1827.08  1847.34  1881.25  1967.87  2043.98
                             2068.18  2074.72  2131.68  2156.20  2159.79
                             2599.97  4134.95  4367.15  4389.05  4423.62
                             4446.03  4467.44  4513.14  4579.68  4595.95
                             5458.07

 Zero-point correction=                           0.157422 (Hartree/Particle)
 Thermal correction to Energy=                    0.166449
 Thermal correction to Enthalpy=                  0.167393
 Thermal correction to Gibbs Free Energy=         0.123768
 Sum of electronic and zero-point Energies=           -423.003509
 Sum of electronic and thermal Energies=              -422.994483
 Sum of electronic and thermal Enthalpies=            -422.993539
 Sum of electronic and thermal Free Energies=         -423.037164

                     E (Thermal)             CV                S
                      KCal/Mol        Cal/Mol-Kelvin    Cal/Mol-Kelvin
 Total                  104.448             33.828             91.817
 Electronic               0.000              0.000              0.000
 Translational            0.889              2.981             40.409
 Rotational               0.889              2.981             28.879
 Vibrational            102.671             27.867             22.529
 Vibration     1          0.602              1.956              3.664
 Vibration     2          0.609              1.933              3.104
 Vibration     3          0.622              1.890              2.535
 Vibration     4          0.640              1.834              2.094
 Vibration     5          0.645              1.818              1.999
 Vibration     6          0.681              1.708              1.526
 Vibration     7          0.695              1.667              1.396
 Vibration     8          0.736              1.552              1.116
 Vibration     9          0.773              1.452              0.932
 Vibration    10          0.790              1.409              0.865
 Vibration    11          0.847              1.269              0.680

 Optimization completed.
    -- Stationary point found.
 Normal termination of Gaussian 09 at Tue Jan 28 03:37:12 2020.
