 Gaussian 09, Revision D.01,
 Gaussian 09:  ES64L-G09RevD.01 24-Apr-2013

 -----------------------------
 # b3lyp 6-31G(2df,p) opt Freq
 -----------------------------

 -----
 titel
 -----
 Symbolic Z-matrix:
 Charge =  0 Multiplicity = 1

 SCF Done:  E(RB3LYP) =  -423.112908053     A.U. after   14 cycles
 Optimization completed.
    -- Stationary point found.
 Normal termination of Gaussian 09 at Tue Jan 28 09:48:45 2020.

 ----------------------------------------------------------------------
 #N Geom=AllCheck Guess=TCheck SCRF=Check GenChk RB3LYP/6-31G(2df,p) Fr
 eq
 ----------------------------------------------------------------------

 Structure from the checkpoint file:  "/scratch/puck/g09_8919b583-2a34-4377-b29d-1326c8579da1/Gau-18673.chk"
 -----
 titel
 -----
 Charge =  0 Multiplicity = 1

                         Standard orientation:
 ---------------------------------------------------------------------
 Center     Atomic      Atomic             Coordinates (Angstroms)
 Number     Number       Type             X           Y           Z
 ---------------------------------------------------------------------
      1          6           0       -2.346508   -0.930543    0.106778
      2          8           0       -1.575895   -0.046478   -0.693287
      3          6           0       -0.445190    0.424193   -0.076738
      4          6           0       -0.458546    1.561371    0.919219
      5          6           0        0.304451    1.712511   -0.378482
      6          6           0        1.654655    0.980357   -0.280540
      7          6           0        0.883549   -0.317746    0.034594
      8          6           0        1.267832   -1.525129    0.768226
      9          8           0        1.135087   -1.517838   -0.665536
     10          1           0       -2.616062   -0.469735    1.067169
     11          1           0       -3.256808   -1.152218   -0.454424
     12          1           0       -1.812295   -1.870183    0.297339
     13          1           0       -1.401887    2.097311    0.954753
     14          1           0        0.067160    1.498609    1.869609
     15          1           0        0.057990    2.481533   -1.098562
     16          1           0        2.166724    0.891860   -1.241834
     17          1           0        2.355308    1.345751    0.476940
     18          1           0        2.287380   -1.634479    1.136309
     19          1           0        0.517487   -2.104000    1.304948
 ---------------------------------------------------------------------

 SCF Done:  E(RB3LYP) =  -423.112908053     A.U. after    1 cycles

 The electronic state is 1-A.
 Alpha  occ. eigenvalues --  -19.15100 -19.15022 -10.24218 -10.24053 -10.23032
 Alpha  occ. eigenvalues --  -10.22704 -10.19596 -10.19022 -10.18945  -1.07256
 Alpha  occ. eigenvalues --   -1.04473  -0.89186  -0.72534  -0.69800  -0.66494
 Alpha  occ. eigenvalues --   -0.62531  -0.58568  -0.53390  -0.52007  -0.49870
 Alpha  occ. eigenvalues --   -0.46951  -0.45051  -0.44671  -0.43380  -0.40593
 Alpha  occ. eigenvalues --   -0.39008  -0.38798  -0.35724  -0.33839  -0.31952
 Alpha  occ. eigenvalues --   -0.30182  -0.27413  -0.25678  -0.24027
 Alpha virt. eigenvalues --    0.08100   0.08958   0.10608   0.11115   0.12254
 Alpha virt. eigenvalues --    0.13076   0.14302   0.14354   0.14736   0.16283
 Alpha virt. eigenvalues --    0.16597   0.17874   0.18148   0.20049   0.22145

 Mulliken charges:
               1
     1  C   -0.260216
     2  O   -0.269981
     3  C    0.380125
     4  C   -0.347782
     5  C   -0.147121
     6  C   -0.321995
     7  C    0.379905
     8  C   -0.277141
     9  O   -0.276778
    10  H    0.109825
    11  H    0.130020
    12  H    0.123663
    13  H    0.119627
    14  H    0.105597
    15  H    0.102398
    16  H    0.125194
    17  H    0.100537
    18  H    0.114776
    19  H    0.109347
 Sum of Mulliken charges =   0.00000

 Dipole moment (field-independent basis, Debye):
    X=             -0.2517    Y=              0.6454    Z=              2.1384  Tot=              2.2478
 Quadrupole moment (field-independent basis, Debye-Ang):
   XX=            -50.0045   YY=            -52.9718   ZZ=            -53.9955
   XY=              2.2152   XZ=             -0.0804   YZ=             -3.5587

  Exact polarizability:  81.519   1.209  80.455  -0.696  -3.562  65.399
 Approx polarizability: 107.306   1.265 113.300  -0.368  -2.738 105.630

                      1                      2                      3
                      A                      A                      A
 Frequencies --     54.0187               121.7561               169.6033
 Red. masses --      2.6155                 3.1314                 1.2465
 Frc consts  --      0.0045                 0.0274                 0.0211
 IR Inten    --      3.3114                 0.4843                 0.5936

                      4                      5                      6
                      A                      A                      A
 Frequencies --    208.1843               246.6748               293.9687
 Red. masses --      2.6934                 3.9424                 2.7208
 Frc consts  --      0.0688                 0.1413                 0.1385
 IR Inten    --      0.9958                 2.0757                 3.5087

                      7                      8                      9
                      A                      A                      A
 Frequencies --    378.5304               418.5721               441.9563
 Red. masses --      2.3951                 2.6195                 2.7168
 Frc consts  --      0.2022                 0.2704                 0.3127
 IR Inten    --      1.9413                 2.4531                 0.8050

                     10                     11                     12
                      A                      A                      A
 Frequencies --    514.8809               581.3765               667.4322
 Red. masses --      4.9400                 3.8034                 2.8953
 Frc consts  --      0.7716                 0.7574                 0.7599
 IR Inten    --     14.3048                 0.9100                10.2584

                     13                     14                     15
                      A                      A                      A
 Frequencies --    791.9248               843.6427               848.5067
 Red. masses --      2.4590                 2.0216                 2.4297
 Frc consts  --      0.9086                 0.8477                 1.0306
 IR Inten    --      4.1374                 9.4246                 6.8923

                     16                     17                     18
                      A                      A                      A
 Frequencies --    875.1007               927.9102               946.8480
 Red. masses --      1.7103                 3.2450                 1.6132
 Frc consts  --      0.7717                 1.6462                 0.8521
 IR Inten    --      7.7518                 5.3763                 5.8908

                     19                     20                     21
                      A                      A                      A
 Frequencies --    966.6529              1010.8873              1021.2941
 Red. masses --      5.2942                 1.8928                 1.3589
 Frc consts  --      2.9147                 1.1396                 0.8351
 IR Inten    --     42.3206                10.8938                 0.7459

                     22                     23                     24
                      A                      A                      A
 Frequencies --   1065.3188              1078.7591              1087.4242
 Red. masses --      1.8657                 1.9013                 2.4271
 Frc consts  --      1.2475                 1.3036                 1.6909
 IR Inten    --      9.1782                 2.5720                32.4235

                     25                     26                     27
                      A                      A                      A
 Frequencies --   1124.0065              1132.5266              1159.4696
 Red. masses --      1.2959                 2.0884                 1.4740
 Frc consts  --      0.9646                 1.5782                 1.1675
 IR Inten    --      5.5094                26.6527                 5.4051

                     28                     29                     30
                      A                      A                      A
 Frequencies --   1166.5378              1176.9167              1219.9987
 Red. masses --      1.5049                 1.2913                 1.6369
 Frc consts  --      1.2066                 1.0539                 1.4355
 IR Inten    --      7.4868                 2.0129                 2.6412

                     31                     32                     33
                      A                      A                      A
 Frequencies --   1227.3152              1261.2344              1279.9577
 Red. masses --      1.6592                 1.9717                 2.5549
 Frc consts  --      1.4725                 1.8479                 2.4661
 IR Inten    --      4.9730                16.8271                32.8116

                     34                     35                     36
                      A                      A                      A
 Frequencies --   1373.7931              1437.7650              1468.5170
 Red. masses --      2.5777                 2.1874                 1.1427
 Frc consts  --      2.8663                 2.6641                 1.4519
 IR Inten    --     83.2770                38.0463                 2.2404

                     37                     38                     39
                      A                      A                      A
 Frequencies --   1479.1431              1489.8995              1503.2271
 Red. masses --      1.1312                 1.0715                 1.2357
 Frc consts  --      1.4582                 1.4014                 1.6451
 IR Inten    --      1.3969                 3.6583                27.0574

                     40                     41                     42
                      A                      A                      A
 Frequencies --   1504.6921              1538.2957              2999.1695
 Red. masses --      1.1861                 1.6659                 1.0348
 Frc consts  --      1.5823                 2.3227                 5.4839
 IR Inten    --      1.7333                21.3258                45.6728

                     43                     44                     45
                      A                      A                      A
 Frequencies --   3048.9565              3058.6991              3080.0691
 Red. masses --      1.0604                 1.1033                 1.0503
 Frc consts  --      5.8077                 6.0815                 5.8707
 IR Inten    --     35.9701                39.1027                24.6782

                     46                     47                     48
                      A                      A                      A
 Frequencies --   3103.3669              3112.4398              3123.5534
 Red. masses --      1.0568                 1.1049                 1.0991
 Frc consts  --      5.9964                 6.3064                 6.3180
 IR Inten    --     15.5492                14.2927                29.4266

                     49                     50                     51
                      A                      A                      A
 Frequencies --   3165.8161              3198.2378              3206.6134
 Red. masses --      1.1191                 1.1061                 1.1006
 Frc consts  --      6.6082                 6.6660                 6.6676
 IR Inten    --     23.5062                 3.7768                13.8101

 - Thermochemistry -
 -------------------
 Temperature   298.150 Kelvin.  Pressure   1.00000 Atm.
 Atom     1 has atomic number  6 and mass  12.00000

 Molecular mass:   126.06808 amu.
 Principal axes and moments of inertia in atomic units:
                           1         2         3
     Eigenvalues --   815.10576 999.467411482.20269
           X            0.99346   0.11389  -0.00867
           Y           -0.11407   0.99314  -0.02582
           Z            0.00567   0.02664   0.99963
 This molecule is an asymmetric top.
 Rotational symmetry number  1.
 Warning -- assumption of classical behavior for rotation
           may cause significant error
 Rotational temperatures (Kelvin)      0.10626     0.08666     0.05844
 Rotational constants (GHZ):           2.21412     1.80570     1.21761
 Zero-point vibrational energy     413916.5 (Joules/Mol)
                                   98.92843 (Kcal/Mol)
 Warning -- explicit consideration of  11 degrees of freedom as
           vibrations may cause significant error
 Vibrational temperatures:     77.72   175.18   244.02   299.53   354.91
          (Kelvin)            422.95   544.62   602.23   635.88   740.80
                              836.47   960.28  1139.40  1213.81  1220.81
                             1259.07  1335.05  1362.30  1390.80  1454.44
                             1469.41  1532.75  1552.09  1564.56  1617.19
                             1629.45  1668.22  1678.39  1693.32  1755.30
                             1765.83  1814.63  1841.57  1976.58  2068.62
                             2112.87  2128.15  2143.63  2162.81  2164.91
                             2213.26  4315.13  4386.76  4400.78  4431.53
                             4465.05  4478.10  4494.09  4554.90  4601.55
                             4613.60

 Zero-point correction=                           0.157652 (Hartree/Particle)
 Thermal correction to Energy=                    0.166247
 Thermal correction to Enthalpy=                  0.167191
 Thermal correction to Gibbs Free Energy=         0.124152
 Sum of electronic and zero-point Energies=           -422.955256
 Sum of electronic and thermal Energies=              -422.946661
 Sum of electronic and thermal Enthalpies=            -422.945717
 Sum of electronic and thermal Free Energies=         -422.988757

                     E (Thermal)             CV                S
                      KCal/Mol        Cal/Mol-Kelvin    Cal/Mol-Kelvin
 Total                  104.322             32.394             90.585
 Electronic               0.000              0.000              0.000
 Translational            0.889              2.981             40.409
 Rotational               0.889              2.981             28.581
 Vibrational            102.544             26.432             21.595
 Vibration     1          0.596              1.976              4.665
 Vibration     2          0.609              1.931              3.072
 Vibration     3          0.625              1.880              2.440
 Vibration     4          0.641              1.828              2.060
 Vibration     5          0.661              1.768              1.754
 Vibration     6          0.689              1.685              1.451
 Vibration     7          0.749              1.516              1.045
 Vibration     8          0.781              1.430              0.897
 Vibration     9          0.802              1.379              0.820
 Vibration    10          0.870              1.217              0.622
 Vibration    11          0.938              1.072              0.483

 Optimization completed.
    -- Stationary point found.
 Normal termination of Gaussian 09 at Tue Jan 28 10:31:41 2020.
