 Gaussian 09, Revision D.01,
 Gaussian 09:  ES64L-G09RevD.01 24-Apr-2013

 -----------------------------
 # b3lyp 6-31G(2df,p) opt Freq
 -----------------------------

 -----
 titel
 -----
 Symbolic Z-matrix:
 Charge =  0 Multiplicity = 1

 SCF Done:  E(RB3LYP) =  -423.176763843     A.U. after   14 cycles
 Optimization completed.
    -- Stationary point found.
 Normal termination of Gaussian 09 at Tue Jan 28 13:29:17 2020.

 ----------------------------------------------------------------------
 #N Geom=AllCheck Guess=TCheck SCRF=Check GenChk RB3LYP/6-31G(2df,p) Fr
 eq
 ----------------------------------------------------------------------

 Structure from the checkpoint file:  "/scratch/puck/g09_d6901b31-e8f9-4e93-8b23-4f012fb55fe6/Gau-31142.chk"
 -----
 titel
 -----
 Charge =  0 Multiplicity = 1

                         Standard orientation:
 ---------------------------------------------------------------------
 Center     Atomic      Atomic             Coordinates (Angstroms)
 Number     Number       Type             X           Y           Z
 ---------------------------------------------------------------------
      1          8           0       -2.387767    1.000382   -0.818839
      2          6           0       -2.258961   -0.129639    0.033866
      3          6           0       -0.950359   -0.863982   -0.143393
      4          6           0       -0.245384   -1.466341    1.032074
      5          6           0        0.322273   -0.226117    0.379016
      6          6           0        0.545016    1.194842    0.930114
      7          6           0        1.887927    1.270848    0.129330
      8          6           0        1.609229   -0.154961   -0.390451
      9          8           0        2.179692   -0.912917   -1.125598
     10          1           0       -2.329185    0.693481   -1.729391
     11          1           0       -2.330989    0.264062    1.052976
     12          1           0       -3.098559   -0.829060   -0.103544
     13          1           0       -0.834036   -1.388352   -1.090600
     14          1           0       -0.690557   -1.341480    2.014718
     15          1           0        0.303864   -2.391116    0.890021
     16          1           0       -0.208953    1.915094    0.609208
     17          1           0        0.666640    1.254133    2.013855
     18          1           0        1.931006    2.028605   -0.657727
     19          1           0        2.796916    1.347013    0.732645
 ---------------------------------------------------------------------

 SCF Done:  E(RB3LYP) =  -423.176763843     A.U. after    1 cycles

 The electronic state is 1-A.
 Alpha  occ. eigenvalues --  -19.14251 -19.12830 -10.26123 -10.23845 -10.20597
 Alpha  occ. eigenvalues --  -10.20298 -10.20125 -10.19088 -10.18950  -1.03682
 Alpha  occ. eigenvalues --   -1.02293  -0.88478  -0.81009  -0.70295  -0.63780
 Alpha  occ. eigenvalues --   -0.62153  -0.59482  -0.53216  -0.50245  -0.47927
 Alpha  occ. eigenvalues --   -0.46419  -0.45932  -0.42996  -0.42491  -0.39994
 Alpha  occ. eigenvalues --   -0.38043  -0.37465  -0.36186  -0.34950  -0.33898
 Alpha  occ. eigenvalues --   -0.30743  -0.28822  -0.27168  -0.23659
 Alpha virt. eigenvalues --   -0.01801   0.06566   0.09567   0.10172   0.10859
 Alpha virt. eigenvalues --    0.13054   0.13722   0.15271   0.15948   0.16909
 Alpha virt. eigenvalues --    0.17669   0.18242   0.19402   0.21702   0.22636

 Mulliken charges:
               1
     1  O   -0.413470
     2  C   -0.078375
     3  C   -0.092229
     4  C   -0.352927
     5  C    0.243098
     6  C   -0.335828
     7  C   -0.343807
     8  C    0.340522
     9  O   -0.318666
    10  H    0.284582
    11  H    0.110500
    12  H    0.098238
    13  H    0.100934
    14  H    0.120902
    15  H    0.134398
    16  H    0.132530
    17  H    0.106243
    18  H    0.132570
    19  H    0.130786
 Sum of Mulliken charges =   0.00000

 Dipole moment (field-independent basis, Debye):
    X=             -1.5692    Y=              0.1543    Z=              1.1394  Tot=              1.9454
 Quadrupole moment (field-independent basis, Debye-Ang):
   XX=            -57.9814   YY=            -54.8424   ZZ=            -50.1759
   XY=              7.2300   XZ=              5.4368   YZ=             -1.7376

  Exact polarizability:  85.990   5.306  76.474  -2.816   0.746  70.315
 Approx polarizability: 116.065   2.071 112.971  -7.416   4.026 109.843

                      1                      2                      3
                      A                      A                      A
 Frequencies --     71.2883                91.3180               113.9418
 Red. masses --      3.0465                 6.0055                 2.5211
 Frc consts  --      0.0091                 0.0295                 0.0193
 IR Inten    --      5.5980                 2.2552                 0.7104

                      4                      5                      6
                      A                      A                      A
 Frequencies --    157.6024               240.6239               269.2784
 Red. masses --      2.7804                 3.2057                 2.4302
 Frc consts  --      0.0407                 0.1094                 0.1038
 IR Inten    --      7.7073                 0.8964                11.0599

                      7                      8                      9
                      A                      A                      A
 Frequencies --    309.7252               399.4544               426.6490
 Red. masses --      1.3246                 2.2020                 4.0854
 Frc consts  --      0.0749                 0.2070                 0.4382
 IR Inten    --     98.6266                11.4321                 8.7487

                     10                     11                     12
                      A                      A                      A
 Frequencies --    514.4700               557.0290               609.9971
 Red. masses --      1.9783                 3.2931                 4.2197
 Frc consts  --      0.3085                 0.6020                 0.9251
 IR Inten    --      1.0050                 5.3117                 0.9130

                     13                     14                     15
                      A                      A                      A
 Frequencies --    726.0845               757.7347               771.7474
 Red. masses --      3.9393                 1.5421                 2.1682
 Frc consts  --      1.2236                 0.5217                 0.7609
 IR Inten    --      1.3333                 2.4830                 0.6861

                     16                     17                     18
                      A                      A                      A
 Frequencies --    854.8486               891.8607               925.9663
 Red. masses --      1.7831                 1.6511                 3.1338
 Frc consts  --      0.7677                 0.7738                 1.5831
 IR Inten    --      4.1128                 6.2705                 1.3377

                     19                     20                     21
                      A                      A                      A
 Frequencies --    959.9397              1020.4553              1030.4661
 Red. masses --      1.4167                 2.7180                 2.8511
 Frc consts  --      0.7691                 1.6676                 1.7837
 IR Inten    --     19.9854                29.1843                 1.0257

                     22                     23                     24
                      A                      A                      A
 Frequencies --   1051.8560              1062.7976              1074.7687
 Red. masses --      2.2007                 3.6902                 1.5981
 Frc consts  --      1.4346                 2.4559                 1.0876
 IR Inten    --     49.4511                58.9091                 4.1316

                     25                     26                     27
                      A                      A                      A
 Frequencies --   1089.3175              1119.8168              1125.3656
 Red. masses --      2.1187                 1.2539                 1.5521
 Frc consts  --      1.4812                 0.9264                 1.1581
 IR Inten    --     72.5389                17.8580                 4.9536

                     28                     29                     30
                      A                      A                      A
 Frequencies --   1178.8530              1216.7883              1222.3086
 Red. masses --      1.6528                 1.1443                 1.6386
 Frc consts  --      1.3533                 0.9982                 1.4424
 IR Inten    --     16.8170                 3.8994                13.4757

                     31                     32                     33
                      A                      A                      A
 Frequencies --   1246.5494              1268.9892              1324.4726
 Red. masses --      1.3920                 1.8171                 1.6959
 Frc consts  --      1.2744                 1.7240                 1.7528
 IR Inten    --      7.1004                15.1883                13.8825

                     34                     35                     36
                      A                      A                      A
 Frequencies --   1368.4703              1402.8988              1434.5786
 Red. masses --      1.3152                 1.3961                 1.2779
 Frc consts  --      1.4511                 1.6189                 1.5495
 IR Inten    --     18.8841                28.2697                26.2040

                     37                     38                     39
                      A                      A                      A
 Frequencies --   1440.9119              1479.6535              1490.2891
 Red. masses --      1.2633                 1.4776                 1.1081
 Frc consts  --      1.5454                 1.9061                 1.4500
 IR Inten    --     10.0156                 7.6557                 0.8882

                     40                     41                     42
                      A                      A                      A
 Frequencies --   1501.3531              1874.2394              2982.8823
 Red. masses --      1.1042                12.6729                 1.0703
 Frc consts  --      1.4665                26.2286                 5.6106
 IR Inten    --      0.9128               273.7614                66.9756

                     43                     44                     45
                      A                      A                      A
 Frequencies --   3063.3668              3073.0989              3075.6248
 Red. masses --      1.0584                 1.0809                 1.0709
 Frc consts  --      5.8521                 6.0145                 5.9684
 IR Inten    --     13.4325                 1.4613                36.0703

                     46                     47                     48
                      A                      A                      A
 Frequencies --   3113.0310              3124.4073              3125.1022
 Red. masses --      1.1061                 1.0561                 1.0854
 Frc consts  --      6.3153                 6.0744                 6.2456
 IR Inten    --      1.3709                 9.7216                17.8250

                     49                     50                     51
                      A                      A                      A
 Frequencies --   3134.4591              3214.9992              3815.8270
 Red. masses --      1.1068                 1.1169                 1.0662
 Frc consts  --      6.4067                 6.8020                 9.1471
 IR Inten    --     14.5530                 4.0702                20.7128

 - Thermochemistry -
 -------------------
 Temperature   298.150 Kelvin.  Pressure   1.00000 Atm.
 Atom     1 has atomic number  8 and mass  15.99491

 Molecular mass:   126.06808 amu.
 Principal axes and moments of inertia in atomic units:
                           1         2         3
     Eigenvalues --   703.471731523.717111700.99116
           X            0.99903   0.04234   0.01224
           Y           -0.04218   0.99903  -0.01271
           Z           -0.01276   0.01218   0.99984
 This molecule is an asymmetric top.
 Rotational symmetry number  1.
 Warning -- assumption of classical behavior for rotation
           may cause significant error
 Rotational temperatures (Kelvin)      0.12312     0.05684     0.05092
 Rotational constants (GHZ):           2.56548     1.18443     1.06099
 Zero-point vibrational energy     415089.6 (Joules/Mol)
                                   99.20879 (Kcal/Mol)
 Warning -- explicit consideration of  12 degrees of freedom as
           vibrations may cause significant error
 Vibrational temperatures:    102.57   131.39   163.94   226.75   346.20
          (Kelvin)            387.43   445.62   574.73   613.85   740.21
                              801.44   877.65  1044.67  1090.21  1110.37
                             1229.93  1283.19  1332.26  1381.14  1468.21
                             1482.61  1513.38  1529.13  1546.35  1567.28
                             1611.16  1619.15  1696.10  1750.68  1758.63
                             1793.50  1825.79  1905.62  1968.92  2018.46
                             2064.04  2073.15  2128.89  2144.19  2160.11
                             2696.61  4291.70  4407.50  4421.50  4425.13
                             4478.95  4495.32  4496.32  4509.78  4625.66
                             5490.12

 Zero-point correction=                           0.158099 (Hartree/Particle)
 Thermal correction to Energy=                    0.167177
 Thermal correction to Enthalpy=                  0.168121
 Thermal correction to Gibbs Free Energy=         0.123794
 Sum of electronic and zero-point Energies=           -423.018665
 Sum of electronic and thermal Energies=              -423.009587
 Sum of electronic and thermal Enthalpies=            -423.008643
 Sum of electronic and thermal Free Energies=         -423.052970

                     E (Thermal)             CV                S
                      KCal/Mol        Cal/Mol-Kelvin    Cal/Mol-Kelvin
 Total                  104.905             33.476             93.294
 Electronic               0.000              0.000              0.000
 Translational            0.889              2.981             40.409
 Rotational               0.889              2.981             28.990
 Vibrational            103.128             27.514             23.895
 Vibration     1          0.598              1.968              4.117
 Vibration     2          0.602              1.955              3.632
 Vibration     3          0.607              1.938              3.201
 Vibration     4          0.621              1.894              2.578
 Vibration     5          0.658              1.778              1.798
 Vibration     6          0.674              1.730              1.601
 Vibration     7          0.699              1.655              1.364
 Vibration     8          0.766              1.471              0.965
 Vibration     9          0.788              1.412              0.870
 Vibration    10          0.870              1.218              0.623
 Vibration    11          0.913              1.124              0.530
 Vibration    12          0.969              1.011              0.433

 Normal termination of Gaussian 09 at Tue Jan 28 14:11:13 2020.
