 Gaussian 09, Revision D.01,
 Gaussian 09:  ES64L-G09RevD.01 24-Apr-2013

 -----------------------------
 # b3lyp 6-31G(2df,p) opt Freq
 -----------------------------

 -----
 titel
 -----
 Symbolic Z-matrix:
 Charge =  0 Multiplicity = 1

 SCF Done:  E(RB3LYP) =  -423.165639430     A.U. after   14 cycles
 Optimization completed.
    -- Stationary point found.
 Normal termination of Gaussian 09 at Tue Jan 28 00:44:47 2020.

 ----------------------------------------------------------------------
 #N Geom=AllCheck Guess=TCheck SCRF=Check GenChk RB3LYP/6-31G(2df,p) Fr
 eq
 ----------------------------------------------------------------------

 Structure from the checkpoint file:  "/scratch/puck/g09_8433ea8f-39e0-4cc7-87e6-07834707ff5a/Gau-189848.chk"
 -----
 titel
 -----
 Charge =  0 Multiplicity = 1

                         Standard orientation:
 ---------------------------------------------------------------------
 Center     Atomic      Atomic             Coordinates (Angstroms)
 Number     Number       Type             X           Y           Z
 ---------------------------------------------------------------------
      1          6           0       -2.615387   -1.072060   -0.618471
      2          6           0       -1.912852   -0.156160    0.382933
      3          8           0       -0.617230   -0.684868    0.703698
      4          6           0        0.396819    0.301277    0.513603
      5          6           0       -0.330792    1.494898   -0.047806
      6          6           0       -1.630046    1.235260   -0.120066
      7          6           0        1.468114   -0.248540   -0.409603
      8          6           0        2.685698   -0.873272    0.114799
      9          8           0        2.708075    0.460684   -0.401394
     10          1           0       -2.688101   -2.085310   -0.213648
     11          1           0       -3.628475   -0.711047   -0.825021
     12          1           0       -2.058313   -1.110847   -1.559161
     13          1           0       -2.514141   -0.120380    1.307245
     14          1           0        0.876981    0.542087    1.477004
     15          1           0        0.179562    2.405516   -0.333032
     16          1           0       -2.408542    1.899102   -0.475011
     17          1           0        1.110923   -0.540584   -1.398024
     18          1           0        2.820617   -0.959359    1.192191
     19          1           0        3.213404   -1.614128   -0.483307
 ---------------------------------------------------------------------

 SCF Done:  E(RB3LYP) =  -423.165639430     A.U. after    1 cycles

 The electronic state is 1-A.
 Alpha  occ. eigenvalues --  -19.15151 -19.13730 -10.23802 -10.23771 -10.23506
 Alpha  occ. eigenvalues --  -10.23268 -10.18930 -10.18801 -10.17733  -1.07144
 Alpha  occ. eigenvalues --   -1.03507  -0.79215  -0.77641  -0.70231  -0.66081
 Alpha  occ. eigenvalues --   -0.61544  -0.57622  -0.56618  -0.51917  -0.49068
 Alpha  occ. eigenvalues --   -0.48695  -0.44361  -0.43839  -0.41257  -0.39663
 Alpha  occ. eigenvalues --   -0.38801  -0.37732  -0.37148  -0.34821  -0.32532
 Alpha  occ. eigenvalues --   -0.30429  -0.27712  -0.27333  -0.23793
 Alpha virt. eigenvalues --    0.00982   0.09010   0.10626   0.11666   0.11845
 Alpha virt. eigenvalues --    0.12334   0.13739   0.14741   0.15394   0.16464
 Alpha virt. eigenvalues --    0.16961   0.18114   0.18560   0.20295   0.21769

 Mulliken charges:
               1
     1  C   -0.388629
     2  C    0.091257
     3  O   -0.287742
     4  C    0.047368
     5  C   -0.104340
     6  C   -0.101612
     7  C    0.077816
     8  C   -0.175459
     9  O   -0.238394
    10  H    0.127486
    11  H    0.112532
    12  H    0.118442
    13  H    0.082514
    14  H    0.083693
    15  H    0.120177
    16  H    0.107704
    17  H    0.093167
    18  H    0.117118
    19  H    0.116900
 Sum of Mulliken charges =   0.00000

 Dipole moment (field-independent basis, Debye):
    X=             -1.4104    Y=             -0.1140    Z=             -0.1480  Tot=              1.4228
 Quadrupole moment (field-independent basis, Debye-Ang):
   XX=            -52.1684   YY=            -52.4362   ZZ=            -53.1470
   XY=             -4.9139   XZ=              2.1297   YZ=              0.8970

  Exact polarizability: 102.675  -1.168  70.697   4.108  -1.167  61.057
 Approx polarizability: 140.360   3.272 104.151   5.355  -4.512  92.075

                      1                      2                      3
                      A                      A                      A
 Frequencies --     60.7633                64.8796               165.1098
 Red. masses --      4.2569                 3.6380                 2.8127
 Frc consts  --      0.0093                 0.0090                 0.0452
 IR Inten    --      0.2730                 3.1711                 3.2655

                      4                      5                      6
                      A                      A                      A
 Frequencies --    224.1631               239.2675               307.6675
 Red. masses --      3.4582                 1.0992                 2.9551
 Frc consts  --      0.1024                 0.0371                 0.1648
 IR Inten    --      6.5269                 1.0376                 1.8112

                      7                      8                      9
                      A                      A                      A
 Frequencies --    349.6552               394.7768               478.9942
 Red. masses --      3.2977                 3.7065                 3.3537
 Frc consts  --      0.2375                 0.3403                 0.4533
 IR Inten    --      0.9309                 3.4278                 0.7189

                     10                     11                     12
                      A                      A                      A
 Frequencies --    550.4080               710.9358               772.2135
 Red. masses --      3.0664                 2.3543                 1.7094
 Frc consts  --      0.5473                 0.7011                 0.6006
 IR Inten    --      1.0871                13.2783                18.9123

                     13                     14                     15
                      A                      A                      A
 Frequencies --    802.5169               848.2487               858.6975
 Red. masses --      4.9623                 4.1234                 1.8145
 Frc consts  --      1.8829                 1.7480                 0.7883
 IR Inten    --      5.7869                 0.1919                19.2071

                     16                     17                     18
                      A                      A                      A
 Frequencies --    875.1880               900.1691               932.7556
 Red. masses --      3.3430                 2.2460                 3.3462
 Frc consts  --      1.5086                 1.0723                 1.7153
 IR Inten    --     19.1797                15.0718                30.7658

                     19                     20                     21
                      A                      A                      A
 Frequencies --    962.5174              1015.2744              1023.2788
 Red. masses --      1.2569                 1.8807                 1.8365
 Frc consts  --      0.6860                 1.1422                 1.1330
 IR Inten    --      0.5446                12.5156                 8.7581

                     22                     23                     24
                      A                      A                      A
 Frequencies --   1085.5454              1092.6442              1107.8653
 Red. masses --      1.5578                 1.6023                 2.0601
 Frc consts  --      1.0816                 1.1271                 1.4897
 IR Inten    --     30.1452                 8.5480                56.3673

                     25                     26                     27
                      A                      A                      A
 Frequencies --   1128.5712              1132.4097              1147.6574
 Red. masses --      1.7993                 2.1296                 1.5904
 Frc consts  --      1.3503                 1.6090                 1.2342
 IR Inten    --     16.5666                47.2908                 1.7067

                     28                     29                     30
                      A                      A                      A
 Frequencies --   1160.0868              1176.7123              1279.2998
 Red. masses --      1.4933                 1.6323                 1.4569
 Frc consts  --      1.1841                 1.3316                 1.4048
 IR Inten    --      1.0919                 6.7585                 4.2067

                     31                     32                     33
                      A                      A                      A
 Frequencies --   1287.2514              1309.6146              1336.4572
 Red. masses --      1.2410                 1.3457                 1.5980
 Frc consts  --      1.2116                 1.3598                 1.6817
 IR Inten    --      7.0260                18.5090                 9.3701

                     34                     35                     36
                      A                      A                      A
 Frequencies --   1353.8100              1375.2924              1400.6814
 Red. masses --      1.4879                 1.5520                 1.2584
 Frc consts  --      1.6067                 1.7295                 1.4546
 IR Inten    --      0.9436                22.8522                 4.8975

                     37                     38                     39
                      A                      A                      A
 Frequencies --   1445.4302              1486.2385              1494.8049
 Red. masses --      1.8008                 1.0548                 1.0499
 Frc consts  --      2.2168                 1.3727                 1.3822
 IR Inten    --      1.7909                 2.7897                 1.6156

                     40                     41                     42
                      A                      A                      A
 Frequencies --   1527.1725              1690.1354              2954.0867
 Red. masses --      1.3563                 6.8672                 1.0817
 Frc consts  --      1.8638                11.5577                 5.5616
 IR Inten    --      2.1053                 1.0231                65.1676

                     43                     44                     45
                      A                      A                      A
 Frequencies --   2961.4869              3037.5461              3085.5350
 Red. masses --      1.0827                 1.0345                 1.0499
 Frc consts  --      5.5947                 5.6238                 5.8893
 IR Inten    --     54.4654                18.4117                27.5158

                     46                     47                     48
                      A                      A                      A
 Frequencies --   3106.5496              3111.5426              3121.7360
 Red. masses --      1.0894                 1.1009                 1.1029
 Frc consts  --      6.1941                 6.2796                 6.3325
 IR Inten    --     19.4344                22.7489                23.1042

                     49                     50                     51
                      A                      A                      A
 Frequencies --   3174.3402              3207.4412              3234.1217
 Red. masses --      1.1196                 1.0861                 1.1059
 Frc consts  --      6.6470                 6.5834                 6.8155
 IR Inten    --     25.0424                 2.7551                 6.3329

 - Thermochemistry -
 -------------------
 Temperature   298.150 Kelvin.  Pressure   1.00000 Atm.
 Atom     1 has atomic number  6 and mass  12.00000

 Molecular mass:   126.06808 amu.
 Principal axes and moments of inertia in atomic units:
                           1         2         3
     Eigenvalues --   479.118681741.241291982.54373
           X            0.99989  -0.00414   0.01445
           Y            0.00369   0.99952   0.03082
           Z           -0.01457  -0.03076   0.99942
 This molecule is an asymmetric top.
 Rotational symmetry number  1.
 Warning -- assumption of classical behavior for rotation
           may cause significant error
 Rotational temperatures (Kelvin)      0.18078     0.04974     0.04369
 Rotational constants (GHZ):           3.76679     1.03647     0.91032
 Zero-point vibrational energy     415998.7 (Joules/Mol)
                                   99.42607 (Kcal/Mol)
 Warning -- explicit consideration of  10 degrees of freedom as
           vibrations may cause significant error
 Vibrational temperatures:     87.42    93.35   237.56   322.52   344.25
          (Kelvin)            442.66   503.08   568.00   689.16   791.91
                             1022.88  1111.04  1154.64  1220.44  1235.47
                             1259.20  1295.14  1342.03  1384.85  1460.75
                             1472.27  1561.86  1572.07  1593.97  1623.76
                             1629.28  1651.22  1669.10  1693.02  1840.62
                             1852.07  1884.24  1922.86  1947.83  1978.74
                             2015.27  2079.65  2138.36  2150.69  2197.26
                             2431.72  4250.27  4260.91  4370.35  4439.39
                             4469.63  4476.81  4491.48  4567.16  4614.79
                             4653.17

 Zero-point correction=                           0.158446 (Hartree/Particle)
 Thermal correction to Energy=                    0.166999
 Thermal correction to Enthalpy=                  0.167943
 Thermal correction to Gibbs Free Energy=         0.124480
 Sum of electronic and zero-point Energies=           -423.007194
 Sum of electronic and thermal Energies=              -422.998641
 Sum of electronic and thermal Enthalpies=            -422.997697
 Sum of electronic and thermal Free Energies=         -423.041160

                     E (Thermal)             CV                S
                      KCal/Mol        Cal/Mol-Kelvin    Cal/Mol-Kelvin
 Total                  104.793             31.780             91.475
 Electronic               0.000              0.000              0.000
 Translational            0.889              2.981             40.409
 Rotational               0.889              2.981             28.894
 Vibrational            103.016             25.818             22.173
 Vibration     1          0.597              1.973              4.432
 Vibration     2          0.597              1.971              4.303
 Vibration     3          0.624              1.885              2.490
 Vibration     4          0.649              1.804              1.925
 Vibration     5          0.657              1.780              1.808
 Vibration     6          0.698              1.659              1.375
 Vibration     7          0.727              1.576              1.168
 Vibration     8          0.762              1.481              0.982
 Vibration     9          0.835              1.297              0.713
 Vibration    10          0.906              1.139              0.543

 Normal termination of Gaussian 09 at Tue Jan 28 01:25:05 2020.
