 Gaussian 09, Revision D.01,
 Gaussian 09:  ES64L-G09RevD.01 24-Apr-2013

 -----------------------------
 # b3lyp 6-31G(2df,p) opt Freq
 -----------------------------

 -----
 titel
 -----
 Symbolic Z-matrix:
 Charge =  0 Multiplicity = 1

 SCF Done:  E(RB3LYP) =  -423.159227655     A.U. after   14 cycles
 Optimization completed.
    -- Stationary point found.
 Normal termination of Gaussian 09 at Mon Jan 27 23:05:14 2020.

 ----------------------------------------------------------------------
 #N Geom=AllCheck Guess=TCheck SCRF=Check GenChk RB3LYP/6-31G(2df,p) Fr
 eq
 ----------------------------------------------------------------------

 Structure from the checkpoint file:  "/scratch/puck/g09_62364818-444c-43e1-8a11-bb6e072170b7/Gau-48952.chk"
 -----
 titel
 -----
 Charge =  0 Multiplicity = 1

                         Standard orientation:
 ---------------------------------------------------------------------
 Center     Atomic      Atomic             Coordinates (Angstroms)
 Number     Number       Type             X           Y           Z
 ---------------------------------------------------------------------
      1          6           0        2.256739   -0.604763   -0.895348
      2          6           0        1.099272   -0.083554   -0.078336
      3          6           0        1.065054   -0.203481    1.426014
      4          6           0        0.063105   -0.972987    0.600793
      5          6           0       -1.341093   -0.417873    0.341218
      6          8           0       -2.102126   -1.288365   -0.486892
      7          6           0       -1.122599    0.920284   -0.370400
      8          8           0       -0.363484    1.888754    0.358792
      9          6           0        0.317216    1.099598   -0.628194
     10          1           0        3.079308    0.119139   -0.930827
     11          1           0        2.650633   -1.531642   -0.467791
     12          1           0        1.959413   -0.818689   -1.929200
     13          1           0        1.852952   -0.787628    1.890862
     14          1           0        0.728213    0.653290    1.995403
     15          1           0        0.146388   -2.055241    0.578273
     16          1           0       -1.930498   -0.298857    1.255686
     17          1           0       -1.576115   -1.475200   -1.272965
     18          1           0       -1.923187    1.311274   -0.994883
     19          1           0        0.711602    1.657101   -1.474236
 ---------------------------------------------------------------------

 SCF Done:  E(RB3LYP) =  -423.159227655     A.U. after    1 cycles

 The electronic state is 1-A.
 Alpha  occ. eigenvalues --  -19.15415 -19.14186 -10.23891 -10.23710 -10.23238
 Alpha  occ. eigenvalues --  -10.20258 -10.19014 -10.18736 -10.18474  -1.07654
 Alpha  occ. eigenvalues --   -1.02307  -0.87316  -0.73920  -0.71552  -0.66890
 Alpha  occ. eigenvalues --   -0.61373  -0.58455  -0.55451  -0.52695  -0.48736
 Alpha  occ. eigenvalues --   -0.45702  -0.44793  -0.43747  -0.42107  -0.40739
 Alpha  occ. eigenvalues --   -0.39659  -0.38301  -0.35975  -0.34547  -0.31386
 Alpha  occ. eigenvalues --   -0.29721  -0.29051  -0.25989  -0.25215
 Alpha virt. eigenvalues --    0.06424   0.08154   0.08900   0.11545   0.13248
 Alpha virt. eigenvalues --    0.13436   0.13819   0.15218   0.15961   0.16366
 Alpha virt. eigenvalues --    0.17225   0.18356   0.20135   0.21035   0.21355

 Mulliken charges:
               1
     1  C   -0.494569
     2  C    0.323493
     3  C   -0.334509
     4  C   -0.131711
     5  C    0.082187
     6  O   -0.424659
     7  C   -0.012064
     8  O   -0.253116
     9  C   -0.025757
    10  H    0.124420
    11  H    0.121531
    12  H    0.113469
    13  H    0.106379
    14  H    0.135799
    15  H    0.089336
    16  H    0.103983
    17  H    0.280232
    18  H    0.101301
    19  H    0.094256
 Sum of Mulliken charges =   0.00000

 Dipole moment (field-independent basis, Debye):
    X=              1.5543    Y=             -0.9223    Z=             -1.4797  Tot=              2.3358
 Quadrupole moment (field-independent basis, Debye-Ang):
   XX=            -55.4991   YY=            -56.4741   ZZ=            -50.2235
   XY=             -2.6935   XZ=              0.2139   YZ=             -1.2075

  Exact polarizability:  81.854  -0.586  69.049  -0.292  -1.624  70.429
 Approx polarizability: 114.591   3.574 104.752  -0.851   1.748 107.487

                      1                      2                      3
                      A                      A                      A
 Frequencies --    124.5395               194.2337               208.3032
 Red. masses --      3.6986                 1.0723                 2.7904
 Frc consts  --      0.0338                 0.0238                 0.0713
 IR Inten    --      1.4287                 0.0809                 2.0081

                      4                      5                      6
                      A                      A                      A
 Frequencies --    287.5508               308.6660               334.4270
 Red. masses --      2.5986                 1.2782                 3.0329
 Frc consts  --      0.1266                 0.0718                 0.1999
 IR Inten    --      7.0358                39.9441                21.7701

                      7                      8                      9
                      A                      A                      A
 Frequencies --    370.6709               381.3055               505.7801
 Red. masses --      2.7147                 4.3519                 3.5416
 Frc consts  --      0.2198                 0.3728                 0.5338
 IR Inten    --     24.3146                11.5496                 0.6146

                     10                     11                     12
                      A                      A                      A
 Frequencies --    524.2549               583.2730               722.0723
 Red. masses --      5.4333                 3.5938                 4.6019
 Frc consts  --      0.8798                 0.7203                 1.4137
 IR Inten    --      5.4127                 1.7181                10.8442

                     13                     14                     15
                      A                      A                      A
 Frequencies --    759.2346               811.1576               832.3977
 Red. masses --      3.6121                 1.8871                 2.4813
 Frc consts  --      1.2268                 0.7316                 1.0129
 IR Inten    --      1.0870                11.0306                11.7193

                     16                     17                     18
                      A                      A                      A
 Frequencies --    873.1866               876.8425               936.7145
 Red. masses --      2.1845                 4.7678                 1.9534
 Frc consts  --      0.9813                 2.1598                 1.0098
 IR Inten    --     12.5229                22.0129                 9.8215

                     19                     20                     21
                      A                      A                      A
 Frequencies --    965.3048               987.8463              1029.1500
 Red. masses --      1.5473                 1.7537                 1.8576
 Frc consts  --      0.8495                 1.0083                 1.1592
 IR Inten    --      1.6838                 2.8268                11.6714

                     22                     23                     24
                      A                      A                      A
 Frequencies --   1038.0205              1064.9520              1079.0075
 Red. masses --      1.8314                 3.1714                 1.2623
 Frc consts  --      1.1626                 2.1191                 0.8659
 IR Inten    --     19.0679                34.2722                 3.7069

                     25                     26                     27
                      A                      A                      A
 Frequencies --   1093.9264              1111.9769              1124.1512
 Red. masses --      1.4091                 1.9951                 1.6296
 Frc consts  --      0.9935                 1.4535                 1.2134
 IR Inten    --     12.4747                23.4582                 0.7934

                     28                     29                     30
                      A                      A                      A
 Frequencies --   1133.6011              1237.7765              1245.9022
 Red. masses --      1.5822                 1.5031                 1.6210
 Frc consts  --      1.1979                 1.3568                 1.4825
 IR Inten    --     27.1707                 2.2812                11.2661

                     31                     32                     33
                      A                      A                      A
 Frequencies --   1260.3900              1278.2760              1297.5168
 Red. masses --      1.3906                 1.6196                 1.7746
 Frc consts  --      1.3016                 1.5593                 1.7603
 IR Inten    --      4.9947                 1.6264                 2.9043

                     34                     35                     36
                      A                      A                      A
 Frequencies --   1322.8762              1389.5628              1415.9346
 Red. masses --      2.2452                 1.8206                 1.4888
 Frc consts  --      2.3150                 2.0712                 1.7586
 IR Inten    --      1.4470                13.9893                23.0577

                     37                     38                     39
                      A                      A                      A
 Frequencies --   1422.4100              1424.8290              1481.8444
 Red. masses --      1.7938                 1.4944                 1.4223
 Frc consts  --      2.1383                 1.7875                 1.8401
 IR Inten    --      0.9514                40.9818                 6.4457

                     40                     41                     42
                      A                      A                      A
 Frequencies --   1489.2689              1501.2101              3020.7830
 Red. masses --      1.0467                 1.0689                 1.0369
 Frc consts  --      1.3678                 1.4193                 5.5748
 IR Inten    --      2.8223                 4.7199                35.2732

                     43                     44                     45
                      A                      A                      A
 Frequencies --   3070.6315              3077.1849              3102.1043
 Red. masses --      1.0854                 1.1006                 1.0995
 Frc consts  --      6.0295                 6.1403                 6.2339
 IR Inten    --     26.0145                25.1389                16.1858

                     46                     47                     48
                      A                      A                      A
 Frequencies --   3134.7746              3136.7610              3149.5980
 Red. masses --      1.0571                 1.0862                 1.0948
 Frc consts  --      6.1204                 6.2967                 6.3988
 IR Inten    --     13.7818                24.3211                32.7067

                     49                     50                     51
                      A                      A                      A
 Frequencies --   3158.6095              3232.2894              3794.5611
 Red. masses --      1.0907                 1.1143                 1.0659
 Frc consts  --      6.4110                 6.8593                 9.0428
 IR Inten    --      7.8424                 1.9700                11.4071

 - Thermochemistry -
 -------------------
 Temperature   298.150 Kelvin.  Pressure   1.00000 Atm.
 Atom     1 has atomic number  6 and mass  12.00000

 Molecular mass:   126.06808 amu.
 Principal axes and moments of inertia in atomic units:
                           1         2         3
     Eigenvalues --   759.594941093.668991344.81438
           X            0.99837  -0.05524  -0.01430
           Y            0.05497   0.99832  -0.01854
           Z            0.01530   0.01772   0.99973
 This molecule is an asymmetric top.
 Rotational symmetry number  1.
 Warning -- assumption of classical behavior for rotation
           may cause significant error
 Rotational temperatures (Kelvin)      0.11403     0.07920     0.06441
 Rotational constants (GHZ):           2.37593     1.65017     1.34200
 Zero-point vibrational energy     418140.6 (Joules/Mol)
                                   99.93799 (Kcal/Mol)
 Warning -- explicit consideration of  11 degrees of freedom as
           vibrations may cause significant error
 Vibrational temperatures:    179.18   279.46   299.70   413.72   444.10
          (Kelvin)            481.17   533.31   548.61   727.70   754.28
                              839.20  1038.90  1092.37  1167.07  1197.63
                             1256.32  1261.58  1347.72  1388.86  1421.29
                             1480.72  1493.48  1532.23  1552.45  1573.91
                             1599.88  1617.40  1631.00  1780.88  1792.57
                             1813.42  1839.15  1866.83  1903.32  1999.27
                             2037.21  2046.53  2050.01  2132.04  2142.72
                             2159.90  4346.23  4417.95  4427.38  4463.23
                             4510.24  4513.09  4531.56  4544.53  4650.54
                             5459.52

 Zero-point correction=                           0.159261 (Hartree/Particle)
 Thermal correction to Energy=                    0.167307
 Thermal correction to Enthalpy=                  0.168251
 Thermal correction to Gibbs Free Energy=         0.127160
 Sum of electronic and zero-point Energies=           -422.999966
 Sum of electronic and thermal Energies=              -422.991921
 Sum of electronic and thermal Enthalpies=            -422.990977
 Sum of electronic and thermal Free Energies=         -423.032068

                     E (Thermal)             CV                S
                      KCal/Mol        Cal/Mol-Kelvin    Cal/Mol-Kelvin
 Total                  104.987             32.111             86.483
 Electronic               0.000              0.000              0.000
 Translational            0.889              2.981             40.409
 Rotational               0.889              2.981             28.504
 Vibrational            103.209             26.149             17.571
 Vibration     1          0.610              1.928              3.029
 Vibration     2          0.635              1.848              2.187
 Vibration     3          0.642              1.828              2.058
 Vibration     4          0.685              1.697              1.488
 Vibration     5          0.698              1.657              1.369
 Vibration     6          0.716              1.607              1.239
 Vibration     7          0.743              1.532              1.077
 Vibration     8          0.751              1.510              1.034
 Vibration     9          0.861              1.237              0.644
 Vibration    10          0.879              1.196              0.600
 Vibration    11          0.940              1.068              0.479

 Normal termination of Gaussian 09 at Mon Jan 27 23:56:12 2020.
