 Gaussian 09, Revision D.01,
 Gaussian 09:  ES64L-G09RevD.01 24-Apr-2013

 -----------------------------
 # b3lyp 6-31G(2df,p) opt Freq
 -----------------------------

 -----
 titel
 -----
 Symbolic Z-matrix:
 Charge =  0 Multiplicity = 1

 SCF Done:  E(RB3LYP) =  -423.163208615     A.U. after   14 cycles
 Optimization completed.
    -- Stationary point found.
 Normal termination of Gaussian 09 at Mon Jan 27 16:30:31 2020.

 ----------------------------------------------------------------------
 #N Geom=AllCheck Guess=TCheck SCRF=Check GenChk RB3LYP/6-31G(2df,p) Fr
 eq
 ----------------------------------------------------------------------

 Structure from the checkpoint file:  "/scratch/puck/g09_fd93dc8c-5201-44a4-b59e-7e3a405556b7/Gau-166499.chk"
 -----
 titel
 -----
 Charge =  0 Multiplicity = 1

                         Standard orientation:
 ---------------------------------------------------------------------
 Center     Atomic      Atomic             Coordinates (Angstroms)
 Number     Number       Type             X           Y           Z
 ---------------------------------------------------------------------
      1          6           0        1.547130    1.745556    0.070365
      2          6           0        0.834953    0.405880   -0.007842
      3          6           0       -0.107098   -0.000519    1.144139
      4          6           0       -1.178099   -0.015787    0.061771
      5          6           0       -2.246540   -1.015414   -0.226099
      6          6           0       -2.597208    0.435982    0.087820
      7          8           0       -0.271589    0.428599   -0.960469
      8          6           0        1.789049   -0.690788   -0.461993
      9          8           0        2.197124   -1.584521    0.232108
     10          1           0        2.027196    1.986019   -0.884173
     11          1           0        0.827081    2.535865    0.299468
     12          1           0        2.315137    1.726917    0.850786
     13          1           0        0.137566   -0.958921    1.603615
     14          1           0       -0.235878    0.763261    1.913756
     15          1           0       -2.354563   -1.340000   -1.255411
     16          1           0       -2.459124   -1.776968    0.517254
     17          1           0       -2.933229    1.054740   -0.737373
     18          1           0       -3.050543    0.668750    1.046156
     19          1           0        2.068959   -0.601746   -1.536156
 ---------------------------------------------------------------------

 SCF Done:  E(RB3LYP) =  -423.163208615     A.U. after    1 cycles

 The electronic state is 1-A.
 Alpha  occ. eigenvalues --  -19.14782 -19.14599 -10.27229 -10.25177 -10.24638
 Alpha  occ. eigenvalues --  -10.19305 -10.19201 -10.18793 -10.18692  -1.06026
 Alpha  occ. eigenvalues --   -1.04510  -0.85235  -0.78171  -0.72419  -0.65936
 Alpha  occ. eigenvalues --   -0.60901  -0.56531  -0.52803  -0.50929  -0.49399
 Alpha  occ. eigenvalues --   -0.48325  -0.45322  -0.44259  -0.42260  -0.39695
 Alpha  occ. eigenvalues --   -0.39591  -0.37792  -0.37304  -0.36470  -0.34682
 Alpha  occ. eigenvalues --   -0.31864  -0.29171  -0.26475  -0.23227
 Alpha virt. eigenvalues --   -0.02870   0.07772   0.09605   0.10264   0.11697
 Alpha virt. eigenvalues --    0.12532   0.13491   0.15050   0.15708   0.16280
 Alpha virt. eigenvalues --    0.16654   0.17059   0.19291   0.21176   0.22436

 Mulliken charges:
               1
     1  C   -0.458668
     2  C    0.329939
     3  C   -0.418551
     4  C    0.459340
     5  C   -0.329333
     6  C   -0.334412
     7  O   -0.348258
     8  C    0.125408
     9  O   -0.248082
    10  H    0.130784
    11  H    0.133836
    12  H    0.134194
    13  H    0.134964
    14  H    0.110506
    15  H    0.126620
    16  H    0.119314
    17  H    0.126383
    18  H    0.116751
    19  H    0.089266
 Sum of Mulliken charges =   0.00000

 Dipole moment (field-independent basis, Debye):
    X=             -0.9127    Y=              1.6868    Z=              0.5383  Tot=              1.9920
 Quadrupole moment (field-independent basis, Debye-Ang):
   XX=            -54.0527   YY=            -55.2475   ZZ=            -52.4827
   XY=              5.3803   XZ=             -2.6487   YZ=              1.8532

  Exact polarizability:  87.467  -0.029  74.392  -1.290  -0.581  68.280
 Approx polarizability: 111.874  -5.268 110.046   1.151  -6.182 106.422

                      1                      2                      3
                      A                      A                      A
 Frequencies --     43.4330                77.9557               187.4614
 Red. masses --      5.7526                 3.2498                 2.6657
 Frc consts  --      0.0064                 0.0116                 0.0552
 IR Inten    --      2.6037                 4.7662                 4.8668

                      4                      5                      6
                      A                      A                      A
 Frequencies --    218.5660               246.0287               290.6506
 Red. masses --      1.2043                 1.9897                 2.2295
 Frc consts  --      0.0339                 0.0710                 0.1110
 IR Inten    --      0.1658                 0.7985                 1.0872

                      7                      8                      9
                      A                      A                      A
 Frequencies --    321.5303               333.3895               381.9206
 Red. masses --      2.4806                 3.2125                 2.4097
 Frc consts  --      0.1511                 0.2104                 0.2071
 IR Inten    --      5.8563                 2.8764                 4.0333

                     10                     11                     12
                      A                      A                      A
 Frequencies --    466.5902               498.8141               618.8093
 Red. masses --      3.1355                 3.4413                 4.1533
 Frc consts  --      0.4022                 0.5045                 0.9370
 IR Inten    --      1.4797                 0.6765                 8.1496

                     13                     14                     15
                      A                      A                      A
 Frequencies --    721.0860               756.5250               837.2115
 Red. masses --      3.4119                 1.0478                 1.6014
 Frc consts  --      1.0453                 0.3533                 0.6613
 IR Inten    --     21.7374                 0.9842                 2.2038

                     16                     17                     18
                      A                      A                      A
 Frequencies --    870.8096               892.8768               910.1841
 Red. masses --      1.9656                 3.7509                 2.3780
 Frc consts  --      0.8782                 1.7618                 1.1607
 IR Inten    --     13.0971                 8.6078                13.1062

                     19                     20                     21
                      A                      A                      A
 Frequencies --    920.3645               939.0381               983.1397
 Red. masses --      1.6785                 1.9100                 1.9647
 Frc consts  --      0.8377                 0.9923                 1.1189
 IR Inten    --      9.6995                37.3148                33.5231

                     22                     23                     24
                      A                      A                      A
 Frequencies --    984.6623              1005.0125              1048.9755
 Red. masses --      2.1271                 2.1631                 1.5407
 Frc consts  --      1.2151                 1.2873                 0.9989
 IR Inten    --      5.0620                 5.9185                19.0930

                     25                     26                     27
                      A                      A                      A
 Frequencies --   1070.0690              1116.3598              1141.7002
 Red. masses --      1.4887                 2.3928                 1.7124
 Frc consts  --      1.0043                 1.7570                 1.3151
 IR Inten    --      0.0137                69.9867                 8.1322

                     28                     29                     30
                      A                      A                      A
 Frequencies --   1186.2853              1201.0878              1245.7857
 Red. masses --      1.2699                 1.9107                 2.7219
 Frc consts  --      1.0529                 1.6240                 2.4889
 IR Inten    --      0.1949                 6.7792                21.1142

                     31                     32                     33
                      A                      A                      A
 Frequencies --   1255.1351              1287.5613              1385.3184
 Red. masses --      1.9838                 2.9591                 1.9089
 Frc consts  --      1.8413                 2.8903                 2.1584
 IR Inten    --      2.9620                17.1115                24.8725

                     34                     35                     36
                      A                      A                      A
 Frequencies --   1399.9259              1407.4318              1448.9828
 Red. masses --      1.3311                 1.2216                 1.0905
 Frc consts  --      1.5370                 1.4257                 1.3489
 IR Inten    --      3.3184                 5.9686                 2.1409

                     37                     38                     39
                      A                      A                      A
 Frequencies --   1480.5986              1486.8081              1493.5389
 Red. masses --      1.0602                 1.0941                 1.1084
 Frc consts  --      1.3693                 1.4250                 1.4568
 IR Inten    --      4.6372                 7.1722                 8.7841

                     40                     41                     42
                      A                      A                      A
 Frequencies --   1507.3313              1833.7755              2883.2253
 Red. masses --      1.7729                10.8434                 1.0837
 Frc consts  --      2.3732                21.4836                 5.3076
 IR Inten    --     17.4288               138.5933                92.2657

                     43                     44                     45
                      A                      A                      A
 Frequencies --   3034.3416              3076.6082              3107.1961
 Red. masses --      1.0344                 1.0601                 1.1013
 Frc consts  --      5.6113                 5.9120                 6.2646
 IR Inten    --     12.8582                17.4832                14.5609

                     46                     47                     48
                      A                      A                      A
 Frequencies --   3119.8599              3127.5232              3130.7581
 Red. masses --      1.1021                 1.0514                 1.0573
 Frc consts  --      6.3203                 6.0593                 6.1059
 IR Inten    --     11.4790                12.6919                 4.6538

                     49                     50                     51
                      A                      A                      A
 Frequencies --   3137.6514              3211.3481              3225.4695
 Red. masses --      1.1071                 1.1181                 1.1152
 Frc consts  --      6.4215                 6.7936                 6.8361
 IR Inten    --      5.5892                 0.2498                 8.8011

 - Thermochemistry -
 -------------------
 Temperature   298.150 Kelvin.  Pressure   1.00000 Atm.
 Atom     1 has atomic number  6 and mass  12.00000

 Molecular mass:   126.06808 amu.
 Principal axes and moments of inertia in atomic units:
                           1         2         3
     Eigenvalues --   613.271521447.487271715.21012
           X            0.99891   0.04626  -0.00674
           Y           -0.04607   0.99860   0.02612
           Z            0.00794  -0.02578   0.99964
 This molecule is an asymmetric top.
 Rotational symmetry number  1.
 Warning -- assumption of classical behavior for rotation
           may cause significant error
 Rotational temperatures (Kelvin)      0.14123     0.05984     0.05050
 Rotational constants (GHZ):           2.94281     1.24681     1.05220
 Zero-point vibrational energy     410060.2 (Joules/Mol)
                                   98.00674 (Kcal/Mol)
 Warning -- explicit consideration of  12 degrees of freedom as
           vibrations may cause significant error
 Vibrational temperatures:     62.49   112.16   269.71   314.47   353.98
          (Kelvin)            418.18   462.61   479.67   549.50   671.32
                              717.68   890.33  1037.48  1088.47  1204.56
                             1252.90  1284.65  1309.55  1324.20  1351.06
                             1414.52  1416.71  1445.99  1509.24  1539.59
                             1606.19  1642.65  1706.80  1728.10  1792.41
                             1805.86  1852.51  1993.16  2014.18  2024.98
                             2084.76  2130.25  2139.18  2148.87  2168.71
                             2638.39  4148.31  4365.74  4426.55  4470.56
                             4488.78  4499.80  4504.46  4514.37  4620.41
                             4640.73

 Zero-point correction=                           0.156184 (Hartree/Particle)
 Thermal correction to Energy=                    0.165276
 Thermal correction to Enthalpy=                  0.166220
 Thermal correction to Gibbs Free Energy=         0.121864
 Sum of electronic and zero-point Energies=           -423.007025
 Sum of electronic and thermal Energies=              -422.997933
 Sum of electronic and thermal Enthalpies=            -422.996988
 Sum of electronic and thermal Free Energies=         -423.041344

                     E (Thermal)             CV                S
                      KCal/Mol        Cal/Mol-Kelvin    Cal/Mol-Kelvin
 Total                  103.712             33.890             93.355
 Electronic               0.000              0.000              0.000
 Translational            0.889              2.981             40.409
 Rotational               0.889              2.981             28.811
 Vibrational            101.935             27.928             24.135
 Vibration     1          0.595              1.980              5.096
 Vibration     2          0.599              1.964              3.942
 Vibration     3          0.632              1.857              2.253
 Vibration     4          0.646              1.813              1.971
 Vibration     5          0.660              1.769              1.759
 Vibration     6          0.687              1.691              1.470
 Vibration     7          0.707              1.632              1.302
 Vibration     8          0.715              1.609              1.244
 Vibration     9          0.751              1.509              1.032
 Vibration    10          0.824              1.324              0.747
 Vibration    11          0.854              1.253              0.661
 Vibration    12          0.979              0.992              0.418

 Optimization completed.
    -- Stationary point found.
 Normal termination of Gaussian 09 at Mon Jan 27 17:14:46 2020.
