 Gaussian 09, Revision D.01,
 Gaussian 09:  ES64L-G09RevD.01 24-Apr-2013

 -----------------------------
 # b3lyp 6-31G(2df,p) opt Freq
 -----------------------------

 -----
 titel
 -----
 Symbolic Z-matrix:
 Charge =  0 Multiplicity = 1

 SCF Done:  E(RB3LYP) =  -423.234295053     A.U. after   14 cycles
 Optimization completed.
    -- Stationary point found.
 Normal termination of Gaussian 09 at Mon Jan 27 22:03:46 2020.

 ----------------------------------------------------------------------
 #N Geom=AllCheck Guess=TCheck SCRF=Check GenChk RB3LYP/6-31G(2df,p) Fr
 eq
 ----------------------------------------------------------------------

 Structure from the checkpoint file:  "/scratch/puck/g09_3bd92b9a-5057-4890-9bc4-c54d7f0e9c8a/Gau-192811.chk"
 -----
 titel
 -----
 Charge =  0 Multiplicity = 1

                         Standard orientation:
 ---------------------------------------------------------------------
 Center     Atomic      Atomic             Coordinates (Angstroms)
 Number     Number       Type             X           Y           Z
 ---------------------------------------------------------------------
      1          6           0       -2.800380   -0.230619    0.142673
      2          6           0       -1.386583    0.236465    0.020132
      3          6           0       -0.903671    1.483136   -0.114563
      4          6           0        0.594959    1.553756   -0.269029
      5          6           0        1.066395    0.106759   -0.023391
      6          6           0        1.761345   -0.070557    1.333572
      7          8           0        1.903644   -0.339100   -1.077996
      8          6           0       -0.247684   -0.702966   -0.040018
      9          8           0       -0.280635   -1.912182   -0.136052
     10          1           0       -3.029872   -0.957609   -0.643638
     11          1           0       -2.959675   -0.746852    1.096012
     12          1           0       -3.509284    0.598203    0.074358
     13          1           0       -1.520082    2.377164   -0.135768
     14          1           0        0.872965    1.862356   -1.283298
     15          1           0        1.045363    2.277386    0.419727
     16          1           0        1.942775   -1.133430    1.520818
     17          1           0        2.720665    0.454515    1.324175
     18          1           0        1.150714    0.322811    2.153434
     19          1           0        1.796073   -1.300138   -1.109702
 ---------------------------------------------------------------------

 SCF Done:  E(RB3LYP) =  -423.234295053     A.U. after    1 cycles

 The electronic state is 1-A.
 Alpha  occ. eigenvalues --  -19.13422 -19.13207 -10.25930 -10.24022 -10.21245
 Alpha  occ. eigenvalues --  -10.20136 -10.19522 -10.19037 -10.17904  -1.04577
 Alpha  occ. eigenvalues --   -1.01262  -0.85504  -0.76829  -0.72394  -0.67209
 Alpha  occ. eigenvalues --   -0.64894  -0.56271  -0.53864  -0.48628  -0.47078
 Alpha  occ. eigenvalues --   -0.45363  -0.43238  -0.42716  -0.41969  -0.40401
 Alpha  occ. eigenvalues --   -0.39330  -0.38639  -0.37361  -0.36597  -0.35996
 Alpha  occ. eigenvalues --   -0.33721  -0.27715  -0.26650  -0.23892
 Alpha virt. eigenvalues --   -0.04841   0.05199   0.09271   0.10746   0.11618
 Alpha virt. eigenvalues --    0.13933   0.14437   0.15491   0.16260   0.16515
 Alpha virt. eigenvalues --    0.17673   0.18408   0.19657   0.20089   0.22279

 Mulliken charges:
               1
     1  C   -0.494978
     2  C    0.209274
     3  C   -0.152646
     4  C   -0.313211
     5  C    0.310680
     6  C   -0.430420
     7  O   -0.475826
     8  C    0.282593
     9  O   -0.360427
    10  H    0.147676
    11  H    0.140682
    12  H    0.123415
    13  H    0.109561
    14  H    0.137869
    15  H    0.112200
    16  H    0.127022
    17  H    0.125630
    18  H    0.114777
    19  H    0.286130
 Sum of Mulliken charges =   0.00000

 Dipole moment (field-independent basis, Debye):
    X=             -1.1659    Y=              2.2963    Z=              0.9442  Tot=              2.7430
 Quadrupole moment (field-independent basis, Debye-Ang):
   XX=            -52.0389   YY=            -54.0501   ZZ=            -53.7210
   XY=             -2.4921   XZ=              1.8277   YZ=              0.3538

  Exact polarizability:  87.098   2.423  88.723  -0.479  -0.834  59.136
 Approx polarizability: 112.332   6.765 158.353  -4.226  -0.960  89.372

                      1                      2                      3
                      A                      A                      A
 Frequencies --     56.1945               105.3968               187.5652
 Red. masses --      4.3966                 1.0349                 3.0738
 Frc consts  --      0.0082                 0.0068                 0.0637
 IR Inten    --      1.8683                 0.3312                 2.9012

                      4                      5                      6
                      A                      A                      A
 Frequencies --    229.4261               244.2376               269.3077
 Red. masses --      2.7228                 2.5799                 1.1769
 Frc consts  --      0.0844                 0.0907                 0.0503
 IR Inten    --      2.2678                 0.3208                 2.3574

                      7                      8                      9
                      A                      A                      A
 Frequencies --    292.8064               339.1949               362.1150
 Red. masses --      3.2451                 2.3887                 3.6582
 Frc consts  --      0.1639                 0.1619                 0.2826
 IR Inten    --     20.0193                 1.7934                11.3565

                     10                     11                     12
                      A                      A                      A
 Frequencies --    400.1959               448.8330               543.0303
 Red. masses --      1.6558                 1.5976                 3.9405
 Frc consts  --      0.1562                 0.1896                 0.6846
 IR Inten    --     62.3605                19.7085                 5.1197

                     13                     14                     15
                      A                      A                      A
 Frequencies --    573.9194               671.8024               712.0241
 Red. masses --      3.5553                 4.7097                 5.1871
 Frc consts  --      0.6900                 1.2524                 1.5494
 IR Inten    --      8.9915                 2.2083                 0.5875

                     16                     17                     18
                      A                      A                      A
 Frequencies --    768.3358               862.3377               911.4017
 Red. masses --      3.3169                 1.4988                 2.2982
 Frc consts  --      1.1537                 0.6567                 1.1247
 IR Inten    --      1.2990                 6.8514                 0.8399

                     19                     20                     21
                      A                      A                      A
 Frequencies --    919.8942               952.0851               978.5633
 Red. masses --      2.1575                 2.0075                 1.8302
 Frc consts  --      1.0756                 1.0721                 1.0326
 IR Inten    --     13.5589                22.8290                17.9766

                     22                     23                     24
                      A                      A                      A
 Frequencies --   1008.3439              1047.3110              1068.7954
 Red. masses --      2.1871                 1.6212                 1.5545
 Frc consts  --      1.3102                 1.0477                 1.0462
 IR Inten    --     27.7577                27.5471                 1.3687

                     25                     26                     27
                      A                      A                      A
 Frequencies --   1101.6996              1125.8024              1178.1399
 Red. masses --      2.0135                 1.8518                 2.3073
 Frc consts  --      1.4399                 1.3829                 1.8869
 IR Inten    --      7.7362                23.8641                26.2930

                     28                     29                     30
                      A                      A                      A
 Frequencies --   1231.5170              1254.1301              1327.8114
 Red. masses --      1.7715                 1.9941                 2.0176
 Frc consts  --      1.5829                 1.8479                 2.0958
 IR Inten    --     55.9169                 3.8199                24.7366

                     31                     32                     33
                      A                      A                      A
 Frequencies --   1355.9504              1391.6660              1395.9944
 Red. masses --      2.6405                 1.5236                 1.2422
 Frc consts  --      2.8604                 1.7386                 1.4263
 IR Inten    --     14.1066                51.2289                 5.9514

                     34                     35                     36
                      A                      A                      A
 Frequencies --   1414.7929              1471.4766              1473.9745
 Red. masses --      1.3053                 1.0936                 1.0432
 Frc consts  --      1.5394                 1.3951                 1.3353
 IR Inten    --      3.9467                 4.8228                 6.0378

                     37                     38                     39
                      A                      A                      A
 Frequencies --   1486.2196              1488.7947              1494.8515
 Red. masses --      1.0593                 1.0846                 1.0586
 Frc consts  --      1.3786                 1.4165                 1.3937
 IR Inten    --      6.9196                 9.2956                 1.3181

                     40                     41                     42
                      A                      A                      A
 Frequencies --   1689.3690              1798.1930              3032.5292
 Red. masses --      6.8815                12.4946                 1.0350
 Frc consts  --     11.5713                23.8037                 5.6082
 IR Inten    --     12.4819               205.4170                13.4592

                     43                     44                     45
                      A                      A                      A
 Frequencies --   3036.5288              3039.1158              3073.6661
 Red. masses --      1.0363                 1.0585                 1.1027
 Frc consts  --      5.6299                 5.7601                 6.1381
 IR Inten    --     15.9450                19.8284                 9.9437

                     46                     47                     48
                      A                      A                      A
 Frequencies --   3091.1151              3107.0626              3119.0218
 Red. masses --      1.0984                 1.1012                 1.1031
 Frc consts  --      6.1834                 6.2632                 6.3225
 IR Inten    --      9.3457                20.9419                12.7628

                     49                     50                     51
                      A                      A                      A
 Frequencies --   3122.4272              3178.5608              3745.9334
 Red. masses --      1.1021                 1.0934                 1.0654
 Frc consts  --      6.3310                 6.5084                 8.8079
 IR Inten    --     13.1671                13.4896                26.5737

 - Thermochemistry -
 -------------------
 Temperature   298.150 Kelvin.  Pressure   1.00000 Atm.
 Atom     1 has atomic number  6 and mass  12.00000

 Molecular mass:   126.06808 amu.
 Principal axes and moments of inertia in atomic units:
                           1         2         3
     Eigenvalues --   705.020891240.984171554.41642
           X            0.99978   0.00315   0.02069
           Y           -0.00297   0.99996  -0.00888
           Z           -0.02071   0.00882   0.99975
 This molecule is an asymmetric top.
 Rotational symmetry number  1.
 Warning -- assumption of classical behavior for rotation
           may cause significant error
 Rotational temperatures (Kelvin)      0.12285     0.06979     0.05572
 Rotational constants (GHZ):           2.55984     1.45428     1.16104
 Zero-point vibrational energy     413785.1 (Joules/Mol)
                                   98.89700 (Kcal/Mol)
 Warning -- explicit consideration of  13 degrees of freedom as
           vibrations may cause significant error
 Vibrational temperatures:     80.85   151.64   269.86   330.09   351.40
          (Kelvin)            387.47   421.28   488.03   521.00   575.79
                              645.77   781.30   825.74   966.57  1024.44
                             1105.46  1240.71  1311.30  1323.52  1369.84
                             1407.93  1450.78  1506.85  1537.76  1585.10
                             1619.78  1695.08  1771.88  1804.41  1910.42
                             1950.91  2002.29  2008.52  2035.57  2117.12
                             2120.72  2138.34  2142.04  2150.76  2430.62
                             2587.20  4363.13  4368.88  4372.60  4422.31
                             4447.42  4470.36  4487.57  4492.47  4573.23
                             5389.56

 Zero-point correction=                           0.157602 (Hartree/Particle)
 Thermal correction to Energy=                    0.166954
 Thermal correction to Enthalpy=                  0.167899
 Thermal correction to Gibbs Free Energy=         0.123565
 Sum of electronic and zero-point Energies=           -423.076693
 Sum of electronic and thermal Energies=              -423.067341
 Sum of electronic and thermal Enthalpies=            -423.066396
 Sum of electronic and thermal Free Energies=         -423.110730

                     E (Thermal)             CV                S
                      KCal/Mol        Cal/Mol-Kelvin    Cal/Mol-Kelvin
 Total                  104.765             34.843             93.308
 Electronic               0.000              0.000              0.000
 Translational            0.889              2.981             40.409
 Rotational               0.889              2.981             28.699
 Vibrational            102.988             28.881             24.200
 Vibration     1          0.596              1.975              4.587
 Vibration     2          0.605              1.945              3.352
 Vibration     3          0.632              1.857              2.252
 Vibration     4          0.652              1.796              1.883
 Vibration     5          0.660              1.772              1.772
 Vibration     6          0.674              1.730              1.601
 Vibration     7          0.688              1.687              1.458
 Vibration     8          0.719              1.597              1.216
 Vibration     9          0.736              1.550              1.113
 Vibration    10          0.766              1.470              0.962
 Vibration    11          0.808              1.363              0.799
 Vibration    12          0.898              1.155              0.559
 Vibration    13          0.930              1.088              0.497

 Optimization completed.
    -- Stationary point found.
 Normal termination of Gaussian 09 at Mon Jan 27 22:49:16 2020.
