 Gaussian 09, Revision D.01,
 Gaussian 09:  ES64L-G09RevD.01 24-Apr-2013

 -----------------------------
 # b3lyp 6-31G(2df,p) opt Freq
 -----------------------------

 -----
 titel
 -----
 Symbolic Z-matrix:
 Charge =  0 Multiplicity = 1

 SCF Done:  E(RB3LYP) =  -423.224058014     A.U. after   14 cycles
 Optimization completed.
    -- Stationary point found.
 Normal termination of Gaussian 09 at Tue Jan 28 00:03:28 2020.

 ----------------------------------------------------------------------
 #N Geom=AllCheck Guess=TCheck SCRF=Check GenChk RB3LYP/6-31G(2df,p) Fr
 eq
 ----------------------------------------------------------------------

 Structure from the checkpoint file:  "/scratch/puck/g09_0a39458e-76d2-42e9-ac6e-0d593e5afde3/Gau-188099.chk"
 -----
 titel
 -----
 Charge =  0 Multiplicity = 1

                         Standard orientation:
 ---------------------------------------------------------------------
 Center     Atomic      Atomic             Coordinates (Angstroms)
 Number     Number       Type             X           Y           Z
 ---------------------------------------------------------------------
      1          6           0       -2.905972   -0.576387   -0.420671
      2          6           0       -1.504393   -0.247782    0.005935
      3          6           0       -0.496982   -1.122686   -0.021164
      4          6           0        0.878233   -0.738613    0.476576
      5          8           0        1.864447   -1.665414    0.121386
      6          6           0        1.214724    0.647594   -0.076847
      7          8           0        2.297679    0.843718   -0.583401
      8          6           0        0.120083    1.694574   -0.002253
      9          6           0       -1.223149    1.151135    0.523679
     10          1           0       -3.615927   -0.420087    0.402095
     11          1           0       -3.233867    0.075447   -1.240750
     12          1           0       -2.994000   -1.614177   -0.751980
     13          1           0       -0.610608   -2.142824   -0.373895
     14          1           0        0.842444   -0.627838    1.580318
     15          1           0        2.570169   -1.136828   -0.286166
     16          1           0        0.485122    2.530421    0.605301
     17          1           0        0.003208    2.088710   -1.017881
     18          1           0       -1.211385    1.135096    1.623054
     19          1           0       -2.027424    1.838634    0.244494
 ---------------------------------------------------------------------

 SCF Done:  E(RB3LYP) =  -423.224058014     A.U. after    1 cycles

 The electronic state is 1-A.
 Alpha  occ. eigenvalues --  -19.14435 -19.12835 -10.27701 -10.24027 -10.20467
 Alpha  occ. eigenvalues --  -10.20215 -10.19780 -10.18865 -10.18235  -1.06081
 Alpha  occ. eigenvalues --   -1.01102  -0.84509  -0.76473  -0.74051  -0.67665
 Alpha  occ. eigenvalues --   -0.63534  -0.57578  -0.51267  -0.49721  -0.48666
 Alpha  occ. eigenvalues --   -0.47859  -0.44432  -0.43266  -0.42677  -0.41879
 Alpha  occ. eigenvalues --   -0.39765  -0.38406  -0.37296  -0.36454  -0.34462
 Alpha  occ. eigenvalues --   -0.32915  -0.27084  -0.26970  -0.23719
 Alpha virt. eigenvalues --   -0.02317   0.01516   0.07863   0.10226   0.11948
 Alpha virt. eigenvalues --    0.12731   0.14078   0.14951   0.16221   0.16439
 Alpha virt. eigenvalues --    0.17477   0.18769   0.19766   0.21695   0.22676

 Mulliken charges:
               1
     1  C   -0.484069
     2  C    0.329883
     3  C   -0.208201
     4  C    0.013349
     5  O   -0.441330
     6  C    0.369902
     7  O   -0.336287
     8  C   -0.307455
     9  C   -0.321493
    10  H    0.127028
    11  H    0.125651
    12  H    0.127417
    13  H    0.104274
    14  H    0.098069
    15  H    0.291846
    16  H    0.135826
    17  H    0.145243
    18  H    0.120616
    19  H    0.109734
 Sum of Mulliken charges =   0.00000

 Dipole moment (field-independent basis, Debye):
    X=             -2.9037    Y=              1.5855    Z=              0.7060  Tot=              3.3828
 Quadrupole moment (field-independent basis, Debye-Ang):
   XX=            -56.3613   YY=            -54.7680   ZZ=            -52.6054
   XY=             -0.0900   XZ=              1.6556   YZ=              1.9548

  Exact polarizability:  96.332  -4.343  79.251  -0.839   1.546  58.077
 Approx polarizability: 135.998 -11.716 117.488  -5.595   0.921  92.289

                      1                      2                      3
                      A                      A                      A
 Frequencies --     67.1915               123.8344               173.5484
 Red. masses --      4.8383                 1.9462                 2.1399
 Frc consts  --      0.0129                 0.0176                 0.0380
 IR Inten    --      0.4045                 1.7781                 0.5161

                      4                      5                      6
                      A                      A                      A
 Frequencies --    211.2833               286.6263               331.2177
 Red. masses --      1.3110                 3.2212                 3.3044
 Frc consts  --      0.0345                 0.1559                 0.2136
 IR Inten    --      0.6769                 7.2235                 7.7627

                      7                      8                      9
                      A                      A                      A
 Frequencies --    367.6002               413.0141               441.6494
 Red. masses --      3.4841                 3.5717                 1.6707
 Frc consts  --      0.2774                 0.3590                 0.1920
 IR Inten    --      6.0480                11.6705                23.2547

                     10                     11                     12
                      A                      A                      A
 Frequencies --    469.3779               502.3290               556.8928
 Red. masses --      2.8393                 2.0384                 3.8239
 Frc consts  --      0.3686                 0.3031                 0.6987
 IR Inten    --      9.1998                29.8196                 3.5978

                     13                     14                     15
                      A                      A                      A
 Frequencies --    610.0527               649.1399               769.8954
 Red. masses --      4.1388                 2.0197                 2.7398
 Frc consts  --      0.9075                 0.5014                 0.9568
 IR Inten    --      6.2796                 0.0689                 5.7685

                     16                     17                     18
                      A                      A                      A
 Frequencies --    776.2103               868.5186               908.1113
 Red. masses --      2.1165                 1.7067                 1.9472
 Frc consts  --      0.7513                 0.7585                 0.9461
 IR Inten    --      3.9910                12.8771                 6.0588

                     19                     20                     21
                      A                      A                      A
 Frequencies --    977.8147              1020.9164              1030.4356
 Red. masses --      2.2220                 2.0812                 1.7074
 Frc consts  --      1.2517                 1.2780                 1.0681
 IR Inten    --      3.3178                 7.1215                10.9798

                     22                     23                     24
                      A                      A                      A
 Frequencies --   1062.7031              1069.0510              1115.2144
 Red. masses --      2.0675                 2.5391                 1.8772
 Frc consts  --      1.3757                 1.7097                 1.3756
 IR Inten    --      8.1153                15.3648                49.2040

                     25                     26                     27
                      A                      A                      A
 Frequencies --   1155.8359              1168.1560              1208.1176
 Red. masses --      1.7626                 2.2944                 1.8951
 Frc consts  --      1.3874                 1.8447                 1.6297
 IR Inten    --     20.5339                78.2477                 4.6717

                     28                     29                     30
                      A                      A                      A
 Frequencies --   1223.3492              1261.8117              1307.1252
 Red. masses --      1.3292                 1.5146                 1.3343
 Frc consts  --      1.1721                 1.4208                 1.3432
 IR Inten    --     20.3410                 3.6040                 4.7433

                     31                     32                     33
                      A                      A                      A
 Frequencies --   1321.7303              1356.2565              1374.0715
 Red. masses --      1.3467                 1.7438                 1.7629
 Frc consts  --      1.3861                 1.8899                 1.9611
 IR Inten    --      1.6028                12.9169                 4.5145

                     34                     35                     36
                      A                      A                      A
 Frequencies --   1413.7444              1427.4795              1444.1999
 Red. masses --      1.2611                 1.3403                 1.0803
 Frc consts  --      1.4850                 1.6092                 1.3275
 IR Inten    --      0.3781                98.6579                 9.7824

                     37                     38                     39
                      A                      A                      A
 Frequencies --   1477.9982              1486.2413              1488.1718
 Red. masses --      1.0497                 1.0799                 1.0596
 Frc consts  --      1.3510                 1.4055                 1.3826
 IR Inten    --      7.8485                 4.9033                 5.5068

                     40                     41                     42
                      A                      A                      A
 Frequencies --   1726.6343              1801.4496              2883.0079
 Red. masses --      7.2942                12.1317                 1.0779
 Frc consts  --     12.8124                23.1961                 5.2785
 IR Inten    --      3.8637               183.8152                35.2565

                     43                     44                     45
                      A                      A                      A
 Frequencies --   3005.4279              3014.7030              3046.1521
 Red. masses --      1.0689                 1.0400                 1.0612
 Frc consts  --      5.6887                 5.5687                 5.8016
 IR Inten    --     18.2915                31.7478                11.3937

                     46                     47                     48
                      A                      A                      A
 Frequencies --   3059.7967              3074.1954              3086.6436
 Red. masses --      1.0986                 1.0913                 1.1007
 Frc consts  --      6.0601                 6.0764                 6.1785
 IR Inten    --     19.2168                18.2980                10.6491

                     49                     50                     51
                      A                      A                      A
 Frequencies --   3115.5085              3184.4974              3675.0380
 Red. masses --      1.0986                 1.0918                 1.0645
 Frc consts  --      6.2830                 6.5234                 8.4706
 IR Inten    --     18.3811                 6.9606                67.1645

 - Thermochemistry -
 -------------------
 Temperature   298.150 Kelvin.  Pressure   1.00000 Atm.
 Atom     1 has atomic number  6 and mass  12.00000

 Molecular mass:   126.06808 amu.
 Principal axes and moments of inertia in atomic units:
                           1         2         3
     Eigenvalues --   661.426601375.548351873.01752
           X            0.99995  -0.00054   0.00993
           Y            0.00034   0.99980   0.01987
           Z           -0.00994  -0.01987   0.99975
 This molecule is an asymmetric top.
 Rotational symmetry number  1.
 Warning -- assumption of classical behavior for rotation
           may cause significant error
 Rotational temperatures (Kelvin)      0.13095     0.06297     0.04624
 Rotational constants (GHZ):           2.72856     1.31202     0.96355
 Zero-point vibrational energy     416240.5 (Joules/Mol)
                                   99.48386 (Kcal/Mol)
 Warning -- explicit consideration of  13 degrees of freedom as
           vibrations may cause significant error
 Vibrational temperatures:     96.67   178.17   249.70   303.99   412.39
          (Kelvin)            476.55   528.89   594.23   635.43   675.33
                              722.74   801.24   877.73   933.97  1107.71
                             1116.79  1249.60  1306.57  1406.86  1468.87
                             1482.57  1528.99  1538.12  1604.54  1662.99
                             1680.71  1738.21  1760.12  1815.46  1880.66
                             1901.67  1951.35  1976.98  2034.06  2053.82
                             2077.88  2126.51  2138.37  2141.14  2484.24
                             2591.88  4148.00  4324.14  4337.48  4382.73
                             4402.36  4423.08  4440.99  4482.52  4581.78
                             5287.55

 Zero-point correction=                           0.158538 (Hartree/Particle)
 Thermal correction to Energy=                    0.167315
 Thermal correction to Enthalpy=                  0.168259
 Thermal correction to Gibbs Free Energy=         0.125043
 Sum of electronic and zero-point Energies=           -423.065520
 Sum of electronic and thermal Energies=              -423.056743
 Sum of electronic and thermal Enthalpies=            -423.055799
 Sum of electronic and thermal Free Energies=         -423.099015

                     E (Thermal)             CV                S
                      KCal/Mol        Cal/Mol-Kelvin    Cal/Mol-Kelvin
 Total                  104.992             33.401             90.957
 Electronic               0.000              0.000              0.000
 Translational            0.889              2.981             40.409
 Rotational               0.889              2.981             28.923
 Vibrational            103.214             27.440             21.625
 Vibration     1          0.598              1.970              4.234
 Vibration     2          0.610              1.929              3.040
 Vibration     3          0.627              1.875              2.397
 Vibration     4          0.643              1.824              2.033
 Vibration     5          0.684              1.699              1.494
 Vibration     6          0.714              1.613              1.254
 Vibration     7          0.740              1.539              1.090
 Vibration     8          0.777              1.442              0.916
 Vibration     9          0.801              1.379              0.821
 Vibration    10          0.826              1.318              0.739
 Vibration    11          0.858              1.245              0.652
 Vibration    12          0.912              1.125              0.530
 Vibration    13          0.969              1.011              0.433

 Optimization completed.
    -- Stationary point found.
 Normal termination of Gaussian 09 at Tue Jan 28 00:48:17 2020.
