 Gaussian 09, Revision D.01,
 Gaussian 09:  ES64L-G09RevD.01 24-Apr-2013

 -----------------------------
 # b3lyp 6-31G(2df,p) opt Freq
 -----------------------------

 -----
 titel
 -----
 Symbolic Z-matrix:
 Charge =  0 Multiplicity = 1

 SCF Done:  E(RB3LYP) =  -423.082564304     A.U. after   14 cycles
 Optimization completed.
    -- Stationary point found.
 Normal termination of Gaussian 09 at Tue Jan 28 14:10:05 2020.

 ----------------------------------------------------------------------
 #N Geom=AllCheck Guess=TCheck SCRF=Check GenChk RB3LYP/6-31G(2df,p) Fr
 eq
 ----------------------------------------------------------------------

 Structure from the checkpoint file:  "/scratch/puck/g09_2d75db00-097b-427e-b12b-cc788d91664d/Gau-147384.chk"
 -----
 titel
 -----
 Charge =  0 Multiplicity = 1

                         Standard orientation:
 ---------------------------------------------------------------------
 Center     Atomic      Atomic             Coordinates (Angstroms)
 Number     Number       Type             X           Y           Z
 ---------------------------------------------------------------------
      1          6           0        3.654962   -0.225903    0.012764
      2          8           0        2.289886   -0.547357   -0.094133
      3          6           0        1.463724    0.596029   -0.169102
      4          6           0        0.035816    0.151598   -0.354182
      5          6           0       -1.032496    1.073094    0.180579
      6          6           0       -2.466009    0.529446   -0.128650
      7          8           0       -2.368344   -0.693904   -0.871414
      8          6           0       -2.168433   -0.725948    0.550205
      9          6           0       -0.721941   -0.240182    0.887612
     10          1           0        3.869192    0.360650    0.921126
     11          1           0        4.210050   -1.165869    0.061903
     12          1           0        4.010555    0.351400   -0.856019
     13          1           0        1.567595    1.204553    0.746892
     14          1           0        1.771118    1.234471   -1.015372
     15          1           0       -0.156945   -0.392375   -1.271006
     16          1           0       -0.834562    2.082560    0.517054
     17          1           0       -3.377743    1.105940   -0.226674
     18          1           0       -2.785333   -1.403289    1.127852
     19          1           0       -0.240003   -0.396755    1.843265
 ---------------------------------------------------------------------

 SCF Done:  E(RB3LYP) =  -423.082564304     A.U. after    1 cycles

 The electronic state is 1-A.
 Alpha  occ. eigenvalues --  -19.15231 -19.13687 -10.23904 -10.23833 -10.22982
 Alpha  occ. eigenvalues --  -10.22233 -10.19640 -10.19374 -10.19200  -1.07794
 Alpha  occ. eigenvalues --   -1.03067  -0.87328  -0.74003  -0.67812  -0.65079
 Alpha  occ. eigenvalues --   -0.63150  -0.55982  -0.54613  -0.53444  -0.49033
 Alpha  occ. eigenvalues --   -0.47646  -0.46444  -0.45501  -0.42517  -0.39676
 Alpha  occ. eigenvalues --   -0.39037  -0.36844  -0.34739  -0.34383  -0.31644
 Alpha  occ. eigenvalues --   -0.29405  -0.26589  -0.25224  -0.23189
 Alpha virt. eigenvalues --    0.05858   0.08937   0.09925   0.10713   0.12489
 Alpha virt. eigenvalues --    0.13891   0.14684   0.15342   0.16169   0.16341
 Alpha virt. eigenvalues --    0.17376   0.18498   0.19127   0.19229   0.21399

 Mulliken charges:
               1
     1  C   -0.223363
     2  O   -0.230875
     3  C   -0.102326
     4  C   -0.024339
     5  C   -0.123113
     6  C    0.005395
     7  O   -0.238015
     8  C    0.008124
     9  C   -0.091435
    10  H    0.100173
    11  H    0.127253
    12  H    0.102469
    13  H    0.078211
    14  H    0.089640
    15  H    0.118466
    16  H    0.090568
    17  H    0.108847
    18  H    0.109190
    19  H    0.095130
 Sum of Mulliken charges =   0.00000

 Dipole moment (field-independent basis, Debye):
    X=              0.5177    Y=              1.7835    Z=              1.5747  Tot=              2.4349
 Quadrupole moment (field-independent basis, Debye-Ang):
   XX=            -47.9187   YY=            -52.7350   ZZ=            -53.5576
   XY=             -0.5186   XZ=             -3.3158   YZ=             -1.8728

  Exact polarizability:  95.215  -0.398  68.713  -0.400  -3.006  63.617
 Approx polarizability: 112.043  -1.378 110.980   1.640  -3.805 102.896

                      1                      2                      3
                      A                      A                      A
 Frequencies --     69.4975                93.4563               112.6172
 Red. masses --      3.1022                 2.2648                 4.0627
 Frc consts  --      0.0088                 0.0117                 0.0304
 IR Inten    --      0.9479                 3.2068                 0.3816

                      4                      5                      6
                      A                      A                      A
 Frequencies --    222.3400               258.1522               307.5290
 Red. masses --      1.5128                 2.1187                 3.4423
 Frc consts  --      0.0441                 0.0832                 0.1918
 IR Inten    --      2.4551                 3.5512                 0.5297

                      7                      8                      9
                      A                      A                      A
 Frequencies --    360.8705               410.9073               501.3170
 Red. masses --      3.8275                 2.8049                 4.3768
 Frc consts  --      0.2937                 0.2790                 0.6481
 IR Inten    --      1.0627                 4.7203                12.3342

                     10                     11                     12
                      A                      A                      A
 Frequencies --    627.6900               761.7636               765.7778
 Red. masses --      3.4680                 3.3584                 6.5833
 Frc consts  --      0.8050                 1.1482                 2.2746
 IR Inten    --      2.7522                 1.6077                 0.1979

                     13                     14                     15
                      A                      A                      A
 Frequencies --    785.6523               832.9548               861.3065
 Red. masses --      1.6371                 2.2213                 2.0068
 Frc consts  --      0.5954                 0.9080                 0.8772
 IR Inten    --      1.5904                 8.2967                24.5292

                     16                     17                     18
                      A                      A                      A
 Frequencies --    870.1413               932.0328               952.9317
 Red. masses --      1.9924                 2.2370                 2.6595
 Frc consts  --      0.8888                 1.1449                 1.4229
 IR Inten    --     17.9825                 8.8862                 7.2037

                     19                     20                     21
                      A                      A                      A
 Frequencies --    991.4524               992.1592              1018.6745
 Red. masses --      2.6656                 2.8538                 1.5739
 Frc consts  --      1.5438                 1.6551                 0.9623
 IR Inten    --     31.3458                11.4208                 0.7060

                     22                     23                     24
                      A                      A                      A
 Frequencies --   1029.4107              1047.2892              1116.6850
 Red. masses --      1.7622                 1.5380                 1.7426
 Frc consts  --      1.1002                 0.9939                 1.2803
 IR Inten    --      0.1342                 0.0884                13.5248

                     25                     26                     27
                      A                      A                      A
 Frequencies --   1119.0880              1158.5474              1168.9053
 Red. masses --      1.4338                 2.8638                 1.9713
 Frc consts  --      1.0579                 2.2648                 1.5870
 IR Inten    --      4.9555               102.3533                71.8695

                     28                     29                     30
                      A                      A                      A
 Frequencies --   1188.1522              1219.4065              1225.3095
 Red. masses --      1.4466                 1.3732                 1.4618
 Frc consts  --      1.2032                 1.2030                 1.2931
 IR Inten    --     13.4748                 6.5167                10.2491

                     31                     32                     33
                      A                      A                      A
 Frequencies --   1237.4126              1250.2127              1253.5512
 Red. masses --      1.5235                 1.5028                 1.5191
 Frc consts  --      1.3744                 1.3840                 1.4064
 IR Inten    --     18.0379                11.9004                15.0175

                     34                     35                     36
                      A                      A                      A
 Frequencies --   1280.8251              1364.8457              1410.7348
 Red. masses --      1.2671                 2.6180                 2.0565
 Frc consts  --      1.2247                 2.8734                 2.4114
 IR Inten    --      1.2385                20.7682                14.5539

                     37                     38                     39
                      A                      A                      A
 Frequencies --   1438.1767              1480.8313              1484.8158
 Red. masses --      1.9657                 1.1791                 1.0473
 Frc consts  --      2.3955                 1.5234                 1.3604
 IR Inten    --     36.1012                 0.1556                 4.9823

                     40                     41                     42
                      A                      A                      A
 Frequencies --   1503.1308              1525.8759              2940.2214
 Red. masses --      1.0683                 1.0868                 1.0545
 Frc consts  --      1.4221                 1.4908                 5.3712
 IR Inten    --      8.1594                 1.1640                33.8705

                     43                     44                     45
                      A                      A                      A
 Frequencies --   2965.3240              2969.9539              3006.1175
 Red. masses --      1.0449                 1.0963                 1.1028
 Frc consts  --      5.4133                 5.6976                 5.8716
 IR Inten    --     74.4235                71.8864                58.8357

                     46                     47                     48
                      A                      A                      A
 Frequencies --   3113.2233              3183.8080              3188.1508
 Red. masses --      1.0953                 1.0867                 1.0879
 Frc consts  --      6.2545                 6.4900                 6.5150
 IR Inten    --     30.0451                 6.6835                 8.0153

                     49                     50                     51
                      A                      A                      A
 Frequencies --   3195.7061              3199.4610              3210.2743
 Red. masses --      1.0918                 1.0966                 1.0994
 Frc consts  --      6.5696                 6.6140                 6.6755
 IR Inten    --     17.8922                20.2880                 8.2996

 - Thermochemistry -
 -------------------
 Temperature   298.150 Kelvin.  Pressure   1.00000 Atm.
 Atom     1 has atomic number  6 and mass  12.00000

 Molecular mass:   126.06808 amu.
 Principal axes and moments of inertia in atomic units:
                           1         2         3
     Eigenvalues --   328.264492214.057862274.35607
           X            0.99998   0.00094  -0.00584
           Y           -0.00140   0.99687  -0.07908
           Z            0.00575   0.07908   0.99685
 This molecule is an asymmetric top.
 Rotational symmetry number  1.
 Rotational temperatures (Kelvin)      0.26385     0.03912     0.03808
 Rotational constants (GHZ):           5.49783     0.81513     0.79352
 Zero-point vibrational energy     413935.9 (Joules/Mol)
                                   98.93304 (Kcal/Mol)
 Warning -- explicit consideration of   9 degrees of freedom as
           vibrations may cause significant error
 Vibrational temperatures:     99.99   134.46   162.03   319.90   371.42
          (Kelvin)            442.47   519.21   591.20   721.28   903.10
                             1096.01  1101.78  1130.38  1198.43  1239.23
                             1251.94  1340.99  1371.05  1426.48  1427.49
                             1465.64  1481.09  1506.81  1606.66  1610.12
                             1666.89  1681.79  1709.48  1754.45  1762.94
                             1780.36  1798.77  1803.58  1842.82  1963.71
                             2029.73  2069.21  2130.58  2136.32  2162.67
                             2195.39  4230.32  4266.43  4273.10  4325.13
                             4479.23  4580.78  4587.03  4597.90  4603.31
                             4618.86

 Zero-point correction=                           0.157660 (Hartree/Particle)
 Thermal correction to Energy=                    0.166123
 Thermal correction to Enthalpy=                  0.167067
 Thermal correction to Gibbs Free Energy=         0.123921
 Sum of electronic and zero-point Energies=           -422.924904
 Sum of electronic and thermal Energies=              -422.916441
 Sum of electronic and thermal Enthalpies=            -422.915497
 Sum of electronic and thermal Free Energies=         -422.958643

                     E (Thermal)             CV                S
                      KCal/Mol        Cal/Mol-Kelvin    Cal/Mol-Kelvin
 Total                  104.244             31.634             90.809
 Electronic               0.000              0.000              0.000
 Translational            0.889              2.981             40.409
 Rotational               0.889              2.981             28.893
 Vibrational            102.466             25.672             21.507
 Vibration     1          0.598              1.969              4.168
 Vibration     2          0.602              1.954              3.586
 Vibration     3          0.607              1.939              3.223
 Vibration     4          0.648              1.807              1.940
 Vibration     5          0.667              1.749              1.674
 Vibration     6          0.697              1.659              1.376
 Vibration     7          0.735              1.553              1.118
 Vibration     8          0.775              1.447              0.923
 Vibration     9          0.857              1.247              0.655

 Normal termination of Gaussian 09 at Tue Jan 28 14:47:42 2020.
