 Gaussian 09, Revision D.01,
 Gaussian 09:  ES64L-G09RevD.01 24-Apr-2013

 -----------------------------
 # b3lyp 6-31G(2df,p) opt Freq
 -----------------------------

 -----
 titel
 -----
 Symbolic Z-matrix:
 Charge =  0 Multiplicity = 1

 SCF Done:  E(RB3LYP) =  -423.145881792     A.U. after   14 cycles
 Optimization completed.
    -- Stationary point found.
 Normal termination of Gaussian 09 at Mon Jan 27 17:12:39 2020.

 ----------------------------------------------------------------------
 #N Geom=AllCheck Guess=TCheck SCRF=Check GenChk RB3LYP/6-31G(2df,p) Fr
 eq
 ----------------------------------------------------------------------

 Structure from the checkpoint file:  "/scratch/puck/g09_6aee704f-43d4-4b5c-8ad6-8795c4c70d29/Gau-39550.chk"
 -----
 titel
 -----
 Charge =  0 Multiplicity = 1

                         Standard orientation:
 ---------------------------------------------------------------------
 Center     Atomic      Atomic             Coordinates (Angstroms)
 Number     Number       Type             X           Y           Z
 ---------------------------------------------------------------------
      1          8           0        3.045819   -0.491088   -0.046104
      2          6           0        1.705936   -0.163685   -0.017877
      3          6           0        0.710995   -0.246128    1.182300
      4          6           0       -0.077073    0.395295   -0.005569
      5          6           0       -1.513209    0.871546   -0.012357
      6          6           0       -2.485992   -0.226351    0.364547
      7          8           0       -3.400203   -0.600969   -0.322845
      8          6           0        1.187831    1.267268   -0.279518
      9          6           0        0.555893   -0.689418   -0.932281
     10          1           0        3.135214   -1.435541    0.121246
     11          1           0        0.400385   -1.246970    1.497434
     12          1           0        0.920227    0.401767    2.038043
     13          1           0       -1.624268    1.679773    0.725507
     14          1           0       -1.795148    1.263924   -0.994150
     15          1           0       -2.293866   -0.686492    1.361576
     16          1           0        1.304373    1.651023   -1.296543
     17          1           0        1.432403    2.022598    0.472300
     18          1           0        0.226634   -1.720972   -0.773865
     19          1           0        0.622838   -0.443820   -1.995429
 ---------------------------------------------------------------------

 SCF Done:  E(RB3LYP) =  -423.145881792     A.U. after    1 cycles

 The electronic state is 1-A.
 Alpha  occ. eigenvalues --  -19.15153 -19.14115 -10.27341 -10.25586 -10.22226
 Alpha  occ. eigenvalues --  -10.19906 -10.19265 -10.19153 -10.19056  -1.04788
 Alpha  occ. eigenvalues --   -1.03915  -0.91763  -0.76794  -0.67935  -0.67777
 Alpha  occ. eigenvalues --   -0.61497  -0.57800  -0.54483  -0.52163  -0.47443
 Alpha  occ. eigenvalues --   -0.46300  -0.46224  -0.44079  -0.42412  -0.41388
 Alpha  occ. eigenvalues --   -0.38578  -0.37428  -0.36138  -0.33728  -0.32705
 Alpha  occ. eigenvalues --   -0.32110  -0.30647  -0.26659  -0.25035
 Alpha virt. eigenvalues --   -0.02401   0.07455   0.09371   0.11457   0.11679
 Alpha virt. eigenvalues --    0.13256   0.14238   0.15047   0.15262   0.15601
 Alpha virt. eigenvalues --    0.15978   0.16718   0.17794   0.20479   0.22977

 Mulliken charges:
               1
     1  O   -0.466515
     2  C    0.400420
     3  C   -0.328025
     4  C    0.320953
     5  C   -0.400705
     6  C    0.160954
     7  O   -0.237361
     8  C   -0.299031
     9  C   -0.319383
    10  H    0.284200
    11  H    0.088443
    12  H    0.095318
    13  H    0.120514
    14  H    0.124092
    15  H    0.075933
    16  H    0.096922
    17  H    0.094394
    18  H    0.090364
    19  H    0.098513
 Sum of Mulliken charges =   0.00000

 Dipole moment (field-independent basis, Debye):
    X=              1.4324    Y=              0.0047    Z=              1.2436  Tot=              1.8970
 Quadrupole moment (field-independent basis, Debye-Ang):
   XX=            -68.2986   YY=            -49.4216   ZZ=            -52.3545
   XY=             -7.2456   XZ=             -2.5179   YZ=             -0.8396

  Exact polarizability:  86.128   2.446  72.559   2.321  -1.119  71.708
 Approx polarizability: 118.046   6.004 109.727   7.339   0.304 111.245

                      1                      2                      3
                      A                      A                      A
 Frequencies --     45.8024                63.3364               157.8647
 Red. masses --      6.1504                 3.3548                 2.9317
 Frc consts  --      0.0076                 0.0079                 0.0430
 IR Inten    --      6.2628                 3.2689                 0.5345

                      4                      5                      6
                      A                      A                      A
 Frequencies --    225.1613               272.2837               307.1309
 Red. masses --      1.8514                 1.4299                 3.7557
 Frc consts  --      0.0553                 0.0625                 0.2087
 IR Inten    --     25.2633                70.4991                 5.7639

                      7                      8                      9
                      A                      A                      A
 Frequencies --    409.3988               416.7209               468.1522
 Red. masses --      3.2987                 2.9162                 3.0270
 Frc consts  --      0.3258                 0.2984                 0.3909
 IR Inten    --      8.1084                 5.0667                10.8214

                     10                     11                     12
                      A                      A                      A
 Frequencies --    550.2790               556.5771               626.3475
 Red. masses --      1.8114                 1.8331                 3.6593
 Frc consts  --      0.3232                 0.3346                 0.8458
 IR Inten    --      2.7832                 0.4083                 8.5508

                     13                     14                     15
                      A                      A                      A
 Frequencies --    655.9031               754.5220               787.3673
 Red. masses --      2.8021                 3.0641                 2.6185
 Frc consts  --      0.7102                 1.0278                 0.9564
 IR Inten    --      1.2974                 2.2607                 1.3155

                     16                     17                     18
                      A                      A                      A
 Frequencies --    842.0960               936.0028               957.4575
 Red. masses --      1.9101                 4.5674                 1.2529
 Frc consts  --      0.7980                 2.3576                 0.6767
 IR Inten    --      1.4466                 0.8621                 0.0365

                     19                     20                     21
                      A                      A                      A
 Frequencies --    976.4497               983.9610              1012.2614
 Red. masses --      1.8508                 1.0244                 3.0764
 Frc consts  --      1.0397                 0.5843                 1.8573
 IR Inten    --      2.0208                 0.0752                24.1339

                     22                     23                     24
                      A                      A                      A
 Frequencies --   1068.1849              1080.3763              1100.1704
 Red. masses --      2.0318                 2.1032                 1.5504
 Frc consts  --      1.3659                 1.4464                 1.1056
 IR Inten    --      5.1630                13.4337                59.5483

                     25                     26                     27
                      A                      A                      A
 Frequencies --   1120.0911              1130.8229              1140.9881
 Red. masses --      1.5111                 1.3364                 1.4143
 Frc consts  --      1.1170                 1.0069                 1.0848
 IR Inten    --      0.5432                 1.5270                11.3400

                     28                     29                     30
                      A                      A                      A
 Frequencies --   1149.7898              1165.0284              1169.4658
 Red. masses --      1.4923                 1.7676                 1.9409
 Frc consts  --      1.1624                 1.4135                 1.5640
 IR Inten    --      4.3499                 0.9865                 4.5863

                     31                     32                     33
                      A                      A                      A
 Frequencies --   1256.5762              1285.7505              1310.4318
 Red. masses --      1.4884                 1.7691                 2.0354
 Frc consts  --      1.3847                 1.7231                 2.0593
 IR Inten    --      6.5683               160.5216               127.8357

                     34                     35                     36
                      A                      A                      A
 Frequencies --   1328.6932              1384.8344              1428.8800
 Red. masses --      2.7409                 2.3674                 1.1994
 Frc consts  --      2.8510                 2.6750                 1.4428
 IR Inten    --      3.2996                13.6753                 5.4092

                     37                     38                     39
                      A                      A                      A
 Frequencies --   1456.0876              1492.4950              1496.7177
 Red. masses --      1.0921                 1.1005                 1.1014
 Frc consts  --      1.3642                 1.4443                 1.4536
 IR Inten    --      4.7044                 0.5741                 0.6689

                     40                     41                     42
                      A                      A                      A
 Frequencies --   1564.1116              1835.7225              2863.2637
 Red. masses --      1.2943                10.0801                 1.0818
 Frc consts  --      1.8656                20.0137                 5.2255
 IR Inten    --      9.7507               178.7370                90.0894

                     43                     44                     45
                      A                      A                      A
 Frequencies --   3009.5592              3041.2676              3046.1382
 Red. masses --      1.0646                 1.0539                 1.0538
 Frc consts  --      5.6811                 5.7435                 5.7609
 IR Inten    --     13.7284                46.4187                56.4269

                     46                     47                     48
                      A                      A                      A
 Frequencies --   3055.8380              3091.5346              3110.0699
 Red. masses --      1.0557                 1.0960                 1.1119
 Frc consts  --      5.8083                 6.1716                 6.3365
 IR Inten    --      4.1736                 9.3446                11.5880

                     49                     50                     51
                      A                      A                      A
 Frequencies --   3115.9832              3120.6418              3809.6558
 Red. masses --      1.1105                 1.1106                 1.0657
 Frc consts  --      6.3528                 6.3725                 9.1130
 IR Inten    --     39.2857                45.3718                29.6071

 - Thermochemistry -
 -------------------
 Temperature   298.150 Kelvin.  Pressure   1.00000 Atm.
 Atom     1 has atomic number  8 and mass  15.99491

 Molecular mass:   126.06808 amu.
 Principal axes and moments of inertia in atomic units:
                           1         2         3
     Eigenvalues --   406.463072038.167212103.62248
           X            0.99996  -0.00816  -0.00384
           Y            0.00791   0.99808  -0.06143
           Z            0.00434   0.06139   0.99810
 This molecule is an asymmetric top.
 Rotational symmetry number  1.
 Rotational temperatures (Kelvin)      0.21309     0.04250     0.04117
 Rotational constants (GHZ):           4.44011     0.88547     0.85792
 Zero-point vibrational energy     414112.7 (Joules/Mol)
                                   98.97532 (Kcal/Mol)
 Warning -- explicit consideration of  11 degrees of freedom as
           vibrations may cause significant error
 Vibrational temperatures:     65.90    91.13   227.13   323.96   391.76
          (Kelvin)            441.89   589.03   599.57   673.57   791.73
                              800.79   901.17   943.70  1085.59  1132.84
                             1211.59  1346.70  1377.57  1404.89  1415.70
                             1456.42  1536.88  1554.42  1582.90  1611.56
                             1627.00  1641.63  1654.29  1676.21  1682.60
                             1807.93  1849.91  1885.42  1911.69  1992.47
                             2055.84  2094.98  2147.36  2153.44  2250.40
                             2641.19  4119.59  4330.08  4375.70  4382.71
                             4396.66  4448.02  4474.69  4483.20  4489.90
                             5481.24

 Zero-point correction=                           0.157727 (Hartree/Particle)
 Thermal correction to Energy=                    0.166459
 Thermal correction to Enthalpy=                  0.167403
 Thermal correction to Gibbs Free Energy=         0.123482
 Sum of electronic and zero-point Energies=           -422.988155
 Sum of electronic and thermal Energies=              -422.979423
 Sum of electronic and thermal Enthalpies=            -422.978479
 Sum of electronic and thermal Free Energies=         -423.022400

                     E (Thermal)             CV                S
                      KCal/Mol        Cal/Mol-Kelvin    Cal/Mol-Kelvin
 Total                  104.454             32.860             92.439
 Electronic               0.000              0.000              0.000
 Translational            0.889              2.981             40.409
 Rotational               0.889              2.981             28.946
 Vibrational            102.677             26.898             23.085
 Vibration     1          0.595              1.979              4.991
 Vibration     2          0.597              1.972              4.350
 Vibration     3          0.621              1.894              2.575
 Vibration     4          0.650              1.803              1.917
 Vibration     5          0.675              1.724              1.582
 Vibration     6          0.697              1.660              1.378
 Vibration     7          0.774              1.450              0.929
 Vibration     8          0.780              1.434              0.903
 Vibration     9          0.825              1.321              0.743
 Vibration    10          0.906              1.139              0.544
 Vibration    11          0.912              1.125              0.531

 Optimization completed.
    -- Stationary point found.
 Normal termination of Gaussian 09 at Mon Jan 27 18:00:47 2020.
