 Gaussian 09, Revision D.01,
 Gaussian 09:  ES64L-G09RevD.01 24-Apr-2013

 -----------------------------
 # b3lyp 6-31G(2df,p) opt Freq
 -----------------------------

 -----
 titel
 -----
 Symbolic Z-matrix:
 Charge =  0 Multiplicity = 1

 SCF Done:  E(RB3LYP) =  -423.146578157     A.U. after   12 cycles
 Optimization completed.
    -- Stationary point found.
 Normal termination of Gaussian 09 at Mon Jan 27 12:11:11 2020.

 ----------------------------------------------------------------------
 #N Geom=AllCheck Guess=TCheck SCRF=Check GenChk RB3LYP/6-31G(2df,p) Fr
 eq
 ----------------------------------------------------------------------

 Structure from the checkpoint file:  "/scratch/puck/g09_0e1b9897-19bb-4193-b76c-6e8a5c2f3d40/Gau-166852.chk"
 -----
 titel
 -----
 Charge =  0 Multiplicity = 1

                         Standard orientation:
 ---------------------------------------------------------------------
 Center     Atomic      Atomic             Coordinates (Angstroms)
 Number     Number       Type             X           Y           Z
 ---------------------------------------------------------------------
      1          6           0       -2.696762    0.752311    0.213795
      2          6           0       -2.696865   -0.752202    0.213984
      3          6           0       -1.569781   -0.000104   -0.447109
      4          6           0       -0.216441   -0.000067    0.194080
      5          8           0        0.533595   -1.146713   -0.201198
      6          6           0        1.869213   -0.745236   -0.355850
      7          6           0        2.532224    0.000025    0.788721
      8          6           0        1.869162    0.745303   -0.355811
      9          8           0        0.533513    1.146666   -0.201141
     10          1           0       -3.398013    1.273820   -0.427017
     11          1           0       -2.485008    1.262476    1.147622
     12          1           0       -2.485189   -1.262166    1.147939
     13          1           0       -3.398191   -1.273767   -0.426701
     14          1           0       -1.529907   -0.000249   -1.531329
     15          1           0       -0.317543   -0.000096    1.294078
     16          1           0        2.422841   -1.382838   -1.033079
     17          1           0        2.069470   -0.000012    1.769301
     18          1           0        3.617428    0.000052    0.800045
     19          1           0        2.422744    1.382978   -1.033009
 ---------------------------------------------------------------------

 SCF Done:  E(RB3LYP) =  -423.146578157     A.U. after    1 cycles

 The electronic state is 1-A.
 Alpha  occ. eigenvalues --  -19.14870 -19.14869 -10.27926 -10.23659 -10.23630
 Alpha  occ. eigenvalues --  -10.18995 -10.18757 -10.18733 -10.18686  -1.09248
 Alpha  occ. eigenvalues --   -0.99579  -0.86616  -0.83617  -0.69675  -0.61688
 Alpha  occ. eigenvalues --   -0.60276  -0.59721  -0.56791  -0.53110  -0.50901
 Alpha  occ. eigenvalues --   -0.47137  -0.45652  -0.45217  -0.43583  -0.38898
 Alpha  occ. eigenvalues --   -0.38279  -0.37482  -0.36561  -0.32967  -0.32064
 Alpha  occ. eigenvalues --   -0.29886  -0.29549  -0.25623  -0.22750
 Alpha virt. eigenvalues --    0.09181   0.10131   0.10246   0.11018   0.11312
 Alpha virt. eigenvalues --    0.14197   0.14675   0.14740   0.16792   0.17076
 Alpha virt. eigenvalues --    0.18527   0.19113   0.21066   0.22353   0.22448

 Mulliken charges:
               1
     1  C   -0.267395
     2  C   -0.267405
     3  C    0.005426
     4  C    0.200009
     5  O   -0.272917
     6  C    0.070722
     7  C   -0.359061
     8  C    0.070722
     9  O   -0.272921
    10  H    0.117025
    11  H    0.117726
    12  H    0.117722
    13  H    0.117026
    14  H    0.093483
    15  H    0.065871
    16  H    0.110422
    17  H    0.126482
    18  H    0.116642
    19  H    0.110423
 Sum of Mulliken charges =   0.00000

 Dipole moment (field-independent basis, Debye):
    X=              0.5205    Y=              0.0000    Z=              0.0489  Tot=              0.5228
 Quadrupole moment (field-independent basis, Debye-Ang):
   XX=            -46.0451   YY=            -57.1288   ZZ=            -50.8294
   XY=              0.0004   XZ=             -0.5349   YZ=             -0.0001

  Exact polarizability:  94.784   0.001  65.687   0.122   0.000  65.404
 Approx polarizability: 114.747   0.000 104.001  -0.518   0.000  99.587

                      1                      2                      3
                      A                      A                      A
 Frequencies --     73.1014                86.2243               159.0983
 Red. masses --      3.1735                 4.1372                 2.6164
 Frc consts  --      0.0100                 0.0181                 0.0390
 IR Inten    --      0.1813                 3.0485                 0.6597

                      4                      5                      6
                      A                      A                      A
 Frequencies --    294.9153               320.4987               371.7642
 Red. masses --      3.1217                 3.1845                 3.5692
 Frc consts  --      0.1600                 0.1927                 0.2906
 IR Inten    --      3.5243                 1.1655                 3.1246

                      7                      8                      9
                      A                      A                      A
 Frequencies --    437.2611               493.8018               724.9728
 Red. masses --      3.2742                 2.4514                 4.4051
 Frc consts  --      0.3688                 0.3522                 1.3641
 IR Inten    --      6.1571                 6.6229                 4.4613

                     10                     11                     12
                      A                      A                      A
 Frequencies --    738.1124               769.6441               771.5265
 Red. masses --      3.3303                 1.1475                 2.6031
 Frc consts  --      1.0690                 0.4005                 0.9130
 IR Inten    --      0.3503                 2.8687                16.5965

                     13                     14                     15
                      A                      A                      A
 Frequencies --    790.3246               830.1611               884.6551
 Red. masses --      1.5587                 1.2760                 1.8008
 Frc consts  --      0.5736                 0.5181                 0.8304
 IR Inten    --      9.1448                 0.9461                 7.8368

                     16                     17                     18
                      A                      A                      A
 Frequencies --    918.8822               924.2509               956.4681
 Red. masses --      2.8384                 4.5197                 2.3711
 Frc consts  --      1.4121                 2.2748                 1.2780
 IR Inten    --     28.3368                39.3311                 4.7584

                     19                     20                     21
                      A                      A                      A
 Frequencies --    960.5907               992.4329              1007.6092
 Red. masses --      2.3284                 2.8364                 2.1575
 Frc consts  --      1.2659                 1.6460                 1.2906
 IR Inten    --     16.3192                11.0467                 8.9527

                     22                     23                     24
                      A                      A                      A
 Frequencies --   1058.1921              1068.5242              1076.7882
 Red. masses --      1.5689                 1.9601                 1.9847
 Frc consts  --      1.0351                 1.3186                 1.3558
 IR Inten    --      9.7549                22.0001                37.8055

                     25                     26                     27
                      A                      A                      A
 Frequencies --   1078.5656              1091.5894              1125.7279
 Red. masses --      1.3416                 1.3621                 1.2853
 Frc consts  --      0.9195                 0.9563                 0.9597
 IR Inten    --      0.4430                 2.0264                 1.2648

                     28                     29                     30
                      A                      A                      A
 Frequencies --   1137.1836              1168.7369              1192.6366
 Red. masses --      1.8844                 3.1377                 1.8597
 Frc consts  --      1.4358                 2.5252                 1.5585
 IR Inten    --      0.9343               203.7015                30.7986

                     31                     32                     33
                      A                      A                      A
 Frequencies --   1195.9318              1216.6911              1223.4545
 Red. masses --      1.3849                 1.6207                 2.3369
 Frc consts  --      1.1670                 1.4135                 2.0609
 IR Inten    --      0.0733                53.7279                16.1443

                     34                     35                     36
                      A                      A                      A
 Frequencies --   1310.8317              1342.8760              1372.6598
 Red. masses --      1.1968                 1.4279                 1.3216
 Frc consts  --      1.2116                 1.5171                 1.4671
 IR Inten    --      2.5668                 9.8923                 8.0906

                     37                     38                     39
                      A                      A                      A
 Frequencies --   1380.1472              1455.8016              1469.5814
 Red. masses --      1.7235                 1.4979                 1.0863
 Frc consts  --      1.9342                 1.8704                 1.3823
 IR Inten    --     42.4566                21.8570                 1.7239

                     40                     41                     42
                      A                      A                      A
 Frequencies --   1470.8988              1507.8145              2934.3529
 Red. masses --      1.3534                 1.4809                 1.0830
 Frc consts  --      1.7252                 1.9837                 5.4940
 IR Inten    --     54.1124                 5.0080                63.4694

                     43                     44                     45
                      A                      A                      A
 Frequencies --   3133.4507              3135.5292              3139.2788
 Red. masses --      1.0542                 1.0510                 1.0589
 Frc consts  --      6.0985                 6.0881                 6.1485
 IR Inten    --      6.0282                16.6917                10.0994

                     46                     47                     48
                      A                      A                      A
 Frequencies --   3168.4050              3192.0229              3200.0246
 Red. masses --      1.0898                 1.0895                 1.0981
 Frc consts  --      6.4457                 6.5402                 6.6253
 IR Inten    --      6.5719                10.2281                15.3421

                     49                     50                     51
                      A                      A                      A
 Frequencies --   3214.4209              3224.5839              3228.9013
 Red. masses --      1.1174                 1.1151                 1.1149
 Frc consts  --      6.8025                 6.8315                 6.8486
 IR Inten    --      0.3278                10.1218                16.3453

 - Thermochemistry -
 -------------------
 Temperature   298.150 Kelvin.  Pressure   1.00000 Atm.
 Atom     1 has atomic number  6 and mass  12.00000

 Molecular mass:   126.06808 amu.
 Principal axes and moments of inertia in atomic units:
                           1         2         3
     Eigenvalues --   385.890621681.187591861.75389
           X            1.00000   0.00000   0.00153
           Y            0.00000   1.00000   0.00000
           Z           -0.00153   0.00000   1.00000
 This molecule is an asymmetric top.
 Rotational symmetry number  1.
 Rotational temperatures (Kelvin)      0.22445     0.05152     0.04652
 Rotational constants (GHZ):           4.67682     1.07349     0.96938
 Zero-point vibrational energy     418824.0 (Joules/Mol)
                                  100.10133 (Kcal/Mol)
 Warning -- explicit consideration of   8 degrees of freedom as
           vibrations may cause significant error
 Vibrational temperatures:    105.18   124.06   228.91   424.32   461.13
          (Kelvin)            534.89   629.12   710.47  1043.07  1061.98
                             1107.34  1110.05  1137.10  1194.42  1272.82
                             1322.06  1329.79  1376.14  1382.07  1427.89
                             1449.72  1522.50  1537.37  1549.26  1551.81
                             1570.55  1619.67  1636.15  1681.55  1715.94
                             1720.68  1750.54  1760.28  1885.99  1932.10
                             1974.95  1985.72  2094.57  2114.40  2116.29
                             2169.41  4221.87  4508.33  4511.32  4516.72
                             4558.62  4592.60  4604.12  4624.83  4639.45
                             4645.66

 Zero-point correction=                           0.159522 (Hartree/Particle)
 Thermal correction to Energy=                    0.167362
 Thermal correction to Enthalpy=                  0.168306
 Thermal correction to Gibbs Free Energy=         0.126627
 Sum of electronic and zero-point Energies=           -422.987057
 Sum of electronic and thermal Energies=              -422.979216
 Sum of electronic and thermal Enthalpies=            -422.978272
 Sum of electronic and thermal Free Energies=         -423.019951

                     E (Thermal)             CV                S
                      KCal/Mol        Cal/Mol-Kelvin    Cal/Mol-Kelvin
 Total                  105.021             30.435             87.721
 Electronic               0.000              0.000              0.000
 Translational            0.889              2.981             40.409
 Rotational               0.889              2.981             28.581
 Vibrational            103.244             24.473             18.731
 Vibration     1          0.599              1.967              4.068
 Vibration     2          0.601              1.959              3.744
 Vibration     3          0.621              1.892              2.560
 Vibration     4          0.689              1.683              1.446
 Vibration     5          0.706              1.634              1.308
 Vibration     6          0.743              1.530              1.073
 Vibration     7          0.798              1.389              0.835
 Vibration     8          0.849              1.264              0.674

 Optimization completed.
    -- Stationary point found.
 Normal termination of Gaussian 09 at Mon Jan 27 12:50:05 2020.
