 Gaussian 09, Revision D.01,
 Gaussian 09:  ES64L-G09RevD.01 24-Apr-2013

 -----------------------------
 # b3lyp 6-31G(2df,p) opt Freq
 -----------------------------

 -----
 titel
 -----
 Symbolic Z-matrix:
 Charge =  0 Multiplicity = 1

 SCF Done:  E(RB3LYP) =  -423.160902870     A.U. after   12 cycles
 Optimization completed.
    -- Stationary point found.
 Normal termination of Gaussian 09 at Mon Jan 27 18:03:20 2020.

 ----------------------------------------------------------------------
 #N Geom=AllCheck Guess=TCheck SCRF=Check GenChk RB3LYP/6-31G(2df,p) Fr
 eq
 ----------------------------------------------------------------------

 Structure from the checkpoint file:  "/scratch/puck/g09_c277b822-e806-4582-a514-85d657b3aa71/Gau-62125.chk"
 -----
 titel
 -----
 Charge =  0 Multiplicity = 1

                         Standard orientation:
 ---------------------------------------------------------------------
 Center     Atomic      Atomic             Coordinates (Angstroms)
 Number     Number       Type             X           Y           Z
 ---------------------------------------------------------------------
      1          6           0       -2.103147   -1.272683    0.295513
      2          6           0       -0.933336   -0.364193    0.011162
      3          6           0        0.140880   -0.823095   -1.042708
      4          6           0        1.202779   -0.299117   -0.076643
      5          8           0        2.495572   -0.777109    0.029938
      6          6           0        0.802456    1.069356    0.462245
      7          6           0       -0.301932    1.839142   -0.250847
      8          8           0       -1.415133    0.944772   -0.299426
      9          6           0        0.205333   -0.182338    1.052176
     10          1           0       -1.757316   -2.275903    0.558844
     11          1           0       -2.698303   -0.877225    1.124210
     12          1           0       -2.749774   -1.348400   -0.584034
     13          1           0        0.192002   -1.913034   -1.117906
     14          1           0        0.060321   -0.385357   -2.043711
     15          1           0        3.037788   -0.338241   -0.634942
     16          1           0        1.567315    1.596324    1.020444
     17          1           0       -0.596321    2.737481    0.305236
     18          1           0       -0.016731    2.147609   -1.266950
     19          1           0        0.239308   -0.486992    2.089336
 ---------------------------------------------------------------------

 SCF Done:  E(RB3LYP) =  -423.160902870     A.U. after    1 cycles

 The electronic state is 1-A.
 Alpha  occ. eigenvalues --  -19.14978 -19.12939 -10.24227 -10.23867 -10.22433
 Alpha  occ. eigenvalues --  -10.19138 -10.18358 -10.17717 -10.17451  -1.04113
 Alpha  occ. eigenvalues --   -1.02825  -0.87868  -0.77219  -0.69967  -0.67305
 Alpha  occ. eigenvalues --   -0.60410  -0.58162  -0.52974  -0.52929  -0.47188
 Alpha  occ. eigenvalues --   -0.45987  -0.44905  -0.43010  -0.41286  -0.40401
 Alpha  occ. eigenvalues --   -0.39043  -0.37510  -0.35920  -0.33356  -0.32664
 Alpha  occ. eigenvalues --   -0.30714  -0.26086  -0.25332  -0.23708
 Alpha virt. eigenvalues --    0.07833   0.09468   0.10574   0.12043   0.12743
 Alpha virt. eigenvalues --    0.14318   0.15314   0.15701   0.15930   0.16736
 Alpha virt. eigenvalues --    0.18413   0.18993   0.19873   0.20594   0.22198

 Mulliken charges:
               1
     1  C   -0.476228
     2  C    0.419242
     3  C   -0.354046
     4  C    0.388525
     5  O   -0.465130
     6  C   -0.150959
     7  C   -0.107883
     8  O   -0.301589
     9  C   -0.185638
    10  H    0.119530
    11  H    0.125691
    12  H    0.127394
    13  H    0.104736
    14  H    0.088724
    15  H    0.285018
    16  H    0.093833
    17  H    0.103727
    18  H    0.091721
    19  H    0.093334
 Sum of Mulliken charges =   0.00000

 Dipole moment (field-independent basis, Debye):
    X=              1.1070    Y=              0.4297    Z=             -0.3952  Tot=              1.2515
 Quadrupole moment (field-independent basis, Debye-Ang):
   XX=            -53.8214   YY=            -52.3312   ZZ=            -51.4378
   XY=              5.4795   XZ=             -3.8112   YZ=              0.6171

  Exact polarizability:  78.442   2.978  77.267  -1.916   0.473  67.647
 Approx polarizability: 110.042   0.445 110.972  -3.291  -0.955 103.842

                      1                      2                      3
                      A                      A                      A
 Frequencies --    190.0334               216.9915               229.4136
 Red. masses --      3.0069                 1.0766                 1.9884
 Frc consts  --      0.0640                 0.0299                 0.0617
 IR Inten    --      9.8194                 0.0540                 8.7075

                      4                      5                      6
                      A                      A                      A
 Frequencies --    262.0924               310.7485               315.7058
 Red. masses --      1.4162                 1.8671                 3.6135
 Frc consts  --      0.0573                 0.1062                 0.2122
 IR Inten    --     50.0062                31.2533                 1.4742

                      7                      8                      9
                      A                      A                      A
 Frequencies --    373.9290               457.7287               462.1606
 Red. masses --      3.7021                 2.8172                 2.3349
 Frc consts  --      0.3050                 0.3478                 0.2938
 IR Inten    --     13.6669                 5.3390                 0.2966

                     10                     11                     12
                      A                      A                      A
 Frequencies --    570.5827               606.3899               716.7714
 Red. masses --      4.2016                 3.7302                 3.2828
 Frc consts  --      0.8059                 0.8081                 0.9937
 IR Inten    --      1.4875                 0.1840                 9.1293

                     13                     14                     15
                      A                      A                      A
 Frequencies --    727.9065               768.4903               837.4693
 Red. masses --      2.7218                 4.5932                 2.7823
 Frc consts  --      0.8497                 1.5982                 1.1497
 IR Inten    --      5.3004                 3.4856                13.0365

                     16                     17                     18
                      A                      A                      A
 Frequencies --    890.5020               896.3861               903.3127
 Red. masses --      2.1572                 1.6733                 1.9525
 Frc consts  --      1.0079                 0.7922                 0.9387
 IR Inten    --     26.5688                 0.5775                 5.6286

                     19                     20                     21
                      A                      A                      A
 Frequencies --    959.4556               982.0709               993.7260
 Red. masses --      1.5447                 1.6453                 2.3844
 Frc consts  --      0.8378                 0.9349                 1.3873
 IR Inten    --      7.9995                 4.2028                 1.6501

                     22                     23                     24
                      A                      A                      A
 Frequencies --   1006.2250              1057.2450              1072.2094
 Red. masses --      1.8421                 4.7772                 1.8158
 Frc consts  --      1.0989                 3.1461                 1.2299
 IR Inten    --     11.0016                62.4507                20.5539

                     25                     26                     27
                      A                      A                      A
 Frequencies --   1108.8836              1135.2532              1152.0851
 Red. masses --      1.7528                 1.7425                 2.2382
 Frc consts  --      1.2699                 1.3231                 1.7503
 IR Inten    --     14.4921                11.1361                19.7178

                     28                     29                     30
                      A                      A                      A
 Frequencies --   1181.2565              1206.6706              1219.7544
 Red. masses --      1.7169                 1.6963                 1.1226
 Frc consts  --      1.4115                 1.4552                 0.9840
 IR Inten    --      4.9659                24.9407                 2.4663

                     31                     32                     33
                      A                      A                      A
 Frequencies --   1246.6881              1292.1895              1297.3435
 Red. masses --      2.0314                 3.0010                 1.7416
 Frc consts  --      1.8602                 2.9523                 1.7271
 IR Inten    --     43.1589                28.4592               107.2385

                     34                     35                     36
                      A                      A                      A
 Frequencies --   1340.4485              1375.4483              1413.8697
 Red. masses --      2.6019                 1.4170                 1.4620
 Frc consts  --      2.7545                 1.5795                 1.7220
 IR Inten    --     37.6316                 9.7513                10.9108

                     37                     38                     39
                      A                      A                      A
 Frequencies --   1439.6455              1483.0089              1493.7883
 Red. masses --      2.3975                 1.0513                 1.0522
 Frc consts  --      2.9277                 1.3623                 1.3833
 IR Inten    --     30.1260                 2.2258                 1.8494

                     40                     41                     42
                      A                      A                      A
 Frequencies --   1497.9447              1527.2960              2996.4381
 Red. masses --      1.2896                 1.0920                 1.0646
 Frc consts  --      1.7049                 1.5007                 5.6321
 IR Inten    --      6.4427                 0.8346                70.8836

                     43                     44                     45
                      A                      A                      A
 Frequencies --   3037.0183              3042.1760              3044.1829
 Red. masses --      1.0564                 1.0376                 1.0988
 Frc consts  --      5.7406                 5.6580                 5.9995
 IR Inten    --     32.3529                20.8756                54.2174

                     46                     47                     48
                      A                      A                      A
 Frequencies --   3099.2997              3112.6208              3121.5184
 Red. masses --      1.1061                 1.1016                 1.1016
 Frc consts  --      6.2602                 6.2884                 6.3242
 IR Inten    --     18.8375                15.6515                19.7774

                     49                     50                     51
                      A                      A                      A
 Frequencies --   3190.0093              3209.2024              3793.9642
 Red. masses --      1.0897                 1.0964                 1.0660
 Frc consts  --      6.5334                 6.6530                 9.0406
 IR Inten    --      7.2411                 6.3506                23.4040

 - Thermochemistry -
 -------------------
 Temperature   298.150 Kelvin.  Pressure   1.00000 Atm.
 Atom     1 has atomic number  6 and mass  12.00000

 Molecular mass:   126.06808 amu.
 Principal axes and moments of inertia in atomic units:
                           1         2         3
     Eigenvalues --   650.180281072.290411385.73015
           X            0.99678   0.07906  -0.01303
           Y           -0.07903   0.99687   0.00311
           Z            0.01323  -0.00207   0.99991
 This molecule is an asymmetric top.
 Rotational symmetry number  1.
 Warning -- assumption of classical behavior for rotation
           may cause significant error
 Rotational temperatures (Kelvin)      0.13322     0.08077     0.06250
 Rotational constants (GHZ):           2.77576     1.68307     1.30238
 Zero-point vibrational energy     417888.8 (Joules/Mol)
                                   99.87782 (Kcal/Mol)
 Warning -- explicit consideration of  11 degrees of freedom as
           vibrations may cause significant error
 Vibrational temperatures:    273.42   312.20   330.07   377.09   447.10
          (Kelvin)            454.23   538.00   658.57   664.95   820.94
                              872.46  1031.27  1047.29  1105.68  1204.93
                             1281.23  1289.70  1299.66  1380.44  1412.98
                             1429.75  1447.73  1521.14  1542.67  1595.43
                             1633.37  1657.59  1699.56  1736.13  1754.95
                             1793.70  1859.17  1866.59  1928.60  1978.96
                             2034.24  2071.33  2133.72  2149.23  2155.21
                             2197.44  4311.20  4369.59  4377.01  4379.89
                             4459.20  4478.36  4491.16  4589.71  4617.32
                             5458.66

 Zero-point correction=                           0.159165 (Hartree/Particle)
 Thermal correction to Energy=                    0.167028
 Thermal correction to Enthalpy=                  0.167972
 Thermal correction to Gibbs Free Energy=         0.127500
 Sum of electronic and zero-point Energies=           -423.001737
 Sum of electronic and thermal Energies=              -422.993875
 Sum of electronic and thermal Enthalpies=            -422.992931
 Sum of electronic and thermal Free Energies=         -423.033403

                     E (Thermal)             CV                S
                      KCal/Mol        Cal/Mol-Kelvin    Cal/Mol-Kelvin
 Total                  104.812             31.952             85.180
 Electronic               0.000              0.000              0.000
 Translational            0.889              2.981             40.409
 Rotational               0.889              2.981             28.359
 Vibrational            103.034             25.991             16.413
 Vibration     1          0.633              1.854              2.228
 Vibration     2          0.646              1.815              1.984
 Vibration     3          0.652              1.796              1.884
 Vibration     4          0.669              1.742              1.648
 Vibration     5          0.700              1.653              1.358
 Vibration     6          0.703              1.644              1.332
 Vibration     7          0.745              1.526              1.064
 Vibration     8          0.816              1.344              0.773
 Vibration     9          0.820              1.334              0.760
 Vibration    10          0.927              1.095              0.503
 Vibration    11          0.965              1.018              0.439

 Normal termination of Gaussian 09 at Mon Jan 27 18:48:50 2020.
