 Gaussian 09, Revision D.01,
 Gaussian 09:  ES64L-G09RevD.01 24-Apr-2013

 -----------------------------
 # b3lyp 6-31G(2df,p) opt Freq
 -----------------------------

 -----
 titel
 -----
 Symbolic Z-matrix:
 Charge =  0 Multiplicity = 1

 SCF Done:  E(RB3LYP) =  -423.128194113     A.U. after   14 cycles
 SCF Done:  E(RB3LYP) =  -423.128194204     A.U. after    7 cycles
 SCF Done:  E(RB3LYP) =  -423.128194231     A.U. after    7 cycles
 SCF Done:  E(RB3LYP) =  -423.128194142     A.U. after    7 cycles
 SCF Done:  E(RB3LYP) =  -423.128194429     A.U. after    7 cycles
 Optimization completed.
    -- Stationary point found.
 Normal termination of Gaussian 09 at Tue Jan 28 09:11:05 2020.

 ----------------------------------------------------------------------
 #N Geom=AllCheck Guess=TCheck SCRF=Check GenChk RB3LYP/6-31G(2df,p) Fr
 eq
 ----------------------------------------------------------------------

 Structure from the checkpoint file:  "/scratch/puck/g09_66b608b7-0e7c-46b6-a146-012423679402/Gau-103714.chk"
 -----
 titel
 -----
 Charge =  0 Multiplicity = 1

                         Standard orientation:
 ---------------------------------------------------------------------
 Center     Atomic      Atomic             Coordinates (Angstroms)
 Number     Number       Type             X           Y           Z
 ---------------------------------------------------------------------
      1          6           0        0.160379    1.927293   -0.388230
      2          6           0        0.575260    0.560498    0.138578
      3          6           0       -0.108213    0.000107    1.395336
      4          6           0       -0.380681   -0.636752    0.060937
      5          8           0        0.156222   -1.896652   -0.210745
      6          6           0       -1.749591   -0.532579   -0.607798
      7          8           0       -2.620032    0.435028   -0.047918
      8          6           0        1.961683    0.226068   -0.042566
      9          6           0        3.103599   -0.105381   -0.240370
     10          1           0        0.398479    2.021476   -1.452406
     11          1           0       -0.912245    2.077518   -0.257683
     12          1           0        0.695522    2.718691    0.146123
     13          1           0        0.504210   -0.560152    2.092141
     14          1           0       -0.863486    0.638121    1.841768
     15          1           0        1.101317   -1.792317   -0.388533
     16          1           0       -1.631296   -0.263330   -1.662328
     17          1           0       -2.188947   -1.538975   -0.576123
     18          1           0       -2.891134    0.118600    0.819518
     19          1           0        4.123446   -0.362164   -0.388502
 ---------------------------------------------------------------------

 SCF Done:  E(RB3LYP) =  -423.128194429     A.U. after    1 cycles

 The electronic state is 1-A.
 Alpha  occ. eigenvalues --  -19.14741 -19.14090 -10.24786 -10.23269 -10.22115
 Alpha  occ. eigenvalues --  -10.19093 -10.19016 -10.18178 -10.17948  -1.03657
 Alpha  occ. eigenvalues --   -1.02343  -0.86546  -0.75707  -0.71630  -0.70344
 Alpha  occ. eigenvalues --   -0.61759  -0.58352  -0.54885  -0.51264  -0.50290
 Alpha  occ. eigenvalues --   -0.47110  -0.45022  -0.44118  -0.40859  -0.39216
 Alpha  occ. eigenvalues --   -0.39206  -0.37889  -0.35161  -0.34301  -0.31851
 Alpha  occ. eigenvalues --   -0.28954  -0.28216  -0.24977  -0.24249
 Alpha virt. eigenvalues --    0.03841   0.04316   0.07131   0.10491   0.10920
 Alpha virt. eigenvalues --    0.12425   0.13471   0.13824   0.14279   0.16304
 Alpha virt. eigenvalues --    0.16978   0.19228   0.19861   0.21578   0.23031

 Mulliken charges:
               1
     1  C   -0.481186
     2  C    0.073941
     3  C   -0.385208
     4  C    0.358257
     5  O   -0.470283
     6  C   -0.150074
     7  O   -0.401895
     8  C    0.249037
     9  C   -0.442104
    10  H    0.124665
    11  H    0.151885
    12  H    0.123849
    13  H    0.124573
    14  H    0.111592
    15  H    0.287264
    16  H    0.121578
    17  H    0.115080
    18  H    0.289700
    19  H    0.199329
 Sum of Mulliken charges =   0.00000

 Dipole moment (field-independent basis, Debye):
    X=              0.4425    Y=              0.0964    Z=              0.7465  Tot=              0.8731
 Quadrupole moment (field-independent basis, Debye-Ang):
   XX=            -48.4274   YY=            -56.8289   ZZ=            -51.6324
   XY=             -0.2142   XZ=             -4.1079   YZ=              0.3028

  Exact polarizability: 100.709  -2.319  70.899  -5.348   0.836  64.382
 Approx polarizability: 148.083  -7.535 103.878 -12.393   3.312  97.746

                      1                      2                      3
                      A                      A                      A
 Frequencies --     97.7688               125.3668               150.8544
 Red. masses --      4.0638                 3.5341                 3.3877
 Frc consts  --      0.0229                 0.0327                 0.0454
 IR Inten    --      1.5748                 1.9527                 3.6851

                      4                      5                      6
                      A                      A                      A
 Frequencies --    202.9468               236.1265               246.9938
 Red. masses --      2.4786                 1.3691                 2.5531
 Frc consts  --      0.0601                 0.0450                 0.0918
 IR Inten    --      4.5933                 1.4221                 2.1339

                      7                      8                      9
                      A                      A                      A
 Frequencies --    284.5476               286.8106               345.4487
 Red. masses --      2.2743                 1.5852                 1.1122
 Frc consts  --      0.1085                 0.0768                 0.0782
 IR Inten    --     27.3480                20.4351               128.5289

                     10                     11                     12
                      A                      A                      A
 Frequencies --    386.2131               405.5183               445.3964
 Red. masses --      2.5674                 3.7529                 2.8833
 Frc consts  --      0.2256                 0.3636                 0.3370
 IR Inten    --     12.7464                 6.8306                 5.6127

                     13                     14                     15
                      A                      A                      A
 Frequencies --    513.6661               553.2247               587.0655
 Red. masses --      3.4317                 4.4335                 1.3295
 Frc consts  --      0.5335                 0.7995                 0.2700
 IR Inten    --     14.7446                 4.0968                40.5375

                     16                     17                     18
                      A                      A                      A
 Frequencies --    607.5174               657.8207               671.1939
 Red. masses --      3.0228                 1.2722                 3.5690
 Frc consts  --      0.6573                 0.3244                 0.9473
 IR Inten    --     12.5823                34.7570                11.6679

                     19                     20                     21
                      A                      A                      A
 Frequencies --    711.7365               844.4232               926.0160
 Red. masses --      4.0600                 2.9600                 1.7123
 Frc consts  --      1.2118                 1.2436                 0.8651
 IR Inten    --      0.2393                19.2862                21.1537

                     22                     23                     24
                      A                      A                      A
 Frequencies --    941.0411               982.1541              1008.5808
 Red. masses --      1.4857                 1.7107                 1.5696
 Frc consts  --      0.7752                 0.9723                 0.9407
 IR Inten    --      2.8171                 7.3228                11.0027

                     25                     26                     27
                      A                      A                      A
 Frequencies --   1052.4997              1085.3304              1109.9851
 Red. masses --      1.3586                 4.2190                 1.6603
 Frc consts  --      0.8867                 2.9281                 1.2052
 IR Inten    --     14.3982                92.0647                 2.7734

                     28                     29                     30
                      A                      A                      A
 Frequencies --   1158.4506              1191.8796              1219.4937
 Red. masses --      3.6164                 2.2968                 1.3623
 Frc consts  --      2.8595                 1.9224                 1.1937
 IR Inten    --     12.8840                74.3479                11.6495

                     31                     32                     33
                      A                      A                      A
 Frequencies --   1287.7897              1318.4422              1388.7407
 Red. masses --      2.7186                 2.1990                 1.2945
 Frc consts  --      2.6563                 2.2521                 1.4709
 IR Inten    --     14.0861                15.6277                26.8389

                     34                     35                     36
                      A                      A                      A
 Frequencies --   1399.6568              1415.2549              1424.0463
 Red. masses --      1.3520                 1.2073                 1.5396
 Frc consts  --      1.5606                 1.4248                 1.8396
 IR Inten    --     32.9610                 4.0396                37.1771

                     37                     38                     39
                      A                      A                      A
 Frequencies --   1468.0404              1496.1776              1504.2112
 Red. masses --      1.3790                 1.0652                 1.0618
 Frc consts  --      1.7510                 1.4049                 1.4155
 IR Inten    --     25.1833                 3.1805                 2.0397

                     40                     41                     42
                      A                      A                      A
 Frequencies --   1507.6049              2217.1118              3015.0744
 Red. masses --      1.0711                 6.0592                 1.0650
 Frc consts  --      1.4343                17.5486                 5.7041
 IR Inten    --      3.6437                16.4733                44.0641

                     43                     44                     45
                      A                      A                      A
 Frequencies --   3041.1004              3079.9683              3102.1832
 Red. masses --      1.0367                 1.0986                 1.1017
 Frc consts  --      5.6490                 6.1405                 6.2465
 IR Inten    --     26.3414                20.4162                19.7114

                     46                     47                     48
                      A                      A                      A
 Frequencies --   3133.4252              3144.9544              3230.9996
 Red. masses --      1.0546                 1.0990                 1.1174
 Frc consts  --      6.1007                 6.4041                 6.8727
 IR Inten    --      6.6548                 2.4263                 3.5695

                     49                     50                     51
                      A                      A                      A
 Frequencies --   3499.7514              3728.5686              3822.4559
 Red. masses --      1.1584                 1.0659                 1.0662
 Frc consts  --      8.3596                 8.7309                 9.1786
 IR Inten    --     87.5245                79.3094                24.6411

 - Thermochemistry -
 -------------------
 Temperature   298.150 Kelvin.  Pressure   1.00000 Atm.
 Atom     1 has atomic number  6 and mass  12.00000

 Molecular mass:   126.06808 amu.
 Principal axes and moments of inertia in atomic units:
                           1         2         3
     Eigenvalues --   663.571311418.043461756.82092
           X            0.99999  -0.00048  -0.00390
           Y            0.00045   0.99996  -0.00843
           Z            0.00391   0.00842   0.99996
 This molecule is an asymmetric top.
 Rotational symmetry number  1.
 Warning -- assumption of classical behavior for rotation
           may cause significant error
 Rotational temperatures (Kelvin)      0.13053     0.06108     0.04930
 Rotational constants (GHZ):           2.71974     1.27270     1.02728
 Zero-point vibrational energy     408295.2 (Joules/Mol)
                                   97.58490 (Kcal/Mol)
 Warning -- explicit consideration of  16 degrees of freedom as
           vibrations may cause significant error
 Vibrational temperatures:    140.67   180.37   217.05   291.99   339.73
          (Kelvin)            355.37   409.40   412.66   497.02   555.67
                              583.45   640.83   739.05   795.97   844.66
                              874.08   946.46   965.70  1024.03  1214.94
                             1332.33  1353.95  1413.10  1451.12  1514.31
                             1561.55  1597.02  1666.75  1714.85  1754.58
                             1852.84  1896.94  1998.09  2013.79  2036.23
                             2048.88  2112.18  2152.66  2164.22  2169.10
                             3189.93  4338.01  4375.46  4431.38  4463.34
                             4508.29  4524.88  4648.68  5035.36  5364.57
                             5499.65

 Zero-point correction=                           0.155511 (Hartree/Particle)
 Thermal correction to Energy=                    0.165633
 Thermal correction to Enthalpy=                  0.166577
 Thermal correction to Gibbs Free Energy=         0.121297
 Sum of electronic and zero-point Energies=           -422.972683
 Sum of electronic and thermal Energies=              -422.962562
 Sum of electronic and thermal Enthalpies=            -422.961617
 Sum of electronic and thermal Free Energies=         -423.006898

                     E (Thermal)             CV                S
                      KCal/Mol        Cal/Mol-Kelvin    Cal/Mol-Kelvin
 Total                  103.936             38.277             95.301
 Electronic               0.000              0.000              0.000
 Translational            0.889              2.981             40.409
 Rotational               0.889              2.981             28.893
 Vibrational            102.159             32.316             25.999
 Vibration     1          0.603              1.951              3.498
 Vibration     2          0.610              1.928              3.016
 Vibration     3          0.618              1.902              2.661
 Vibration     4          0.639              1.836              2.106
 Vibration     5          0.655              1.785              1.832
 Vibration     6          0.661              1.768              1.752
 Vibration     7          0.683              1.702              1.506
 Vibration     8          0.684              1.698              1.493
 Vibration     9          0.724              1.585              1.187
 Vibration    10          0.755              1.500              1.015
 Vibration    11          0.770              1.458              0.943
 Vibration    12          0.805              1.371              0.810
 Vibration    13          0.869              1.220              0.625
 Vibration    14          0.909              1.133              0.538
 Vibration    15          0.944              1.059              0.472
 Vibration    16          0.966              1.016              0.437

 Normal termination of Gaussian 09 at Tue Jan 28 09:52:57 2020.
