 Gaussian 09, Revision D.01,
 Gaussian 09:  ES64L-G09RevD.01 24-Apr-2013

 -----------------------------
 # b3lyp 6-31G(2df,p) opt Freq
 -----------------------------

 -----
 titel
 -----
 Symbolic Z-matrix:
 Charge =  0 Multiplicity = 1

 SCF Done:  E(RB3LYP) =  -423.164539672     A.U. after   14 cycles
 Optimization completed.
    -- Stationary point found.
 Normal termination of Gaussian 09 at Tue Jan 28 13:30:19 2020.

 ----------------------------------------------------------------------
 #N Geom=AllCheck Guess=TCheck SCRF=Check GenChk RB3LYP/6-31G(2df,p) Fr
 eq
 ----------------------------------------------------------------------

 Structure from the checkpoint file:  "/scratch/puck/g09_d3151c29-06c8-43cf-81ca-72901327343e/Gau-31207.chk"
 -----
 titel
 -----
 Charge =  0 Multiplicity = 1

                         Standard orientation:
 ---------------------------------------------------------------------
 Center     Atomic      Atomic             Coordinates (Angstroms)
 Number     Number       Type             X           Y           Z
 ---------------------------------------------------------------------
      1          8           0       -2.983820   -0.208254   -0.688122
      2          6           0       -1.982189   -0.821495    0.110029
      3          6           0       -1.047224    0.268828    0.597400
      4          6           0        0.254858   -0.282710    1.265307
      5          6           0        1.086906    0.324398    0.135319
      6          6           0        0.832276    1.814057    0.020451
      7          6           0       -0.210470    0.908650   -0.519621
      8          6           0        2.181107   -0.339735   -0.572538
      9          8           0        2.652514   -1.410255   -0.262602
     10          1           0       -3.559737   -0.896542   -1.033378
     11          1           0       -2.418007   -1.343360    0.977118
     12          1           0       -1.409070   -1.564020   -0.468863
     13          1           0       -1.617923    0.990750    1.191751
     14          1           0        0.482533    0.080483    2.271281
     15          1           0        0.303269   -1.373973    1.266077
     16          1           0        0.663476    2.377004    0.935531
     17          1           0        1.437661    2.331907   -0.717780
     18          1           0       -0.475560    0.895081   -1.569558
     19          1           0        2.552221    0.218792   -1.464479
 ---------------------------------------------------------------------

 SCF Done:  E(RB3LYP) =  -423.164539672     A.U. after    1 cycles

 The electronic state is 1-A.
 Alpha  occ. eigenvalues --  -19.14062 -19.12528 -10.26194 -10.23338 -10.21073
 Alpha  occ. eigenvalues --  -10.20799 -10.20618 -10.19952 -10.19209  -1.03237
 Alpha  occ. eigenvalues --   -1.02163  -0.91175  -0.76833  -0.69842  -0.66642
 Alpha  occ. eigenvalues --   -0.62069  -0.57250  -0.53566  -0.51859  -0.49549
 Alpha  occ. eigenvalues --   -0.48200  -0.45814  -0.43173  -0.41768  -0.40133
 Alpha  occ. eigenvalues --   -0.39643  -0.37824  -0.34903  -0.34301  -0.33729
 Alpha  occ. eigenvalues --   -0.30405  -0.27435  -0.26669  -0.24326
 Alpha virt. eigenvalues --   -0.01670   0.06979   0.09951   0.10462   0.10839
 Alpha virt. eigenvalues --    0.11751   0.13140   0.13674   0.15593   0.16145
 Alpha virt. eigenvalues --    0.17645   0.18672   0.19367   0.20885   0.21778

 Mulliken charges:
               1
     1  O   -0.424846
     2  C   -0.099657
     3  C    0.028936
     4  C   -0.344189
     5  C    0.286494
     6  C   -0.347465
     7  C   -0.077437
     8  C    0.052138
     9  O   -0.275498
    10  H    0.289735
    11  H    0.091231
    12  H    0.091971
    13  H    0.083096
    14  H    0.103180
    15  H    0.127370
    16  H    0.119867
    17  H    0.124859
    18  H    0.110507
    19  H    0.059707
 Sum of Mulliken charges =   0.00000

 Dipole moment (field-independent basis, Debye):
    X=             -2.1467    Y=              1.0608    Z=             -0.1163  Tot=              2.3973
 Quadrupole moment (field-independent basis, Debye-Ang):
   XX=            -57.9992   YY=            -53.8636   ZZ=            -50.6681
   XY=             11.9346   XZ=              0.0154   YZ=              0.7875

  Exact polarizability:  88.080  -2.804  77.714  -2.827  -2.378  68.753
 Approx polarizability: 121.218 -15.592 124.870   0.434  -5.715 102.709

                      1                      2                      3
                      A                      A                      A
 Frequencies --     61.7494               114.1508               167.6935
 Red. masses --      6.6309                 3.9804                 2.8951
 Frc consts  --      0.0149                 0.0306                 0.0480
 IR Inten    --      2.4039                 9.2828                 5.2119

                      4                      5                      6
                      A                      A                      A
 Frequencies --    195.1741               220.5946               262.8183
 Red. masses --      3.7809                 2.5668                 1.1561
 Frc consts  --      0.0849                 0.0736                 0.0470
 IR Inten    --     11.7334                 2.9689                93.4516

                      7                      8                      9
                      A                      A                      A
 Frequencies --    327.1995               377.8219               407.2629
 Red. masses --      2.1779                 1.9550                 3.5872
 Frc consts  --      0.1374                 0.1644                 0.3506
 IR Inten    --      4.7150                 2.1315                 2.0286

                     10                     11                     12
                      A                      A                      A
 Frequencies --    478.1260               518.6638               689.5730
 Red. masses --      3.0909                 3.9308                 3.5670
 Frc consts  --      0.4163                 0.6230                 0.9993
 IR Inten    --      1.5634                18.2144                11.9688

                     13                     14                     15
                      A                      A                      A
 Frequencies --    758.7087               767.8232               851.9180
 Red. masses --      5.0956                 2.4331                 2.0565
 Frc consts  --      1.7282                 0.8451                 0.8794
 IR Inten    --      2.3482                 4.9986                 2.4437

                     16                     17                     18
                      A                      A                      A
 Frequencies --    873.2425               938.6978               965.2728
 Red. masses --      1.7737                 1.3317                 1.4247
 Frc consts  --      0.7969                 0.6914                 0.7821
 IR Inten    --      2.9299                 0.7637                 4.6507

                     19                     20                     21
                      A                      A                      A
 Frequencies --    976.9161              1007.5076              1031.7663
 Red. masses --      2.0754                 1.9508                 1.9485
 Frc consts  --      1.1670                 1.1667                 1.2221
 IR Inten    --     92.9685                 4.3443                 9.4752

                     22                     23                     24
                      A                      A                      A
 Frequencies --   1051.6144              1078.0155              1083.2496
 Red. masses --      1.5399                 1.4643                 3.8453
 Frc consts  --      1.0034                 1.0026                 2.6585
 IR Inten    --      3.3897                18.1406                50.6223

                     25                     26                     27
                      A                      A                      A
 Frequencies --   1098.1653              1133.7398              1146.2811
 Red. masses --      1.5997                 1.5579                 1.6802
 Frc consts  --      1.1366                 1.1799                 1.3008
 IR Inten    --      6.8297                 2.8254                 9.3393

                     28                     29                     30
                      A                      A                      A
 Frequencies --   1227.9076              1232.5437              1249.9632
 Red. masses --      1.3435                 1.3798                 1.5977
 Frc consts  --      1.1935                 1.2350                 1.4707
 IR Inten    --      4.7527                 1.0519                 0.7901

                     31                     32                     33
                      A                      A                      A
 Frequencies --   1265.7702              1281.3601              1315.3098
 Red. masses --      1.3455                 1.4074                 2.0380
 Frc consts  --      1.2701                 1.3615                 2.0774
 IR Inten    --     22.6732                43.8419                 5.0735

                     34                     35                     36
                      A                      A                      A
 Frequencies --   1362.3987              1383.1748              1437.0439
 Red. masses --      1.8651                 1.9987                 1.4351
 Frc consts  --      2.0397                 2.2529                 1.7461
 IR Inten    --     18.3370                 6.8097                12.5572

                     37                     38                     39
                      A                      A                      A
 Frequencies --   1459.6145              1481.9320              1495.1071
 Red. masses --      1.5194                 1.1822                 1.1775
 Frc consts  --      1.9073                 1.5296                 1.5509
 IR Inten    --      6.8876                 2.2336                 7.0489

                     40                     41                     42
                      A                      A                      A
 Frequencies --   1517.0330              1796.0494              2848.5717
 Red. masses --      1.0835                10.3571                 1.0812
 Frc consts  --      1.4692                19.6846                 5.1690
 IR Inten    --      4.0869               264.1181               121.5148

                     43                     44                     45
                      A                      A                      A
 Frequencies --   2963.4756              2994.1675              3048.6026
 Red. masses --      1.0549                 1.1051                 1.0839
 Frc consts  --      5.4581                 5.8370                 5.9352
 IR Inten    --     44.9213                44.8348                38.3612

                     46                     47                     48
                      A                      A                      A
 Frequencies --   3061.2392              3108.9343              3117.3198
 Red. masses --      1.0627                 1.0561                 1.1052
 Frc consts  --      5.8673                 6.0142                 6.3275
 IR Inten    --     38.6758                14.6684                16.2050

                     49                     50                     51
                      A                      A                      A
 Frequencies --   3192.4408              3202.1088              3831.8432
 Red. masses --      1.1031                 1.1033                 1.0664
 Frc consts  --      6.6236                 6.6652                 9.2253
 IR Inten    --      2.3137                 9.8673                24.9575

 - Thermochemistry -
 -------------------
 Temperature   298.150 Kelvin.  Pressure   1.00000 Atm.
 Atom     1 has atomic number  8 and mass  15.99491

 Molecular mass:   126.06808 amu.
 Principal axes and moments of inertia in atomic units:
                           1         2         3
     Eigenvalues --   608.125651734.144531940.76909
           X            0.99931   0.03656  -0.00575
           Y           -0.03668   0.99910  -0.02128
           Z            0.00496   0.02148   0.99976
 This molecule is an asymmetric top.
 Rotational symmetry number  1.
 Warning -- assumption of classical behavior for rotation
           may cause significant error
 Rotational temperatures (Kelvin)      0.14243     0.04995     0.04463
 Rotational constants (GHZ):           2.96771     1.04071     0.92991
 Zero-point vibrational energy     415449.1 (Joules/Mol)
                                   99.29471 (Kcal/Mol)
 Warning -- explicit consideration of  11 degrees of freedom as
           vibrations may cause significant error
 Vibrational temperatures:     88.84   164.24   241.27   280.81   317.39
          (Kelvin)            378.14   470.77   543.60   585.96   687.92
                              746.24   992.14  1091.61  1104.72  1225.72
                             1256.40  1350.58  1388.81  1405.56  1449.58
                             1484.48  1513.04  1551.02  1558.55  1580.01
                             1631.20  1649.24  1766.68  1773.35  1798.42
                             1821.16  1843.59  1892.43  1960.19  1990.08
                             2067.58  2100.06  2132.17  2151.12  2182.67
                             2584.11  4098.45  4263.78  4307.93  4386.25
                             4404.43  4473.06  4485.12  4593.20  4607.11
                             5513.16

 Zero-point correction=                           0.158236 (Hartree/Particle)
 Thermal correction to Energy=                    0.167133
 Thermal correction to Enthalpy=                  0.168077
 Thermal correction to Gibbs Free Energy=         0.124251
 Sum of electronic and zero-point Energies=           -423.006303
 Sum of electronic and thermal Energies=              -422.997407
 Sum of electronic and thermal Enthalpies=            -422.996463
 Sum of electronic and thermal Free Energies=         -423.040289

                     E (Thermal)             CV                S
                      KCal/Mol        Cal/Mol-Kelvin    Cal/Mol-Kelvin
 Total                  104.877             32.986             92.240
 Electronic               0.000              0.000              0.000
 Translational            0.889              2.981             40.409
 Rotational               0.889              2.981             29.105
 Vibrational            103.100             27.025             22.727
 Vibration     1          0.597              1.973              4.400
 Vibration     2          0.607              1.938              3.197
 Vibration     3          0.624              1.882              2.461
 Vibration     4          0.636              1.847              2.178
 Vibration     5          0.647              1.810              1.954
 Vibration     6          0.670              1.741              1.643
 Vibration     7          0.711              1.621              1.274
 Vibration     8          0.748              1.517              1.048
 Vibration     9          0.772              1.454              0.936
 Vibration    10          0.835              1.299              0.715
 Vibration    11          0.874              1.209              0.613

 Normal termination of Gaussian 09 at Tue Jan 28 14:11:38 2020.
