 Gaussian 09, Revision D.01,
 Gaussian 09:  ES64L-G09RevD.01 24-Apr-2013

 -----------------------------
 # b3lyp 6-31G(2df,p) opt Freq
 -----------------------------

 -----
 titel
 -----
 Symbolic Z-matrix:
 Charge =  0 Multiplicity = 1

 SCF Done:  E(RB3LYP) =  -423.195311650     A.U. after   12 cycles
 Optimization completed.
    -- Stationary point found.
 Normal termination of Gaussian 09 at Mon Jan 27 18:02:21 2020.

 ----------------------------------------------------------------------
 #N Geom=AllCheck Guess=TCheck SCRF=Check GenChk RB3LYP/6-31G(2df,p) Fr
 eq
 ----------------------------------------------------------------------

 Structure from the checkpoint file:  "/scratch/puck/g09_2dcfbfea-24cd-4379-8a53-6b1057cef287/Gau-68019.chk"
 -----
 titel
 -----
 Charge =  0 Multiplicity = 1

                         Standard orientation:
 ---------------------------------------------------------------------
 Center     Atomic      Atomic             Coordinates (Angstroms)
 Number     Number       Type             X           Y           Z
 ---------------------------------------------------------------------
      1          6           0        2.476119   -0.854899   -0.112917
      2          6           0        1.126367   -0.220565   -0.041639
      3          8           0        0.020329   -1.083664   -0.258545
      4          6           0       -1.042531   -0.152634   -0.039687
      5          6           0       -2.390343   -0.811215   -0.031284
      6          6           0       -0.703135    0.981999   -1.041324
      7          6           0        0.715491    1.168340   -0.532830
      8          6           0        0.618817    0.800675    0.947571
      9          8           0       -0.719461    0.442762    1.223140
     10          1           0        3.252283   -0.121607    0.124440
     11          1           0        2.553717   -1.680944    0.601085
     12          1           0        2.674926   -1.247490   -1.115564
     13          1           0       -3.166850   -0.070486    0.172914
     14          1           0       -2.587179   -1.273430   -1.001281
     15          1           0       -2.422116   -1.581457    0.742450
     16          1           0       -0.755593    0.637428   -2.076456
     17          1           0       -1.340692    1.857362   -0.897940
     18          1           0        1.417948    1.891881   -0.922480
     19          1           0        1.161898    1.245752    1.768738
 ---------------------------------------------------------------------

 SCF Done:  E(RB3LYP) =  -423.195311650     A.U. after    1 cycles

 The electronic state is 1-A.
 Alpha  occ. eigenvalues --  -19.14347 -19.14249 -10.27881 -10.23534 -10.22885
 Alpha  occ. eigenvalues --  -10.18798 -10.18515 -10.18399 -10.18070  -1.10180
 Alpha  occ. eigenvalues --   -0.99188  -0.84050  -0.77681  -0.73032  -0.68959
 Alpha  occ. eigenvalues --   -0.59441  -0.57562  -0.55792  -0.50877  -0.47447
 Alpha  occ. eigenvalues --   -0.47015  -0.42553  -0.42106  -0.41149  -0.40318
 Alpha  occ. eigenvalues --   -0.40176  -0.38405  -0.36967  -0.36098  -0.35644
 Alpha  occ. eigenvalues --   -0.30704  -0.29954  -0.25281  -0.23219
 Alpha virt. eigenvalues --    0.09071   0.10483   0.12149   0.12503   0.14052
 Alpha virt. eigenvalues --    0.14819   0.15482   0.15778   0.16078   0.16745
 Alpha virt. eigenvalues --    0.18759   0.19822   0.20122   0.21050   0.22322

 Mulliken charges:
               1
     1  C   -0.502886
     2  C    0.420454
     3  O   -0.311746
     4  C    0.439186
     5  C   -0.488358
     6  C   -0.258786
     7  C   -0.221756
     8  C   -0.003070
     9  O   -0.282438
    10  H    0.122974
    11  H    0.134051
    12  H    0.129771
    13  H    0.132718
    14  H    0.132161
    15  H    0.141050
    16  H    0.107720
    17  H    0.108225
    18  H    0.093256
    19  H    0.107475
 Sum of Mulliken charges =   0.00000

 Dipole moment (field-independent basis, Debye):
    X=              0.7066    Y=              0.8868    Z=             -0.8811  Tot=              1.4360
 Quadrupole moment (field-independent basis, Debye-Ang):
   XX=            -47.6013   YY=            -53.8361   ZZ=            -53.9461
   XY=              1.4797   XZ=              2.3692   YZ=             -0.6775

  Exact polarizability:  85.120   0.329  69.240   2.045  -0.929  66.613
 Approx polarizability: 109.925   0.121 105.697   0.294   1.050 104.736

                      1                      2                      3
                      A                      A                      A
 Frequencies --    171.8632               199.0134               217.6923
 Red. masses --      1.0284                 1.0262                 2.7669
 Frc consts  --      0.0179                 0.0239                 0.0773
 IR Inten    --      0.0663                 0.1235                 2.2016

                      4                      5                      6
                      A                      A                      A
 Frequencies --    237.9360               305.4227               346.7436
 Red. masses --      2.5425                 2.5642                 2.5958
 Frc consts  --      0.0848                 0.1409                 0.1839
 IR Inten    --      1.8644                 2.0985                 2.1036

                      7                      8                      9
                      A                      A                      A
 Frequencies --    452.6275               573.0312               585.4966
 Red. masses --      1.9961                 4.1674                 3.9791
 Frc consts  --      0.2409                 0.8063                 0.8037
 IR Inten    --      0.3028                 1.1257                 6.1860

                     10                     11                     12
                      A                      A                      A
 Frequencies --    620.4583               647.4341               720.4409
 Red. masses --      5.0851                 3.8957                 5.1570
 Frc consts  --      1.1534                 0.9621                 1.5771
 IR Inten    --      4.4017                 4.4841                 0.8914

                     13                     14                     15
                      A                      A                      A
 Frequencies --    744.2020               819.7446               831.4640
 Red. masses --      4.2437                 3.8565                 3.1167
 Frc consts  --      1.3848                 1.5269                 1.2695
 IR Inten    --     12.3524                43.6259                11.5170

                     16                     17                     18
                      A                      A                      A
 Frequencies --    853.7514               880.8070               897.4546
 Red. masses --      2.2761                 1.6644                 2.3166
 Frc consts  --      0.9775                 0.7608                 1.0993
 IR Inten    --      6.3697                10.9706                19.9298

                     19                     20                     21
                      A                      A                      A
 Frequencies --    938.4624               981.3791               991.2834
 Red. masses --      2.3169                 1.5813                 1.4726
 Frc consts  --      1.2022                 0.8973                 0.8525
 IR Inten    --     14.6191                 2.7408                 3.8938

                     22                     23                     24
                      A                      A                      A
 Frequencies --   1023.6733              1031.7259              1063.4578
 Red. masses --      1.7746                 1.6663                 3.9712
 Frc consts  --      1.0956                 1.0450                 2.6462
 IR Inten    --      4.4245                13.1361                53.9668

                     25                     26                     27
                      A                      A                      A
 Frequencies --   1118.8242              1120.6915              1152.7922
 Red. masses --      1.7405                 1.8219                 2.5413
 Frc consts  --      1.2837                 1.3482                 1.9898
 IR Inten    --     11.1233                12.0987                53.6601

                     28                     29                     30
                      A                      A                      A
 Frequencies --   1165.0530              1195.1190              1246.3246
 Red. masses --      1.4345                 1.9024                 2.1243
 Frc consts  --      1.1472                 1.6009                 1.9441
 IR Inten    --      8.1086                 1.7136                24.3972

                     31                     32                     33
                      A                      A                      A
 Frequencies --   1273.6436              1289.1183              1348.2248
 Red. masses --      2.7910                 1.8113                 2.2034
 Frc consts  --      2.6675                 1.7735                 2.3598
 IR Inten    --     35.5065                19.3389                20.6636

                     34                     35                     36
                      A                      A                      A
 Frequencies --   1405.3127              1420.6397              1459.5829
 Red. masses --      1.4102                 1.5687                 2.7008
 Frc consts  --      1.6408                 1.8654                 3.3901
 IR Inten    --      1.6589                26.7944                12.5641

                     37                     38                     39
                      A                      A                      A
 Frequencies --   1478.0587              1479.5580              1482.6641
 Red. masses --      1.0467                 1.1047                 1.1843
 Frc consts  --      1.3473                 1.4249                 1.5339
 IR Inten    --      2.7435                 2.1020                10.1254

                     40                     41                     42
                      A                      A                      A
 Frequencies --   1489.0175              1503.0393              3036.5704
 Red. masses --      1.0550                 1.1095                 1.0353
 Frc consts  --      1.3781                 1.4768                 5.6243
 IR Inten    --      3.2754                 1.2651                29.1941

                     43                     44                     45
                      A                      A                      A
 Frequencies --   3059.7796              3071.7319              3101.8880
 Red. masses --      1.0352                 1.0568                 1.1016
 Frc consts  --      5.7104                 5.8752                 6.2447
 IR Inten    --      8.1793                24.3145                17.3217

                     46                     47                     48
                      A                      A                      A
 Frequencies --   3114.7128              3128.2327              3139.1940
 Red. masses --      1.1006                 1.1084                 1.1022
 Frc consts  --      6.2911                 6.3907                 6.3993
 IR Inten    --     14.1873                10.0909                14.1832

                     49                     50                     51
                      A                      A                      A
 Frequencies --   3140.5289              3212.6699              3227.0561
 Red. masses --      1.1024                 1.0921                 1.0961
 Frc consts  --      6.4062                 6.6409                 6.7253
 IR Inten    --      9.4546                 5.2440                 9.7488

 - Thermochemistry -
 -------------------
 Temperature   298.150 Kelvin.  Pressure   1.00000 Atm.
 Atom     1 has atomic number  6 and mass  12.00000

 Molecular mass:   126.06808 amu.
 Principal axes and moments of inertia in atomic units:
                           1         2         3
     Eigenvalues --   562.242951117.521131218.69944
           X            0.99989   0.00429   0.01435
           Y           -0.00324   0.99738  -0.07232
           Z           -0.01462   0.07227   0.99728
 This molecule is an asymmetric top.
 Rotational symmetry number  1.
 Warning -- assumption of classical behavior for rotation
           may cause significant error
 Rotational temperatures (Kelvin)      0.15405     0.07751     0.07107
 Rotational constants (GHZ):           3.20990     1.61495     1.48087
 Zero-point vibrational energy     418666.6 (Joules/Mol)
                                  100.06372 (Kcal/Mol)
 Warning -- explicit consideration of  10 degrees of freedom as
           vibrations may cause significant error
 Vibrational temperatures:    247.27   286.34   313.21   342.34   439.43
          (Kelvin)            498.89   651.23   824.46   842.40   892.70
                              931.51  1036.55  1070.74  1179.43  1196.29
                             1228.36  1267.28  1291.24  1350.24  1411.98
                             1426.23  1472.84  1484.42  1530.08  1609.74
                             1612.42  1658.61  1676.25  1719.51  1793.18
                             1832.49  1854.75  1939.79  2021.93  2043.98
                             2100.01  2126.59  2128.75  2133.22  2142.36
                             2162.54  4368.94  4402.33  4419.53  4462.92
                             4481.37  4500.82  4516.59  4518.51  4622.31
                             4643.01

 Zero-point correction=                           0.159462 (Hartree/Particle)
 Thermal correction to Energy=                    0.167104
 Thermal correction to Enthalpy=                  0.168048
 Thermal correction to Gibbs Free Energy=         0.127935
 Sum of electronic and zero-point Energies=           -423.035850
 Sum of electronic and thermal Energies=              -423.028208
 Sum of electronic and thermal Enthalpies=            -423.027264
 Sum of electronic and thermal Free Energies=         -423.067377

                     E (Thermal)             CV                S
                      KCal/Mol        Cal/Mol-Kelvin    Cal/Mol-Kelvin
 Total                  104.859             31.050             84.424
 Electronic               0.000              0.000              0.000
 Translational            0.889              2.981             40.409
 Rotational               0.889              2.981             28.128
 Vibrational            103.082             25.088             15.887
 Vibration     1          0.626              1.877              2.415
 Vibration     2          0.637              1.841              2.142
 Vibration     3          0.646              1.814              1.978
 Vibration     4          0.656              1.783              1.818
 Vibration     5          0.696              1.663              1.387
 Vibration     6          0.725              1.582              1.181
 Vibration     7          0.811              1.355              0.788
 Vibration     8          0.929              1.090              0.498
 Vibration     9          0.943              1.063              0.475
 Vibration    10          0.981              0.989              0.416

 Normal termination of Gaussian 09 at Mon Jan 27 18:49:59 2020.
