 Gaussian 09, Revision D.01,
 Gaussian 09:  ES64L-G09RevD.01 24-Apr-2013

 -----------------------------
 # b3lyp 6-31G(2df,p) opt Freq
 -----------------------------

 -----
 titel
 -----
 Symbolic Z-matrix:
 Charge =  0 Multiplicity = 1

 SCF Done:  E(RB3LYP) =  -423.178706456     A.U. after   13 cycles
 Optimization completed.
    -- Stationary point found.
 Normal termination of Gaussian 09 at Mon Jan 27 12:23:08 2020.

 ----------------------------------------------------------------------
 #N Geom=AllCheck Guess=TCheck SCRF=Check GenChk RB3LYP/6-31G(2df,p) Fr
 eq
 ----------------------------------------------------------------------

 Structure from the checkpoint file:  "/scratch/puck/g09_8a668b85-c869-4cf5-a1c5-e03c61f6a594/Gau-165681.chk"
 -----
 titel
 -----
 Charge =  0 Multiplicity = 1

                         Standard orientation:
 ---------------------------------------------------------------------
 Center     Atomic      Atomic             Coordinates (Angstroms)
 Number     Number       Type             X           Y           Z
 ---------------------------------------------------------------------
      1          6           0       -2.233626    0.290396   -0.410483
      2          6           0       -1.904635   -0.851947    0.583982
      3          6           0       -0.384161   -0.817090    0.670778
      4          6           0        0.377271   -0.829530   -0.645517
      5          6           0        1.889560   -0.846925   -0.540317
      6          8           0        2.242476    0.174914    0.399757
      7          6           0        1.257909    1.201412    0.362505
      8          6           0       -0.017476    0.480227    0.011614
      9          8           0       -1.139513    1.212034   -0.361988
     10          1           0       -2.334952   -0.103875   -1.430862
     11          1           0       -3.146501    0.838625   -0.165441
     12          1           0       -2.324070   -0.641621    1.573064
     13          1           0       -2.315384   -1.807330    0.243582
     14          1           0        0.104731   -1.162953    1.575982
     15          1           0       -0.089619   -1.199046   -1.551991
     16          1           0        2.313231   -1.782386   -0.158759
     17          1           0        2.332733   -0.644581   -1.528387
     18          1           0        1.247319    1.682905    1.345581
     19          1           0        1.479749    1.965430   -0.400295
 ---------------------------------------------------------------------

 SCF Done:  E(RB3LYP) =  -423.178706456     A.U. after    1 cycles

 The electronic state is 1-A.
 Alpha  occ. eigenvalues --  -19.14849 -19.13750 -10.23583 -10.23362 -10.22902
 Alpha  occ. eigenvalues --  -10.22737 -10.19307 -10.19018 -10.18859  -1.05436
 Alpha  occ. eigenvalues --   -1.03056  -0.85282  -0.76554  -0.73461  -0.65418
 Alpha  occ. eigenvalues --   -0.63091  -0.56480  -0.55734  -0.51181  -0.48376
 Alpha  occ. eigenvalues --   -0.47413  -0.45416  -0.44740  -0.42265  -0.40985
 Alpha  occ. eigenvalues --   -0.39967  -0.38258  -0.36048  -0.33748  -0.32398
 Alpha  occ. eigenvalues --   -0.31949  -0.27541  -0.25264  -0.22951
 Alpha virt. eigenvalues --    0.08987   0.09238   0.11149   0.11969   0.12892
 Alpha virt. eigenvalues --    0.13644   0.14487   0.15214   0.15763   0.17346
 Alpha virt. eigenvalues --    0.17646   0.18652   0.20186   0.21240   0.22448

 Mulliken charges:
               1
     1  C   -0.102685
     2  C   -0.255789
     3  C   -0.124861
     4  C   -0.171215
     5  C   -0.097600
     6  O   -0.260319
     7  C   -0.170699
     8  C    0.453217
     9  O   -0.305540
    10  H    0.102837
    11  H    0.113540
    12  H    0.112609
    13  H    0.106810
    14  H    0.095983
    15  H    0.089399
    16  H    0.108006
    17  H    0.094884
    18  H    0.111941
    19  H    0.099481
 Sum of Mulliken charges =   0.00000

 Dipole moment (field-independent basis, Debye):
    X=             -1.5062    Y=             -1.2298    Z=             -0.3709  Tot=              1.9795
 Quadrupole moment (field-independent basis, Debye-Ang):
   XX=            -53.9667   YY=            -53.6652   ZZ=            -51.7775
   XY=              0.9990   XZ=             -2.0663   YZ=              1.4663

  Exact polarizability:  84.764  -0.338  71.302  -2.664   1.603  66.773
 Approx polarizability: 109.346  -1.881 109.256  -2.155   2.388 102.936

                      1                      2                      3
                      A                      A                      A
 Frequencies --    177.6640               197.7449               242.4451
 Red. masses --      3.9402                 2.0562                 2.7249
 Frc consts  --      0.0733                 0.0474                 0.0944
 IR Inten    --      1.6675                 2.3440                 7.4047

                      4                      5                      6
                      A                      A                      A
 Frequencies --    266.9714               323.7133               415.8906
 Red. masses --      2.0876                 2.6900                 2.7734
 Frc consts  --      0.0877                 0.1661                 0.2826
 IR Inten    --      1.1469                 2.1084                 0.9086

                      7                      8                      9
                      A                      A                      A
 Frequencies --    480.2566               644.0909               683.5770
 Red. masses --      5.3974                 3.2055                 2.8428
 Frc consts  --      0.7335                 0.7835                 0.7826
 IR Inten    --      0.6428                 2.3227                 0.0764

                     10                     11                     12
                      A                      A                      A
 Frequencies --    716.6857               757.5627               857.1151
 Red. masses --      5.6491                 3.9501                 2.9827
 Frc consts  --      1.7096                 1.3357                 1.2910
 IR Inten    --      9.8005                 8.2285                11.2594

                     13                     14                     15
                      A                      A                      A
 Frequencies --    865.3676               899.4924               923.5857
 Red. masses --      1.8286                 3.4393                 2.4301
 Frc consts  --      0.8068                 1.6395                 1.2213
 IR Inten    --      5.0453                 6.5117                 7.1089

                     16                     17                     18
                      A                      A                      A
 Frequencies --    938.7800               942.1574              1002.4543
 Red. masses --      1.6388                 2.2774                 1.7627
 Frc consts  --      0.8509                 1.1911                 1.0436
 IR Inten    --      2.0897                15.9771                48.5264

                     19                     20                     21
                      A                      A                      A
 Frequencies --   1028.0298              1034.0677              1067.5723
 Red. masses --      1.5454                 2.6080                 2.2317
 Frc consts  --      0.9623                 1.6431                 1.4986
 IR Inten    --      1.5798                20.3291                14.7338

                     22                     23                     24
                      A                      A                      A
 Frequencies --   1091.7227              1101.1797              1110.9758
 Red. masses --      2.1994                 2.8252                 2.2931
 Frc consts  --      1.5445                 2.0184                 1.6675
 IR Inten    --      4.8352                46.5814                16.4311

                     25                     26                     27
                      A                      A                      A
 Frequencies --   1131.5591              1208.5818              1214.2639
 Red. masses --      2.2806                 1.2706                 1.3330
 Frc consts  --      1.7205                 1.0935                 1.1580
 IR Inten    --     11.9349                34.2318                 4.1869

                     28                     29                     30
                      A                      A                      A
 Frequencies --   1225.5347              1233.0132              1248.0051
 Red. masses --      1.3808                 1.7548                 1.2242
 Frc consts  --      1.2219                 1.5719                 1.1234
 IR Inten    --     17.9233                26.9166                10.2119

                     31                     32                     33
                      A                      A                      A
 Frequencies --   1274.8439              1305.3166              1316.4124
 Red. masses --      1.3259                 1.8092                 1.4917
 Frc consts  --      1.2697                 1.8162                 1.5230
 IR Inten    --     10.7293                12.0353                 3.7087

                     34                     35                     36
                      A                      A                      A
 Frequencies --   1359.5116              1381.3383              1402.9499
 Red. masses --      1.4868                 1.5701                 2.0997
 Frc consts  --      1.6190                 1.7651                 2.4349
 IR Inten    --     21.2836                 7.5770                 1.1659

                     37                     38                     39
                      A                      A                      A
 Frequencies --   1440.8217              1496.1493              1511.5854
 Red. masses --      2.1096                 1.1038                 1.0881
 Frc consts  --      2.5802                 1.4557                 1.4648
 IR Inten    --     17.2241                 1.7247                 0.6583

                     40                     41                     42
                      A                      A                      A
 Frequencies --   1522.6388              1524.5350              2974.9726
 Red. masses --      1.0904                 1.1062                 1.0684
 Frc consts  --      1.4894                 1.5148                 5.5713
 IR Inten    --      0.7832                 0.7407                66.3439

                     43                     44                     45
                      A                      A                      A
 Frequencies --   2980.7099              3009.1862              3048.9783
 Red. masses --      1.0703                 1.0701                 1.0597
 Frc consts  --      5.6029                 5.7094                 5.8039
 IR Inten    --     86.2650                45.7881                31.7495

                     46                     47                     48
                      A                      A                      A
 Frequencies --   3060.2099              3072.7546              3087.0923
 Red. masses --      1.0937                 1.0934                 1.0996
 Frc consts  --      6.0346                 6.0823                 6.1740
 IR Inten    --     42.7032                31.1377                23.0306

                     49                     50                     51
                      A                      A                      A
 Frequencies --   3101.1179              3160.2901              3171.2029
 Red. masses --      1.1007                 1.0913                 1.0901
 Frc consts  --      6.2365                 6.4214                 6.4588
 IR Inten    --     39.9525                 9.2154                11.7508

 - Thermochemistry -
 -------------------
 Temperature   298.150 Kelvin.  Pressure   1.00000 Atm.
 Atom     1 has atomic number  6 and mass  12.00000

 Molecular mass:   126.06808 amu.
 Principal axes and moments of inertia in atomic units:
                           1         2         3
     Eigenvalues --   486.874931253.593941453.88001
           X            0.99986   0.01279  -0.01033
           Y           -0.01255   0.99965   0.02327
           Z            0.01063  -0.02313   0.99968
 This molecule is an asymmetric top.
 Rotational symmetry number  1.
 Warning -- assumption of classical behavior for rotation
           may cause significant error
 Rotational temperatures (Kelvin)      0.17790     0.06909     0.05957
 Rotational constants (GHZ):           3.70679     1.43965     1.24133
 Zero-point vibrational energy     426066.0 (Joules/Mol)
                                  101.83222 (Kcal/Mol)
 Warning -- explicit consideration of   7 degrees of freedom as
           vibrations may cause significant error
 Vibrational temperatures:    255.62   284.51   348.82   384.11   465.75
          (Kelvin)            598.37   690.98   926.70   983.51  1031.15
                             1089.96  1233.20  1245.07  1294.17  1328.83
                             1350.69  1355.55  1442.31  1479.10  1487.79
                             1536.00  1570.74  1584.35  1598.44  1628.06
                             1738.88  1747.05  1763.27  1774.03  1795.60
                             1834.21  1878.06  1894.02  1956.03  1987.44
                             2018.53  2073.02  2152.62  2174.83  2190.73
                             2193.46  4280.32  4288.57  4329.54  4386.79
                             4402.95  4421.00  4441.63  4461.81  4546.95
                             4562.65

 Zero-point correction=                           0.162280 (Hartree/Particle)
 Thermal correction to Energy=                    0.169319
 Thermal correction to Enthalpy=                  0.170263
 Thermal correction to Gibbs Free Energy=         0.131054
 Sum of electronic and zero-point Energies=           -423.016426
 Sum of electronic and thermal Energies=              -423.009388
 Sum of electronic and thermal Enthalpies=            -423.008443
 Sum of electronic and thermal Free Energies=         -423.047652

                     E (Thermal)             CV                S
                      KCal/Mol        Cal/Mol-Kelvin    Cal/Mol-Kelvin
 Total                  106.249             28.408             82.522
 Electronic               0.000              0.000              0.000
 Translational            0.889              2.981             40.409
 Rotational               0.889              2.981             28.275
 Vibrational            104.472             22.447             13.839
 Vibration     1          0.628              1.870              2.353
 Vibration     2          0.637              1.843              2.154
 Vibration     3          0.659              1.775              1.785
 Vibration     4          0.672              1.734              1.616
 Vibration     5          0.708              1.628              1.291
 Vibration     6          0.779              1.436              0.906
 Vibration     7          0.837              1.294              0.709

 Optimization completed.
    -- Stationary point found.
 Normal termination of Gaussian 09 at Mon Jan 27 13:11:08 2020.
