 Gaussian 09, Revision D.01,
 Gaussian 09:  ES64L-G09RevD.01 24-Apr-2013

 -----------------------------
 # b3lyp 6-31G(2df,p) opt Freq
 -----------------------------

 -----
 titel
 -----
 Symbolic Z-matrix:
 Charge =  0 Multiplicity = 1

 SCF Done:  E(RB3LYP) =  -423.125939273     A.U. after   14 cycles
 Optimization completed.
    -- Stationary point found.
 Normal termination of Gaussian 09 at Tue Jan 28 08:17:26 2020.

 ----------------------------------------------------------------------
 #N Geom=AllCheck Guess=TCheck SCRF=Check GenChk RB3LYP/6-31G(2df,p) Fr
 eq
 ----------------------------------------------------------------------

 Structure from the checkpoint file:  "/scratch/puck/g09_c75a0f97-64fc-4f1b-9880-c1dcb47161e9/Gau-79823.chk"
 -----
 titel
 -----
 Charge =  0 Multiplicity = 1

                         Standard orientation:
 ---------------------------------------------------------------------
 Center     Atomic      Atomic             Coordinates (Angstroms)
 Number     Number       Type             X           Y           Z
 ---------------------------------------------------------------------
      1          6           0        3.959489    0.207443    0.346564
      2          6           0        2.965551   -0.869188   -0.127129
      3          6           0        1.598364   -0.371698   -0.239740
      4          6           0        0.478369    0.061044   -0.345762
      5          6           0       -0.883303    0.598907   -0.407182
      6          8           0       -0.930264    1.983169   -0.073128
      7          6           0       -1.816273   -0.214167    0.477654
      8          6           0       -2.533691   -1.384305   -0.036656
      9          8           0       -3.202122   -0.136698    0.166072
     10          1           0        3.980282    1.050202   -0.349394
     11          1           0        3.679057    0.589541    1.331882
     12          1           0        4.968015   -0.210590    0.413674
     13          1           0        3.287454   -1.262764   -1.099633
     14          1           0        2.987733   -1.720086    0.565649
     15          1           0       -1.270474    0.540851   -1.431645
     16          1           0       -0.383111    2.109969    0.709758
     17          1           0       -1.582967   -0.169440    1.543150
     18          1           0       -2.402955   -1.680967   -1.076646
     19          1           0       -2.814973   -2.186701    0.643161
 ---------------------------------------------------------------------

 SCF Done:  E(RB3LYP) =  -423.125939273     A.U. after    1 cycles

 The electronic state is 1-A.
 Alpha  occ. eigenvalues --  -19.15241 -19.14133 -10.25811 -10.24019 -10.23631
 Alpha  occ. eigenvalues --  -10.21492 -10.18941 -10.18468 -10.17597  -1.07498
 Alpha  occ. eigenvalues --   -1.02374  -0.80467  -0.76687  -0.70863  -0.66258
 Alpha  occ. eigenvalues --   -0.64308  -0.60988  -0.53733  -0.51397  -0.48990
 Alpha  occ. eigenvalues --   -0.47619  -0.46255  -0.43923  -0.40574  -0.39929
 Alpha  occ. eigenvalues --   -0.39144  -0.37819  -0.36946  -0.35677  -0.31641
 Alpha  occ. eigenvalues --   -0.29210  -0.27131  -0.26136  -0.25301
 Alpha virt. eigenvalues --    0.02917   0.04540   0.08716   0.10592   0.11281
 Alpha virt. eigenvalues --    0.11436   0.12945   0.14101   0.14427   0.14864
 Alpha virt. eigenvalues --    0.16549   0.16652   0.18470   0.19922   0.20797

 Mulliken charges:
               1
     1  C   -0.365952
     2  C   -0.316127
     3  C    0.073970
     4  C    0.031653
     5  C   -0.069378
     6  O   -0.413153
     7  C    0.083672
     8  C   -0.173560
     9  O   -0.226015
    10  H    0.133197
    11  H    0.126737
    12  H    0.118475
    13  H    0.134324
    14  H    0.131237
    15  H    0.119354
    16  H    0.283130
    17  H    0.094058
    18  H    0.117025
    19  H    0.117350
 Sum of Mulliken charges =   0.00000

 Dipole moment (field-independent basis, Debye):
    X=              2.9737    Y=             -1.9974    Z=              0.9129  Tot=              3.6967
 Quadrupole moment (field-independent basis, Debye-Ang):
   XX=            -55.6763   YY=            -53.1408   ZZ=            -50.4905
   XY=              3.7308   XZ=              0.5576   YZ=              2.3914

  Exact polarizability: 108.697  -2.637  73.075   3.203   2.119  62.120
 Approx polarizability: 145.598 -15.580 108.154   7.019   2.708  92.427

                      1                      2                      3
                      A                      A                      A
 Frequencies --     18.7649                57.6666                90.0087
 Red. masses --      2.4724                 4.1510                 3.2997
 Frc consts  --      0.0005                 0.0081                 0.0158
 IR Inten    --      0.0809                 0.8591                 1.1789

                      4                      5                      6
                      A                      A                      A
 Frequencies --    109.2189               180.7699               219.2979
 Red. masses --      3.6053                 2.3905                 1.7896
 Frc consts  --      0.0253                 0.0460                 0.0507
 IR Inten    --      0.6065                 2.3175                21.9572

                      7                      8                      9
                      A                      A                      A
 Frequencies --    243.0227               257.6139               328.1762
 Red. masses --      1.5936                 1.7519                 2.3920
 Frc consts  --      0.0555                 0.0685                 0.1518
 IR Inten    --     12.6547                60.8029                18.2747

                     10                     11                     12
                      A                      A                      A
 Frequencies --    367.0670               415.3288               484.7937
 Red. masses --      4.1005                 5.4334                 5.1529
 Frc consts  --      0.3255                 0.5522                 0.7135
 IR Inten    --      4.7148                25.8634                10.1305

                     13                     14                     15
                      A                      A                      A
 Frequencies --    518.0936               601.1642               778.9367
 Red. masses --      4.3189                 5.4491                 3.3069
 Frc consts  --      0.6830                 1.1603                 1.1822
 IR Inten    --      2.3711                 1.5792                27.9338

                     16                     17                     18
                      A                      A                      A
 Frequencies --    787.1870               846.6349               876.7286
 Red. masses --      1.1729                 1.7696                 5.3661
 Frc consts  --      0.4282                 0.7473                 2.4302
 IR Inten    --      2.0009                 2.2743                14.4369

                     19                     20                     21
                      A                      A                      A
 Frequencies --    945.0031               964.1229              1042.1677
 Red. masses --      3.1152                 2.3663                 3.6985
 Frc consts  --      1.6391                 1.2959                 2.3667
 IR Inten    --     51.3561                14.2287                97.3094

                     22                     23                     24
                      A                      A                      A
 Frequencies --   1077.1359              1087.8645              1104.1269
 Red. masses --      1.9058                 1.4282                 1.4871
 Frc consts  --      1.3027                 0.9958                 1.0682
 IR Inten    --      2.6976                 1.5632                 0.8068

                     25                     26                     27
                      A                      A                      A
 Frequencies --   1120.4303              1158.0400              1159.4858
 Red. masses --      2.0711                 1.4829                 1.7669
 Frc consts  --      1.5318                 1.1717                 1.3996
 IR Inten    --      6.5633                 5.9031                 3.5417

                     28                     29                     30
                      A                      A                      A
 Frequencies --   1170.6200              1255.9815              1279.1162
 Red. masses --      1.7086                 1.2904                 1.3356
 Frc consts  --      1.3795                 1.1994                 1.2875
 IR Inten    --      3.8741                11.7283                21.3457

                     31                     32                     33
                      A                      A                      A
 Frequencies --   1285.5133              1291.7133              1348.3638
 Red. masses --      1.1569                 1.6754                 1.5173
 Frc consts  --      1.1265                 1.6470                 1.6253
 IR Inten    --      1.4122                19.7377                27.7682

                     34                     35                     36
                      A                      A                      A
 Frequencies --   1408.8091              1414.8626              1436.2400
 Red. masses --      1.2103                 1.2143                 1.7526
 Frc consts  --      1.4153                 1.4322                 2.1300
 IR Inten    --      2.7502                70.4319                 5.2880

                     37                     38                     39
                      A                      A                      A
 Frequencies --   1476.2229              1494.8222              1505.9460
 Red. masses --      1.0724                 1.0397                 1.0577
 Frc consts  --      1.3769                 1.3689                 1.4132
 IR Inten    --      3.7241                 5.1202                 1.4014

                     40                     41                     42
                      A                      A                      A
 Frequencies --   1530.5583              2359.3900              3022.2362
 Red. masses --      1.3475                11.8879                 1.0587
 Frc consts  --      1.8598                38.9900                 5.6977
 IR Inten    --      1.8090                14.1552                22.0988

                     43                     44                     45
                      A                      A                      A
 Frequencies --   3043.1506              3046.1946              3050.3565
 Red. masses --      1.0829                 1.0345                 1.1010
 Frc consts  --      5.9089                 5.6558                 6.0356
 IR Inten    --     12.1575                26.1889                 7.8735

                     46                     47                     48
                      A                      A                      A
 Frequencies --   3085.2625              3096.8898              3120.3010
 Red. masses --      1.0503                 1.0885                 1.1024
 Frc consts  --      5.8906                 6.1507                 6.3236
 IR Inten    --     27.1127                19.4896                28.2439

                     49                     50                     51
                      A                      A                      A
 Frequencies --   3125.4167              3172.4974              3809.4159
 Red. masses --      1.1030                 1.1194                 1.0662
 Frc consts  --      6.3478                 6.6382                 9.1160
 IR Inten    --     23.2757                24.7476                20.9019

 - Thermochemistry -
 -------------------
 Temperature   298.150 Kelvin.  Pressure   1.00000 Atm.
 Atom     1 has atomic number  6 and mass  12.00000

 Molecular mass:   126.06808 amu.
 Principal axes and moments of inertia in atomic units:
                           1         2         3
     Eigenvalues --   499.922842648.794243011.89511
           X            0.99996   0.00771   0.00521
           Y           -0.00779   0.99985   0.01568
           Z           -0.00509  -0.01572   0.99986
 This molecule is an asymmetric top.
 Rotational symmetry number  1.
 Warning -- assumption of classical behavior for rotation
           may cause significant error
 Rotational temperatures (Kelvin)      0.17325     0.03270     0.02876
 Rotational constants (GHZ):           3.61004     0.68134     0.59920
 Zero-point vibrational energy     410730.2 (Joules/Mol)
                                   98.16688 (Kcal/Mol)
 Warning -- explicit consideration of  14 degrees of freedom as
           vibrations may cause significant error
 Vibrational temperatures:     27.00    82.97   129.50   157.14   260.09
          (Kelvin)            315.52   349.66   370.65   472.17   528.13
                              597.56   697.51   745.42   864.94  1120.71
                             1132.59  1218.12  1261.42  1359.65  1387.16
                             1499.45  1549.76  1565.19  1588.59  1612.05
                             1666.16  1668.24  1684.26  1807.07  1840.36
                             1849.56  1858.48  1939.99  2026.96  2035.67
                             2066.43  2123.95  2150.71  2166.72  2202.13
                             3394.63  4348.32  4378.41  4382.79  4388.78
                             4439.00  4455.73  4489.41  4496.77  4564.51
                             5480.89

 Zero-point correction=                           0.156439 (Hartree/Particle)
 Thermal correction to Energy=                    0.166857
 Thermal correction to Enthalpy=                  0.167801
 Thermal correction to Gibbs Free Energy=         0.118911
 Sum of electronic and zero-point Energies=           -422.969500
 Sum of electronic and thermal Energies=              -422.959083
 Sum of electronic and thermal Enthalpies=            -422.958138
 Sum of electronic and thermal Free Energies=         -423.007028

                     E (Thermal)             CV                S
                      KCal/Mol        Cal/Mol-Kelvin    Cal/Mol-Kelvin
 Total                  104.704             35.986            102.897
 Electronic               0.000              0.000              0.000
 Translational            0.889              2.981             40.409
 Rotational               0.889              2.981             29.768
 Vibrational            102.927             30.024             32.720
 Vibration     1          0.593              1.986              6.761
 Vibration     2          0.596              1.974              4.535
 Vibration     3          0.602              1.956              3.660
 Vibration     4          0.606              1.942              3.283
 Vibration     5          0.630              1.866              2.320
 Vibration     6          0.647              1.812              1.965
 Vibration     7          0.659              1.774              1.781
 Vibration     8          0.667              1.750              1.678
 Vibration     9          0.711              1.619              1.269
 Vibration    10          0.740              1.540              1.092
 Vibration    11          0.779              1.437              0.908
 Vibration    12          0.841              1.284              0.697
 Vibration    13          0.873              1.210              0.614
 Vibration    14          0.959              1.029              0.448

 Normal termination of Gaussian 09 at Tue Jan 28 09:00:06 2020.
