 Gaussian 09, Revision D.01,
 Gaussian 09:  ES64L-G09RevD.01 24-Apr-2013

 -----------------------------
 # b3lyp 6-31G(2df,p) opt Freq
 -----------------------------

 -----
 titel
 -----
 Symbolic Z-matrix:
 Charge =  0 Multiplicity = 1

 SCF Done:  E(RB3LYP) =  -423.201072472     A.U. after   14 cycles
 Optimization completed.
    -- Stationary point found.
 Normal termination of Gaussian 09 at Mon Jan 27 18:28:26 2020.

 ----------------------------------------------------------------------
 #N Geom=AllCheck Guess=TCheck SCRF=Check GenChk RB3LYP/6-31G(2df,p) Fr
 eq
 ----------------------------------------------------------------------

 Structure from the checkpoint file:  "/scratch/puck/g09_c7764a0a-8eee-4c0c-9cd9-b6540eb088c3/Gau-115135.chk"
 -----
 titel
 -----
 Charge =  0 Multiplicity = 1

                         Standard orientation:
 ---------------------------------------------------------------------
 Center     Atomic      Atomic             Coordinates (Angstroms)
 Number     Number       Type             X           Y           Z
 ---------------------------------------------------------------------
      1          8           0       -2.316621    0.364506    0.400728
      2          6           0       -0.959189    0.156878    0.070762
      3          6           0       -0.727633   -0.975455   -0.961834
      4          8           0        0.597815   -1.440401   -0.715297
      5          6           0        1.084243   -0.845558    0.504285
      6          6           0       -0.183014   -0.432203    1.256363
      7          6           0        1.942245    0.384964    0.160789
      8          6           0        1.077837    1.519161   -0.335044
      9          6           0       -0.250762    1.422948   -0.378276
     10          1           0       -2.754070    0.766556   -0.357435
     11          1           0       -1.463216   -1.775814   -0.794793
     12          1           0       -0.801813   -0.633671   -2.000819
     13          1           0        1.680430   -1.600769    1.023959
     14          1           0       -0.711454   -1.298681    1.663573
     15          1           0       -0.007397    0.295097    2.050977
     16          1           0        2.528455    0.703703    1.035329
     17          1           0        2.670401    0.095972   -0.607197
     18          1           0        1.576009    2.429937   -0.657519
     19          1           0       -0.869263    2.240412   -0.741802
 ---------------------------------------------------------------------

 SCF Done:  E(RB3LYP) =  -423.201072472     A.U. after    1 cycles

 The electronic state is 1-A.
 Alpha  occ. eigenvalues --  -19.14251 -19.13097 -10.24054 -10.23140 -10.21967
 Alpha  occ. eigenvalues --  -10.18599 -10.18480 -10.18139 -10.17962  -1.03635
 Alpha  occ. eigenvalues --   -1.01896  -0.82354  -0.75760  -0.74251  -0.66917
 Alpha  occ. eigenvalues --   -0.60627  -0.58108  -0.53951  -0.52629  -0.48005
 Alpha  occ. eigenvalues --   -0.45708  -0.44652  -0.42947  -0.41159  -0.39842
 Alpha  occ. eigenvalues --   -0.39728  -0.38589  -0.35025  -0.34371  -0.33161
 Alpha  occ. eigenvalues --   -0.30510  -0.27005  -0.25067  -0.23889
 Alpha virt. eigenvalues --    0.01624   0.07029   0.08983   0.12379   0.12877
 Alpha virt. eigenvalues --    0.13900   0.14662   0.16202   0.16770   0.17743
 Alpha virt. eigenvalues --    0.18587   0.19259   0.19997   0.21402   0.21932

 Mulliken charges:
               1
     1  O   -0.499023
     2  C    0.338245
     3  C   -0.103169
     4  O   -0.276859
     5  C    0.091969
     6  C   -0.262489
     7  C   -0.256013
     8  C   -0.057087
     9  C   -0.124571
    10  H    0.277618
    11  H    0.094662
    12  H    0.092342
    13  H    0.077593
    14  H    0.108715
    15  H    0.108413
    16  H    0.101818
    17  H    0.117651
    18  H    0.091006
    19  H    0.079178
 Sum of Mulliken charges =   0.00000

 Dipole moment (field-independent basis, Debye):
    X=              0.0552    Y=              1.2822    Z=             -0.3016  Tot=              1.3184
 Quadrupole moment (field-independent basis, Debye-Ang):
   XX=            -50.9946   YY=            -53.8767   ZZ=            -53.1822
   XY=              0.1875   XZ=              5.7115   YZ=             -3.3457

  Exact polarizability:  88.475   2.630  72.108   4.820  -4.032  64.469
 Approx polarizability: 134.063   2.038 102.648   5.836  -3.524  97.920

                      1                      2                      3
                      A                      A                      A
 Frequencies --    162.2266               248.1383               264.4472
 Red. masses --      3.0951                 1.1779                 1.9233
 Frc consts  --      0.0480                 0.0427                 0.0792
 IR Inten    --      2.8869                74.4232                14.8892

                      4                      5                      6
                      A                      A                      A
 Frequencies --    306.6497               350.8780               391.7422
 Red. masses --      4.9872                 3.1375                 2.5099
 Frc consts  --      0.2763                 0.2276                 0.2269
 IR Inten    --      5.9007                 7.0872                10.0705

                      7                      8                      9
                      A                      A                      A
 Frequencies --    446.0814               480.6096               508.9180
 Red. masses --      2.3388                 3.0536                 2.8237
 Frc consts  --      0.2742                 0.4156                 0.4309
 IR Inten    --      4.0688                 2.5919                 0.4791

                     10                     11                     12
                      A                      A                      A
 Frequencies --    586.3625               663.3670               716.1906
 Red. masses --      4.2386                 4.0452                 1.8214
 Frc consts  --      0.8586                 1.0488                 0.5504
 IR Inten    --      3.5352                 0.9224                14.2951

                     13                     14                     15
                      A                      A                      A
 Frequencies --    778.9740               819.1324               880.2683
 Red. masses --      3.5198                 3.0007                 3.4550
 Frc consts  --      1.2584                 1.1862                 1.5773
 IR Inten    --     12.6951                 5.1135                13.9914

                     16                     17                     18
                      A                      A                      A
 Frequencies --    898.7035               925.2704               958.9263
 Red. masses --      2.8399                 1.9956                 2.1204
 Frc consts  --      1.3514                 1.0066                 1.1488
 IR Inten    --     15.6789                 2.3721                 0.5699

                     19                     20                     21
                      A                      A                      A
 Frequencies --    971.9788               982.4616               996.3756
 Red. masses --      1.5962                 1.3251                 2.4646
 Frc consts  --      0.8885                 0.7536                 1.4416
 IR Inten    --      1.9109                 1.2673                 5.4957

                     22                     23                     24
                      A                      A                      A
 Frequencies --   1034.2809              1070.5623              1092.0822
 Red. masses --      1.9342                 3.4446                 1.8916
 Frc consts  --      1.2191                 2.3260                 1.3292
 IR Inten    --     18.4783                67.9509                47.0568

                     25                     26                     27
                      A                      A                      A
 Frequencies --   1115.7044              1168.7564              1182.2960
 Red. masses --      1.5561                 1.7274                 1.3169
 Frc consts  --      1.1413                 1.3903                 1.0845
 IR Inten    --     28.7890                23.5855                 8.4488

                     28                     29                     30
                      A                      A                      A
 Frequencies --   1188.5432              1215.5484              1249.4183
 Red. masses --      1.6614                 1.1694                 1.6088
 Frc consts  --      1.3828                 1.0180                 1.4797
 IR Inten    --     22.7918                14.3662                 3.5563

                     31                     32                     33
                      A                      A                      A
 Frequencies --   1289.1803              1322.1814              1329.5585
 Red. masses --      1.7950                 1.4478                 1.4423
 Frc consts  --      1.7577                 1.4912                 1.5022
 IR Inten    --     35.9645                 2.5026                 8.1327

                     34                     35                     36
                      A                      A                      A
 Frequencies --   1349.5471              1380.8157              1396.3403
 Red. masses --      1.6075                 1.4480                 1.6979
 Frc consts  --      1.7249                 1.6266                 1.9504
 IR Inten    --     27.5879                 8.9164                17.5525

                     37                     38                     39
                      A                      A                      A
 Frequencies --   1417.0675              1461.1376              1490.8866
 Red. masses --      1.5511                 1.0966                 1.1178
 Frc consts  --      1.8352                 1.3794                 1.4638
 IR Inten    --      0.1707                 3.0153                 3.6870

                     40                     41                     42
                      A                      A                      A
 Frequencies --   1523.4193              1706.2598              2995.4379
 Red. masses --      1.0938                 6.8654                 1.0618
 Frc consts  --      1.4956                11.7763                 5.6133
 IR Inten    --      1.0636                 4.0876                76.8182

                     43                     44                     45
                      A                      A                      A
 Frequencies --   3003.4351              3048.7135              3055.4326
 Red. masses --      1.0661                 1.0942                 1.1019
 Frc consts  --      5.6661                 5.9919                 6.0612
 IR Inten    --     28.4630                13.0192                37.0805

                     46                     47                     48
                      A                      A                      A
 Frequencies --   3062.4272              3074.7446              3126.7236
 Red. masses --      1.0691                 1.0794                 1.1056
 Frc consts  --      5.9072                 6.0126                 6.3686
 IR Inten    --     21.8825                52.9445                16.4410

                     49                     50                     51
                      A                      A                      A
 Frequencies --   3143.7302              3168.4342              3805.0095
 Red. masses --      1.0841                 1.0979                 1.0661
 Frc consts  --      6.3125                 6.4937                 9.0937
 IR Inten    --      8.4708                27.3354                16.3859

 - Thermochemistry -
 -------------------
 Temperature   298.150 Kelvin.  Pressure   1.00000 Atm.
 Atom     1 has atomic number  8 and mass  15.99491

 Molecular mass:   126.06808 amu.
 Principal axes and moments of inertia in atomic units:
                           1         2         3
     Eigenvalues --   692.75572 988.035401235.83795
           X            0.99870   0.04057   0.03089
           Y           -0.03910   0.99814  -0.04668
           Z           -0.03272   0.04542   0.99843
 This molecule is an asymmetric top.
 Rotational symmetry number  1.
 Warning -- assumption of classical behavior for rotation
           may cause significant error
 Rotational temperatures (Kelvin)      0.12503     0.08766     0.07009
 Rotational constants (GHZ):           2.60516     1.82660     1.46034
 Zero-point vibrational energy     423510.2 (Joules/Mol)
                                  101.22137 (Kcal/Mol)
 Warning -- explicit consideration of  10 degrees of freedom as
           vibrations may cause significant error
 Vibrational temperatures:    233.41   357.02   380.48   441.20   504.83
          (Kelvin)            563.63   641.81   691.49   732.22   843.64
                              954.44  1030.44  1120.77  1178.55  1266.51
                             1293.03  1331.26  1379.68  1398.46  1413.54
                             1433.56  1488.10  1540.30  1571.26  1605.25
                             1681.58  1701.06  1710.05  1748.90  1797.63
                             1854.84  1902.32  1912.94  1941.69  1986.68
                             2009.02  2038.84  2102.25  2145.05  2191.86
                             2454.92  4309.76  4321.27  4386.41  4396.08
                             4406.14  4423.87  4498.65  4523.12  4558.66
                             5474.55

 Zero-point correction=                           0.161307 (Hartree/Particle)
 Thermal correction to Energy=                    0.168687
 Thermal correction to Enthalpy=                  0.169631
 Thermal correction to Gibbs Free Energy=         0.130071
 Sum of electronic and zero-point Energies=           -423.039766
 Sum of electronic and thermal Energies=              -423.032385
 Sum of electronic and thermal Enthalpies=            -423.031441
 Sum of electronic and thermal Free Energies=         -423.071001

                     E (Thermal)             CV                S
                      KCal/Mol        Cal/Mol-Kelvin    Cal/Mol-Kelvin
 Total                  105.853             30.509             83.261
 Electronic               0.000              0.000              0.000
 Translational            0.889              2.981             40.409
 Rotational               0.889              2.981             28.227
 Vibrational            104.075             24.547             14.625
 Vibration     1          0.622              1.889              2.524
 Vibration     2          0.662              1.766              1.744
 Vibration     3          0.671              1.738              1.632
 Vibration     4          0.697              1.661              1.380
 Vibration     5          0.728              1.573              1.162
 Vibration     6          0.759              1.488              0.994
 Vibration     7          0.805              1.370              0.808
 Vibration     8          0.837              1.293              0.708
 Vibration     9          0.864              1.230              0.636
 Vibration    10          0.943              1.061              0.474

 Optimization completed.
    -- Stationary point found.
 Normal termination of Gaussian 09 at Mon Jan 27 19:12:03 2020.
