 Gaussian 09, Revision D.01,
 Gaussian 09:  ES64L-G09RevD.01 24-Apr-2013

 -----------------------------
 # b3lyp 6-31G(2df,p) opt Freq
 -----------------------------

 -----
 titel
 -----
 Symbolic Z-matrix:
 Charge =  0 Multiplicity = 1

 SCF Done:  E(RB3LYP) =  -423.177209899     A.U. after   14 cycles
 Optimization completed.
    -- Stationary point found.
 Normal termination of Gaussian 09 at Tue Jan 28 13:50:04 2020.

 ----------------------------------------------------------------------
 #N Geom=AllCheck Guess=TCheck SCRF=Check GenChk RB3LYP/6-31G(2df,p) Fr
 eq
 ----------------------------------------------------------------------

 Structure from the checkpoint file:  "/scratch/puck/g09_b825ca41-fa5e-40a7-ae8a-a21cb2169a04/Gau-110292.chk"
 -----
 titel
 -----
 Charge =  0 Multiplicity = 1

                         Standard orientation:
 ---------------------------------------------------------------------
 Center     Atomic      Atomic             Coordinates (Angstroms)
 Number     Number       Type             X           Y           Z
 ---------------------------------------------------------------------
      1          6           0       -3.084679   -0.385972    0.274572
      2          6           0       -1.974313    0.123001   -0.650696
      3          6           0       -0.607367   -0.430890   -0.269528
      4          8           0       -0.261619   -0.076779    1.108245
      5          6           0        1.031833    0.529132    0.978288
      6          6           0        0.860983    1.478293   -0.239104
      7          6           0        0.625649    0.131527   -1.010621
      8          6           0        1.722358   -0.401241   -0.051818
      9          8           0        2.700089   -1.077437   -0.132466
     10          1           0       -4.054637    0.030295   -0.011985
     11          1           0       -3.163190   -1.477909    0.234432
     12          1           0       -2.880401   -0.102736    1.310287
     13          1           0       -2.180187   -0.174926   -1.686962
     14          1           0       -1.949920    1.217999   -0.635102
     15          1           0       -0.634047   -1.527315   -0.346017
     16          1           0        1.428232    0.816138    1.948561
     17          1           0        0.024370    2.174649   -0.177179
     18          1           0        1.780833    1.984911   -0.536988
     19          1           0        0.674402    0.029529   -2.091835
 ---------------------------------------------------------------------

 SCF Done:  E(RB3LYP) =  -423.177209899     A.U. after    1 cycles

 The electronic state is 1-A.
 Alpha  occ. eigenvalues --  -19.15031 -19.14776 -10.27675 -10.24783 -10.24545
 Alpha  occ. eigenvalues --  -10.21002 -10.20662 -10.18970 -10.17700  -1.06514
 Alpha  occ. eigenvalues --   -1.04437  -0.84353  -0.79341  -0.71653  -0.64766
 Alpha  occ. eigenvalues --   -0.62724  -0.57298  -0.55158  -0.51830  -0.47648
 Alpha  occ. eigenvalues --   -0.46857  -0.44443  -0.43454  -0.41669  -0.39741
 Alpha  occ. eigenvalues --   -0.38710  -0.37630  -0.36437  -0.36158  -0.34802
 Alpha  occ. eigenvalues --   -0.33915  -0.33181  -0.28158  -0.22768
 Alpha virt. eigenvalues --   -0.01836   0.08983   0.11002   0.11470   0.11610
 Alpha virt. eigenvalues --    0.12767   0.13826   0.14449   0.15204   0.16262
 Alpha virt. eigenvalues --    0.17310   0.18174   0.18603   0.19873   0.20527

 Mulliken charges:
               1
     1  C   -0.381112
     2  C   -0.203378
     3  C    0.149419
     4  O   -0.297253
     5  C   -0.014285
     6  C   -0.262977
     7  C   -0.212541
     8  C    0.438472
     9  O   -0.312604
    10  H    0.113385
    11  H    0.116304
    12  H    0.139053
    13  H    0.098715
    14  H    0.099326
    15  H    0.087839
    16  H    0.101531
    17  H    0.121344
    18  H    0.123683
    19  H    0.095078
 Sum of Mulliken charges =   0.00000

 Dipole moment (field-independent basis, Debye):
    X=             -1.7006    Y=              1.8559    Z=             -1.1068  Tot=              2.7498
 Quadrupole moment (field-independent basis, Debye-Ang):
   XX=            -59.2077   YY=            -52.9800   ZZ=            -52.8785
   XY=              5.3810   XZ=              2.1259   YZ=              0.7278

  Exact polarizability:  89.782  -0.457  69.797   1.939   1.488  67.801
 Approx polarizability: 120.252  -6.702 109.301   1.552   2.670 105.568

                      1                      2                      3
                      A                      A                      A
 Frequencies --     86.2923               127.4100               174.0072
 Red. masses --      3.0026                 3.5663                 2.0533
 Frc consts  --      0.0132                 0.0341                 0.0366
 IR Inten    --      0.3634                 2.3945                 0.5188

                      4                      5                      6
                      A                      A                      A
 Frequencies --    205.7167               247.8495               339.9166
 Red. masses --      3.7729                 1.3972                 3.7747
 Frc consts  --      0.0941                 0.0506                 0.2570
 IR Inten    --      1.8644                 1.2112                 0.1799

                      7                      8                      9
                      A                      A                      A
 Frequencies --    445.5560               478.2375               490.3781
 Red. masses --      2.4903                 3.1111                 3.3167
 Frc consts  --      0.2913                 0.4192                 0.4699
 IR Inten    --      2.8892                 2.7822                 3.3019

                     10                     11                     12
                      A                      A                      A
 Frequencies --    625.8848               663.2132               753.7449
 Red. masses --      4.1490                 2.8040                 2.6270
 Frc consts  --      0.9576                 0.7267                 0.8793
 IR Inten    --      3.2427                 7.1662                 5.3100

                     13                     14                     15
                      A                      A                      A
 Frequencies --    774.6442               825.0180               845.0676
 Red. masses --      2.0285                 3.0922                 2.9263
 Frc consts  --      0.7172                 1.2400                 1.2313
 IR Inten    --      0.5748                 3.3560                 3.9321

                     16                     17                     18
                      A                      A                      A
 Frequencies --    872.6903               920.5819               954.9900
 Red. masses --      2.3234                 2.2243                 3.4401
 Frc consts  --      1.0425                 1.1106                 1.8485
 IR Inten    --     11.8661                14.0633                35.7111

                     19                     20                     21
                      A                      A                      A
 Frequencies --    978.8663               987.3198              1014.2359
 Red. masses --      2.4047                 1.8636                 1.7707
 Frc consts  --      1.3576                 1.0703                 1.0732
 IR Inten    --      9.2340                17.2574                 6.5596

                     22                     23                     24
                      A                      A                      A
 Frequencies --   1043.7987              1074.7809              1079.9860
 Red. masses --      1.8511                 2.2133                 1.4430
 Frc consts  --      1.1883                 1.5064                 0.9917
 IR Inten    --      3.2581                30.9869                10.9696

                     25                     26                     27
                      A                      A                      A
 Frequencies --   1101.0715              1121.4724              1150.7613
 Red. masses --      1.9509                 1.9287                 1.9199
 Frc consts  --      1.3935                 1.4292                 1.4980
 IR Inten    --     24.2647                 5.2447                 4.0631

                     28                     29                     30
                      A                      A                      A
 Frequencies --   1198.1882              1223.3663              1246.9253
 Red. masses --      1.7445                 1.7940                 1.6107
 Frc consts  --      1.4756                 1.5819                 1.4755
 IR Inten    --      2.3538                 5.3963                 7.9841

                     31                     32                     33
                      A                      A                      A
 Frequencies --   1271.9861              1287.2477              1313.9540
 Red. masses --      1.3656                 1.2212                 1.3809
 Frc consts  --      1.3018                 1.1922                 1.4046
 IR Inten    --      3.0016                 0.7155                 7.0658

                     34                     35                     36
                      A                      A                      A
 Frequencies --   1356.1718              1407.3305              1417.7361
 Red. masses --      1.3660                 1.2824                 1.3724
 Frc consts  --      1.4802                 1.4964                 1.6252
 IR Inten    --      2.6297                 2.0624                17.2317

                     37                     38                     39
                      A                      A                      A
 Frequencies --   1473.4383              1485.1002              1497.0559
 Red. masses --      1.0940                 1.0908                 1.0433
 Frc consts  --      1.3994                 1.4174                 1.3777
 IR Inten    --      1.3916                 5.0509                 4.9965

                     40                     41                     42
                      A                      A                      A
 Frequencies --   1510.0501              1913.3422              2999.0875
 Red. masses --      1.0627                12.2519                 1.0847
 Frc consts  --      1.4277                26.4264                 5.7480
 IR Inten    --      5.7000               318.7818                34.3289

                     43                     44                     45
                      A                      A                      A
 Frequencies --   3027.5419              3039.4064              3070.8463
 Red. masses --      1.0617                 1.0372                 1.0968
 Frc consts  --      5.7336                 5.6455                 6.0939
 IR Inten    --     21.3667                24.9816                16.0896

                     46                     47                     48
                      A                      A                      A
 Frequencies --   3083.6155              3106.6445              3125.7754
 Red. masses --      1.0580                 1.1006                 1.1015
 Frc consts  --      5.9272                 6.2585                 6.3412
 IR Inten    --     14.9853                36.6590                20.7565

                     49                     50                     51
                      A                      A                      A
 Frequencies --   3152.2571              3158.7637              3168.2243
 Red. masses --      1.1101                 1.0908                 1.0934
 Frc consts  --      6.4992                 6.4124                 6.4664
 IR Inten    --     12.1643                15.8670                16.9846

 - Thermochemistry -
 -------------------
 Temperature   298.150 Kelvin.  Pressure   1.00000 Atm.
 Atom     1 has atomic number  6 and mass  12.00000

 Molecular mass:   126.06808 amu.
 Principal axes and moments of inertia in atomic units:
                           1         2         3
     Eigenvalues --   481.197901639.152781656.68950
           X            0.99967   0.02570   0.00188
           Y           -0.02549   0.99688  -0.07468
           Z           -0.00379   0.07460   0.99721
 This molecule is an asymmetric top.
 Rotational symmetry number  1.
 Warning -- assumption of classical behavior for rotation
           may cause significant error
 Rotational temperatures (Kelvin)      0.18000     0.05284     0.05228
 Rotational constants (GHZ):           3.75052     1.10102     1.08937
 Zero-point vibrational energy     418199.8 (Joules/Mol)
                                   99.95215 (Kcal/Mol)
 Warning -- explicit consideration of   9 degrees of freedom as
           vibrations may cause significant error
 Vibrational temperatures:    124.16   183.31   250.36   295.98   356.60
          (Kelvin)            489.06   641.05   688.08   705.54   900.51
                              954.21  1084.47  1114.54  1187.02  1215.86
                             1255.61  1324.51  1374.02  1408.37  1420.53
                             1459.26  1501.79  1546.37  1553.86  1584.19
                             1613.55  1655.69  1723.92  1760.15  1794.05
                             1830.10  1852.06  1890.48  1951.23  2024.83
                             2039.80  2119.95  2136.73  2153.93  2172.62
                             2752.87  4315.01  4355.95  4373.02  4418.26
                             4436.63  4469.76  4497.29  4535.39  4544.75
                             4558.36

 Zero-point correction=                           0.159284 (Hartree/Particle)
 Thermal correction to Energy=                    0.167455
 Thermal correction to Enthalpy=                  0.168399
 Thermal correction to Gibbs Free Energy=         0.126394
 Sum of electronic and zero-point Energies=           -423.017926
 Sum of electronic and thermal Energies=              -423.009755
 Sum of electronic and thermal Enthalpies=            -423.008811
 Sum of electronic and thermal Free Energies=         -423.050816

                     E (Thermal)             CV                S
                      KCal/Mol        Cal/Mol-Kelvin    Cal/Mol-Kelvin
 Total                  105.079             31.336             88.407
 Electronic               0.000              0.000              0.000
 Translational            0.889              2.981             40.409
 Rotational               0.889              2.981             28.659
 Vibrational            103.302             25.374             19.339
 Vibration     1          0.601              1.959              3.742
 Vibration     2          0.611              1.926              2.985
 Vibration     3          0.627              1.874              2.392
 Vibration     4          0.640              1.832              2.081
 Vibration     5          0.661              1.766              1.746
 Vibration     6          0.720              1.596              1.213
 Vibration     7          0.805              1.371              0.809
 Vibration     8          0.835              1.298              0.715
 Vibration     9          0.846              1.271              0.683

 Optimization completed.
    -- Stationary point found.
 Normal termination of Gaussian 09 at Tue Jan 28 14:31:23 2020.
