 Gaussian 09, Revision D.01,
 Gaussian 09:  ES64L-G09RevD.01 24-Apr-2013

 -----------------------------
 # b3lyp 6-31G(2df,p) opt Freq
 -----------------------------

 -----
 titel
 -----
 Symbolic Z-matrix:
 Charge =  0 Multiplicity = 1

 SCF Done:  E(RB3LYP) =  -423.243550131     A.U. after   13 cycles
 Optimization completed.
    -- Stationary point found.
 Normal termination of Gaussian 09 at Tue Jan 28 12:40:08 2020.

 ----------------------------------------------------------------------
 #N Geom=AllCheck Guess=TCheck SCRF=Check GenChk RB3LYP/6-31G(2df,p) Fr
 eq
 ----------------------------------------------------------------------

 Structure from the checkpoint file:  "/scratch/puck/g09_f48cc574-d2a8-4cb2-a2c8-83f59731f775/Gau-106750.chk"
 -----
 titel
 -----
 Charge =  0 Multiplicity = 1

                         Standard orientation:
 ---------------------------------------------------------------------
 Center     Atomic      Atomic             Coordinates (Angstroms)
 Number     Number       Type             X           Y           Z
 ---------------------------------------------------------------------
      1          6           0       -2.294066   -0.001381    0.869165
      2          6           0       -1.803414   -0.000415   -0.582919
      3          6           0       -0.278825   -0.000137   -0.715726
      4          6           0        0.467887   -1.203504   -0.141607
      5          8           0        0.018005   -2.312236   -0.011714
      6          6           0        1.884763   -0.769793    0.263113
      7          6           0        1.882227    0.770858    0.269354
      8          6           0        0.466656    1.203817   -0.141018
      9          8           0        0.016533    2.312804   -0.014212
     10          1           0       -1.945032    0.887137    1.403398
     11          1           0       -3.387308   -0.001310    0.903195
     12          1           0       -1.945072   -0.890599    1.402197
     13          1           0       -2.188537   -0.882422   -1.104388
     14          1           0       -2.188450    0.882362   -1.103153
     15          1           0       -0.007331    0.000265   -1.787500
     16          1           0        2.128645   -1.215179    1.230959
     17          1           0        2.593469   -1.188153   -0.459693
     18          1           0        2.116452    1.208017    1.243437
     19          1           0        2.595503    1.198661   -0.443204
 ---------------------------------------------------------------------

 SCF Done:  E(RB3LYP) =  -423.243550131     A.U. after    1 cycles

 The electronic state is 1-A.
 Alpha  occ. eigenvalues --  -19.14153 -19.14150 -10.27987 -10.27986 -10.20666
 Alpha  occ. eigenvalues --  -10.20661 -10.20645 -10.19076 -10.17324  -1.05443
 Alpha  occ. eigenvalues --   -1.05054  -0.84543  -0.78739  -0.71481  -0.68267
 Alpha  occ. eigenvalues --   -0.62081  -0.55125  -0.52890  -0.49880  -0.46878
 Alpha  occ. eigenvalues --   -0.46208  -0.45991  -0.42846  -0.42172  -0.41167
 Alpha  occ. eigenvalues --   -0.40145  -0.39129  -0.37449  -0.35467  -0.35075
 Alpha  occ. eigenvalues --   -0.34264  -0.34166  -0.26719  -0.23942
 Alpha virt. eigenvalues --   -0.04135  -0.00935   0.07877   0.10200   0.12256
 Alpha virt. eigenvalues --    0.13490   0.13749   0.15106   0.16340   0.16814
 Alpha virt. eigenvalues --    0.17339   0.17519   0.19820   0.20994   0.21637

 Mulliken charges:
               1
     1  C   -0.396525
     2  C   -0.188759
     3  C   -0.222731
     4  C    0.387157
     5  O   -0.309156
     6  C   -0.330150
     7  C   -0.330182
     8  C    0.387454
     9  O   -0.309289
    10  H    0.131408
    11  H    0.117912
    12  H    0.131559
    13  H    0.115308
    14  H    0.115397
    15  H    0.133909
    16  H    0.143072
    17  H    0.140092
    18  H    0.143334
    19  H    0.140189
 Sum of Mulliken charges =   0.00000

 Dipole moment (field-independent basis, Debye):
    X=              1.8655    Y=              0.0003    Z=             -0.6244  Tot=              1.9672
 Quadrupole moment (field-independent basis, Debye-Ang):
   XX=            -47.7671   YY=            -67.6855   ZZ=            -49.9640
   XY=              0.0084   XZ=              0.1090   YZ=              0.0150

  Exact polarizability:  83.808   0.003  79.286   2.145  -0.006  62.091
 Approx polarizability: 109.380   0.007 128.580   1.813  -0.041  95.021

                      1                      2                      3
                      A                      A                      A
 Frequencies --     28.5432                60.5716                83.6996
 Red. masses --      1.8065                 4.8152                 2.2753
 Frc consts  --      0.0009                 0.0104                 0.0094
 IR Inten    --      0.0459                 7.8874                 0.1854

                      4                      5                      6
                      A                      A                      A
 Frequencies --    171.6386               186.5948               276.1677
 Red. masses --      4.3367                 1.8439                 1.3472
 Frc consts  --      0.0753                 0.0378                 0.0605
 IR Inten    --      4.4677                 1.2588                 0.5763

                      7                      8                      9
                      A                      A                      A
 Frequencies --    370.4134               387.9942               475.6823
 Red. masses --      4.1326                 4.7953                 2.8614
 Frc consts  --      0.3341                 0.4253                 0.3815
 IR Inten    --      2.7196                13.9485                 0.1268

                     10                     11                     12
                      A                      A                      A
 Frequencies --    556.3761               556.5791               623.7483
 Red. masses --      4.9927                 3.7534                 2.0560
 Frc consts  --      0.9106                 0.6851                 0.4713
 IR Inten    --      1.9095                 1.7693                 2.0136

                     13                     14                     15
                      A                      A                      A
 Frequencies --    636.2575               671.9589               743.0933
 Red. masses --      6.4147                 2.7521                 1.4516
 Frc consts  --      1.5300                 0.7321                 0.4723
 IR Inten    --     14.5972                 0.9180                 9.9185

                     16                     17                     18
                      A                      A                      A
 Frequencies --    847.5568               856.2385               911.0451
 Red. masses --      2.0351                 1.6212                 2.5842
 Frc consts  --      0.8614                 0.7003                 1.2637
 IR Inten    --      7.3661                 0.2738                17.3413

                     19                     20                     21
                      A                      A                      A
 Frequencies --    924.2607              1004.3669              1024.7920
 Red. masses --      1.8159                 2.0163                 1.4638
 Frc consts  --      0.9140                 1.1984                 0.9057
 IR Inten    --      0.6179                16.9298                 7.6578

                     22                     23                     24
                      A                      A                      A
 Frequencies --   1050.6455              1084.3611              1136.0651
 Red. masses --      2.2961                 3.4215                 1.6631
 Frc consts  --      1.4933                 2.3704                 1.2647
 IR Inten    --     24.1719                16.0415                 0.1932

                     25                     26                     27
                      A                      A                      A
 Frequencies --   1143.9740              1189.4530              1202.3289
 Red. masses --      1.6677                 1.8416                 1.8640
 Frc consts  --      1.2859                 1.5351                 1.5876
 IR Inten    --      0.2006                42.5901                 4.9035

                     28                     29                     30
                      A                      A                      A
 Frequencies --   1250.2594              1259.7616              1297.1419
 Red. masses --      1.1563                 1.5734                 1.5529
 Frc consts  --      1.0649                 1.4712                 1.5395
 IR Inten    --      2.8820                 0.6995                 1.3472

                     31                     32                     33
                      A                      A                      A
 Frequencies --   1307.0514              1323.2579              1374.5558
 Red. masses --      3.5001                 1.2016                 1.3798
 Frc consts  --      3.5230                 1.2396                 1.5360
 IR Inten    --     83.5910                 0.2504                 2.0266

                     34                     35                     36
                      A                      A                      A
 Frequencies --   1410.3184              1445.6176              1464.2893
 Red. masses --      1.2517                 1.0665                 1.0946
 Frc consts  --      1.4669                 1.3132                 1.3829
 IR Inten    --      6.3129                 0.6159                15.7091

                     37                     38                     39
                      A                      A                      A
 Frequencies --   1473.1796              1505.5894              1509.9316
 Red. masses --      1.0807                 1.0379                 1.0520
 Frc consts  --      1.3818                 1.3862                 1.4131
 IR Inten    --      8.1836                 8.3680                 1.2892

                     40                     41                     42
                      A                      A                      A
 Frequencies --   1822.9862              1863.2938              2958.4712
 Red. masses --     12.5821                12.5808                 1.0783
 Frc consts  --     24.6359                25.7348                 5.5604
 IR Inten    --    324.2191                47.9578                 7.7443

                     43                     44                     45
                      A                      A                      A
 Frequencies --   3044.5074              3051.2755              3053.7647
 Red. masses --      1.0354                 1.0588                 1.0637
 Frc consts  --      5.6547                 5.8079                 5.8446
 IR Inten    --     14.9819                23.2324                13.4470

                     46                     47                     48
                      A                      A                      A
 Frequencies --   3063.2510              3088.8570              3098.3254
 Red. masses --      1.0644                 1.1032                 1.0991
 Frc consts  --      5.8845                 6.2017                 6.2166
 IR Inten    --      2.3439                 3.6923                 1.5119

                     49                     50                     51
                      A                      A                      A
 Frequencies --   3113.8617              3114.7201              3122.7091
 Red. masses --      1.1008                 1.0999                 1.1032
 Frc consts  --      6.2888                 6.2869                 6.3385
 IR Inten    --     25.5723                 9.0670                23.8806

 - Thermochemistry -
 -------------------
 Temperature   298.150 Kelvin.  Pressure   1.00000 Atm.
 Atom     1 has atomic number  6 and mass  12.00000

 Molecular mass:   126.06808 amu.
 Principal axes and moments of inertia in atomic units:
                           1         2         3
     Eigenvalues --   944.543881001.262711692.82459
           X            0.99999   0.00070  -0.00372
           Y           -0.00070   1.00000   0.00009
           Z            0.00372  -0.00008   0.99999
 This molecule is an asymmetric top.
 Rotational symmetry number  1.
 Warning -- assumption of classical behavior for rotation
           may cause significant error
 Rotational temperatures (Kelvin)      0.09170     0.08650     0.05117
 Rotational constants (GHZ):           1.91070     1.80247     1.06611
 Zero-point vibrational energy     414035.8 (Joules/Mol)
                                   98.95693 (Kcal/Mol)
 Warning -- explicit consideration of  11 degrees of freedom as
           vibrations may cause significant error
 Vibrational temperatures:     41.07    87.15   120.42   246.95   268.47
          (Kelvin)            397.34   532.94   558.24   684.40   800.50
                              800.79   897.43   915.43   966.80  1069.14
                             1219.44  1231.93  1310.79  1329.80  1445.06
                             1474.45  1511.64  1560.15  1634.54  1645.92
                             1711.36  1729.88  1798.84  1812.51  1866.30
                             1880.55  1903.87  1977.68  2029.13  2079.92
                             2106.78  2119.57  2166.20  2172.45  2622.87
                             2680.86  4256.57  4380.36  4390.10  4393.68
                             4407.33  4444.17  4457.79  4480.15  4481.38
                             4492.88

 Zero-point correction=                           0.157698 (Hartree/Particle)
 Thermal correction to Energy=                    0.166951
 Thermal correction to Enthalpy=                  0.167895
 Thermal correction to Gibbs Free Energy=         0.122137
 Sum of electronic and zero-point Energies=           -423.085852
 Sum of electronic and thermal Energies=              -423.076599
 Sum of electronic and thermal Enthalpies=            -423.075655
 Sum of electronic and thermal Free Energies=         -423.121413

                     E (Thermal)             CV                S
                      KCal/Mol        Cal/Mol-Kelvin    Cal/Mol-Kelvin
 Total                  104.763             33.270             96.306
 Electronic               0.000              0.000              0.000
 Translational            0.889              2.981             40.409
 Rotational               0.889              2.981             28.861
 Vibrational            102.986             27.308             27.036
 Vibration     1          0.593              1.984              5.928
 Vibration     2          0.597              1.973              4.438
 Vibration     3          0.601              1.960              3.802
 Vibration     4          0.626              1.877              2.417
 Vibration     5          0.632              1.858              2.261
 Vibration     6          0.678              1.717              1.557
 Vibration     7          0.742              1.533              1.078
 Vibration     8          0.756              1.496              1.008
 Vibration     9          0.832              1.304              0.722
 Vibration    10          0.912              1.126              0.531
 Vibration    11          0.912              1.125              0.531

 Normal termination of Gaussian 09 at Tue Jan 28 13:22:32 2020.
