 Gaussian 09, Revision D.01,
 Gaussian 09:  ES64L-G09RevD.01 24-Apr-2013

 -----------------------------
 # b3lyp 6-31G(2df,p) opt Freq
 -----------------------------

 -----
 titel
 -----
 Symbolic Z-matrix:
 Charge =  0 Multiplicity = 1

 SCF Done:  E(RB3LYP) =  -423.228683417     A.U. after   14 cycles
 Optimization completed.
    -- Stationary point found.
 Normal termination of Gaussian 09 at Tue Jan 28 12:40:05 2020.

 ----------------------------------------------------------------------
 #N Geom=AllCheck Guess=TCheck SCRF=Check GenChk RB3LYP/6-31G(2df,p) Fr
 eq
 ----------------------------------------------------------------------

 Structure from the checkpoint file:  "/scratch/puck/g09_1cbf2fa2-4a41-43ef-a207-bb992c970048/Gau-29196.chk"
 -----
 titel
 -----
 Charge =  0 Multiplicity = 1

                         Standard orientation:
 ---------------------------------------------------------------------
 Center     Atomic      Atomic             Coordinates (Angstroms)
 Number     Number       Type             X           Y           Z
 ---------------------------------------------------------------------
      1          6           0       -2.932438   -0.365569    0.619431
      2          6           0       -2.155918    0.259556   -0.552704
      3          6           0       -0.707989    0.477131   -0.236940
      4          6           0       -0.012317    1.624780   -0.151692
      5          6           0        1.461409    1.438031    0.120939
      6          6           0        1.565272   -0.055754    0.471039
      7          8           0        2.676060   -0.709043   -0.087820
      8          6           0        0.243043   -0.640678   -0.041745
      9          8           0        0.084656   -1.819126   -0.285607
     10          1           0       -3.978651   -0.528410    0.344767
     11          1           0       -2.499970   -1.330794    0.896207
     12          1           0       -2.909286    0.285418    1.499111
     13          1           0       -2.221831   -0.414152   -1.416054
     14          1           0       -2.616397    1.208231   -0.848920
     15          1           0       -0.445209    2.611313   -0.289811
     16          1           0        2.058620    1.643600   -0.775680
     17          1           0        1.828486    2.102063    0.910070
     18          1           0        1.553779   -0.165069    1.570542
     19          1           0        2.378372   -1.611830   -0.272777
 ---------------------------------------------------------------------

 SCF Done:  E(RB3LYP) =  -423.228683417     A.U. after    1 cycles

 The electronic state is 1-A.
 Alpha  occ. eigenvalues --  -19.13610 -19.13516 -10.26371 -10.23760 -10.21425
 Alpha  occ. eigenvalues --  -10.20082 -10.19942 -10.19532 -10.17994  -1.04862
 Alpha  occ. eigenvalues --   -1.01486  -0.85767  -0.78107  -0.70955  -0.68024
 Alpha  occ. eigenvalues --   -0.62669  -0.57711  -0.53476  -0.49959  -0.48825
 Alpha  occ. eigenvalues --   -0.46370  -0.44099  -0.42244  -0.40382  -0.40135
 Alpha  occ. eigenvalues --   -0.39748  -0.38924  -0.37114  -0.35567  -0.34887
 Alpha  occ. eigenvalues --   -0.34077  -0.27721  -0.26767  -0.24425
 Alpha virt. eigenvalues --   -0.04984   0.04447   0.10325   0.10470   0.11243
 Alpha virt. eigenvalues --    0.13292   0.14187   0.14853   0.15943   0.16660
 Alpha virt. eigenvalues --    0.17760   0.17890   0.19569   0.21554   0.22439

 Mulliken charges:
               1
     1  C   -0.381066
     2  C   -0.294055
     3  C    0.223816
     4  C   -0.169545
     5  C   -0.291823
     6  C    0.061625
     7  O   -0.440064
     8  C    0.294173
     9  O   -0.358945
    10  H    0.117288
    11  H    0.142722
    12  H    0.115668
    13  H    0.125340
    14  H    0.102616
    15  H    0.110984
    16  H    0.139316
    17  H    0.116969
    18  H    0.093247
    19  H    0.291732
 Sum of Mulliken charges =   0.00000

 Dipole moment (field-independent basis, Debye):
    X=             -1.3545    Y=              2.5304    Z=              0.4733  Tot=              2.9089
 Quadrupole moment (field-independent basis, Debye-Ang):
   XX=            -56.1903   YY=            -53.0424   ZZ=            -52.4884
   XY=             -0.3663   XZ=              0.9058   YZ=             -0.6163

  Exact polarizability:  91.158   5.439  88.097   2.379   1.337  57.572
 Approx polarizability: 117.280  12.921 153.625   3.459   6.098  88.238

                      1                      2                      3
                      A                      A                      A
 Frequencies --     53.1223                70.8168               155.8245
 Red. masses --      2.4557                 5.9615                 3.0458
 Frc consts  --      0.0041                 0.0176                 0.0436
 IR Inten    --      0.6911                 1.4488                 2.0964

                      4                      5                      6
                      A                      A                      A
 Frequencies --    192.1393               246.0463               272.4408
 Red. masses --      1.5864                 3.0880                 1.8311
 Frc consts  --      0.0345                 0.1101                 0.0801
 IR Inten    --      0.2567                15.5619                 2.2526

                      7                      8                      9
                      A                      A                      A
 Frequencies --    294.8140               377.4305               409.8455
 Red. masses --      2.5752                 2.9562                 1.3140
 Frc consts  --      0.1319                 0.2481                 0.1300
 IR Inten    --     10.3475                17.8912                62.2742

                     10                     11                     12
                      A                      A                      A
 Frequencies --    493.3141               524.7763               570.5062
 Red. masses --      2.4795                 4.4193                 3.3964
 Frc consts  --      0.3555                 0.7171                 0.6513
 IR Inten    --     10.2773                 3.7389                 5.5736

                     13                     14                     15
                      A                      A                      A
 Frequencies --    668.5902               721.6240               791.2639
 Red. masses --      4.3264                 4.4623                 1.3398
 Frc consts  --      1.1395                 1.3691                 0.4942
 IR Inten    --      1.6458                 2.0065                 1.5196

                     16                     17                     18
                      A                      A                      A
 Frequencies --    824.4630               867.2677               923.1819
 Red. masses --      2.5389                 1.4471                 2.5452
 Frc consts  --      1.0168                 0.6413                 1.2780
 IR Inten    --      3.1951                 7.3838                37.2926

                     19                     20                     21
                      A                      A                      A
 Frequencies --    947.7300               980.3888              1030.6674
 Red. masses --      2.0567                 2.3569                 2.4061
 Frc consts  --      1.0884                 1.3347                 1.5059
 IR Inten    --      5.5183                11.0411                10.7081

                     22                     23                     24
                      A                      A                      A
 Frequencies --   1041.7516              1089.5589              1100.9227
 Red. masses --      2.6585                 1.9293                 1.5839
 Frc consts  --      1.6999                 1.3495                 1.1311
 IR Inten    --     37.9472                 8.9310                22.9472

                     25                     26                     27
                      A                      A                      A
 Frequencies --   1136.6512              1181.5369              1220.6949
 Red. masses --      1.8434                 1.7932                 1.5080
 Frc consts  --      1.4032                 1.4749                 1.3239
 IR Inten    --     18.8282                23.5539                 7.7613

                     28                     29                     30
                      A                      A                      A
 Frequencies --   1248.5461              1277.0657              1304.6347
 Red. masses --      1.3928                 1.3579                 1.3355
 Frc consts  --      1.2792                 1.3048                 1.3393
 IR Inten    --     34.0697                12.6825                11.4276

                     31                     32                     33
                      A                      A                      A
 Frequencies --   1349.9188              1352.8463              1377.0614
 Red. masses --      1.7267                 1.4754                 1.9913
 Frc consts  --      1.8539                 1.5910                 2.2248
 IR Inten    --     46.5030                 4.9047                 9.6852

                     34                     35                     36
                      A                      A                      A
 Frequencies --   1405.4771              1415.6614              1474.3845
 Red. masses --      1.2306                 1.5169                 1.0829
 Frc consts  --      1.4322                 1.7911                 1.3870
 IR Inten    --      3.9721                41.3683                 2.2096

                     37                     38                     39
                      A                      A                      A
 Frequencies --   1476.3514              1497.9958              1509.1011
 Red. masses --      1.1004                 1.0436                 1.0572
 Frc consts  --      1.4131                 1.3797                 1.4185
 IR Inten    --      3.0765                 6.9129                 3.5100

                     40                     41                     42
                      A                      A                      A
 Frequencies --   1679.8406              1797.5768              2940.5557
 Red. masses --      7.2448                12.5902                 1.0802
 Frc consts  --     12.0452                23.9694                 5.5034
 IR Inten    --      9.2157               211.0412                35.4376

                     43                     44                     45
                      A                      A                      A
 Frequencies --   3030.3007              3040.5476              3041.4217
 Red. masses --      1.0596                 1.0598                 1.0360
 Frc consts  --      5.7325                 5.7724                 5.6463
 IR Inten    --     17.7633                20.8252                21.8781

                     46                     47                     48
                      A                      A                      A
 Frequencies --   3071.6452              3079.5172              3111.2873
 Red. masses --      1.1014                 1.1019                 1.1022
 Frc consts  --      6.1229                 6.1566                 6.2863
 IR Inten    --     10.4351                16.0921                29.7572

                     49                     50                     51
                      A                      A                      A
 Frequencies --   3124.3797              3178.1034              3730.0395
 Red. masses --      1.1022                 1.0933                 1.0653
 Frc consts  --      6.3392                 6.5064                 8.7326
 IR Inten    --     22.2414                12.1787                31.5383

 - Thermochemistry -
 -------------------
 Temperature   298.150 Kelvin.  Pressure   1.00000 Atm.
 Atom     1 has atomic number  6 and mass  12.00000

 Molecular mass:   126.06808 amu.
 Principal axes and moments of inertia in atomic units:
                           1         2         3
     Eigenvalues --   612.054951489.904561934.11731
           X            0.99986   0.01659  -0.00201
           Y           -0.01661   0.99981  -0.01022
           Z            0.00184   0.01025   0.99995
 This molecule is an asymmetric top.
 Rotational symmetry number  1.
 Warning -- assumption of classical behavior for rotation
           may cause significant error
 Rotational temperatures (Kelvin)      0.14151     0.05813     0.04478
 Rotational constants (GHZ):           2.94866     1.21131     0.93311
 Zero-point vibrational energy     416908.3 (Joules/Mol)
                                   99.64348 (Kcal/Mol)
 Warning -- explicit consideration of  12 degrees of freedom as
           vibrations may cause significant error
 Vibrational temperatures:     76.43   101.89   224.20   276.45   354.01
          (Kelvin)            391.98   424.17   543.04   589.68   709.77
                              755.04   820.83   961.95  1038.25  1138.45
                             1186.22  1247.80  1328.25  1363.57  1410.56
                             1482.90  1498.85  1567.63  1583.98  1635.39
                             1699.97  1756.31  1796.38  1837.41  1877.08
                             1942.23  1946.44  1981.28  2022.17  2036.82
                             2121.31  2124.14  2155.28  2171.26  2416.91
                             2586.31  4230.80  4359.92  4374.66  4375.92
                             4419.41  4430.73  4476.44  4495.28  4572.58
                             5366.69

 Zero-point correction=                           0.158792 (Hartree/Particle)
 Thermal correction to Energy=                    0.167920
 Thermal correction to Enthalpy=                  0.168864
 Thermal correction to Gibbs Free Energy=         0.124323
 Sum of electronic and zero-point Energies=           -423.069891
 Sum of electronic and thermal Energies=              -423.060763
 Sum of electronic and thermal Enthalpies=            -423.059819
 Sum of electronic and thermal Free Energies=         -423.104361

                     E (Thermal)             CV                S
                      KCal/Mol        Cal/Mol-Kelvin    Cal/Mol-Kelvin
 Total                  105.371             33.492             93.746
 Electronic               0.000              0.000              0.000
 Translational            0.889              2.981             40.409
 Rotational               0.889              2.981             28.957
 Vibrational            103.594             27.531             24.380
 Vibration     1          0.596              1.976              4.698
 Vibration     2          0.598              1.968              4.131
 Vibration     3          0.620              1.896              2.600
 Vibration     4          0.634              1.851              2.207
 Vibration     5          0.661              1.769              1.759
 Vibration     6          0.675              1.724              1.581
 Vibration     7          0.689              1.683              1.446
 Vibration     8          0.748              1.518              1.049
 Vibration     9          0.774              1.449              0.927
 Vibration    10          0.849              1.265              0.675
 Vibration    11          0.880              1.195              0.599
 Vibration    12          0.927              1.095              0.503

 Optimization completed.
    -- Stationary point found.
 Normal termination of Gaussian 09 at Tue Jan 28 13:20:44 2020.
