 Gaussian 09, Revision D.01,
 Gaussian 09:  ES64L-G09RevD.01 24-Apr-2013

 -----------------------------
 # b3lyp 6-31G(2df,p) opt Freq
 -----------------------------

 -----
 titel
 -----
 Symbolic Z-matrix:
 Charge =  0 Multiplicity = 1

 SCF Done:  E(RB3LYP) =  -423.123422432     A.U. after   12 cycles
 Optimization completed.
    -- Stationary point found.
 Normal termination of Gaussian 09 at Tue Jan 28 14:05:19 2020.

 ----------------------------------------------------------------------
 #N Geom=AllCheck Guess=TCheck SCRF=Check GenChk RB3LYP/6-31G(2df,p) Fr
 eq
 ----------------------------------------------------------------------

 Structure from the checkpoint file:  "/scratch/puck/g09_007825c6-115b-4dfc-b87a-6219a911c443/Gau-122922.chk"
 -----
 titel
 -----
 Charge =  0 Multiplicity = 1

                         Standard orientation:
 ---------------------------------------------------------------------
 Center     Atomic      Atomic             Coordinates (Angstroms)
 Number     Number       Type             X           Y           Z
 ---------------------------------------------------------------------
      1          8           0        2.714109   -0.163235   -0.220351
      2          6           0        1.654904   -0.990225    0.234379
      3          6           0        0.337821   -0.651423   -0.454986
      4          6           0       -0.934513   -1.181724    0.278363
      5          6           0       -2.120930   -0.676366   -0.592958
      6          6           0       -1.709030    0.723077   -0.143015
      7          6           0       -0.996023    0.180198    1.085553
      8          6           0       -0.174320    0.728743   -0.044107
      9          8           0        0.568926    1.901905   -0.012067
     10          1           0        2.437180    0.745607   -0.048330
     11          1           0        1.949339   -2.021595    0.010987
     12          1           0        1.526869   -0.914570    1.327325
     13          1           0        0.407295   -0.867254   -1.528975
     14          1           0       -0.936311   -2.178778    0.714296
     15          1           0       -2.101134   -0.920990   -1.661534
     16          1           0       -3.087310   -0.962694   -0.168369
     17          1           0       -2.251291    1.657677   -0.219688
     18          1           0       -1.066096    0.436294    2.131809
     19          1           0        0.509720    2.323260   -0.877548
 ---------------------------------------------------------------------

 SCF Done:  E(RB3LYP) =  -423.123422432     A.U. after    1 cycles

 The electronic state is 1-A.
 Alpha  occ. eigenvalues --  -19.16617 -19.11691 -10.24345 -10.21685 -10.20112
 Alpha  occ. eigenvalues --  -10.19561 -10.19229 -10.18848 -10.18453  -1.04892
 Alpha  occ. eigenvalues --   -0.99936  -0.92877  -0.74704  -0.71390  -0.64731
 Alpha  occ. eigenvalues --   -0.62095  -0.57537  -0.52987  -0.52709  -0.49522
 Alpha  occ. eigenvalues --   -0.46539  -0.45000  -0.43338  -0.42706  -0.40471
 Alpha  occ. eigenvalues --   -0.38227  -0.36529  -0.34037  -0.31734  -0.31630
 Alpha  occ. eigenvalues --   -0.30668  -0.25960  -0.25427  -0.24447
 Alpha virt. eigenvalues --    0.06417   0.09636   0.10682   0.11397   0.12330
 Alpha virt. eigenvalues --    0.13164   0.14243   0.15271   0.15844   0.16958
 Alpha virt. eigenvalues --    0.18008   0.19038   0.19399   0.21737   0.22724

 Mulliken charges:
               1
     1  O   -0.434846
     2  C   -0.080886
     3  C   -0.084266
     4  C   -0.082233
     5  C   -0.241790
     6  C   -0.144877
     7  C   -0.130619
     8  C    0.394647
     9  O   -0.473558
    10  H    0.285856
    11  H    0.099995
    12  H    0.083518
    13  H    0.062283
    14  H    0.076282
    15  H    0.089886
    16  H    0.101727
    17  H    0.087514
    18  H    0.099168
    19  H    0.292196
 Sum of Mulliken charges =   0.00000

 Dipole moment (field-independent basis, Debye):
    X=             -2.3150    Y=              0.5645    Z=             -0.4693  Tot=              2.4286
 Quadrupole moment (field-independent basis, Debye-Ang):
   XX=            -60.5674   YY=            -49.3656   ZZ=            -51.3718
   XY=              1.1149   XZ=              0.3985   YZ=             -3.4200

  Exact polarizability:  82.351   0.362  74.509   0.203  -1.032  66.192
 Approx polarizability: 111.567   2.032 110.641  -1.410  -2.740 106.415

                      1                      2                      3
                      A                      A                      A
 Frequencies --    124.6061               168.5978               234.8793
 Red. masses --      3.8153                 5.2436                 2.2972
 Frc consts  --      0.0349                 0.0878                 0.0747
 IR Inten    --      2.5594                 0.5551                 8.8309

                      4                      5                      6
                      A                      A                      A
 Frequencies --    298.3597               332.5414               369.1256
 Red. masses --      2.2770                 1.4025                 3.7763
 Frc consts  --      0.1194                 0.0914                 0.3032
 IR Inten    --     20.5784                54.1873                55.7195

                      7                      8                      9
                      A                      A                      A
 Frequencies --    380.9254               455.8422               524.5714
 Red. masses --      3.8953                 2.1567                 1.1819
 Frc consts  --      0.3330                 0.2640                 0.1916
 IR Inten    --      4.6022                 4.1745                65.8051

                     10                     11                     12
                      A                      A                      A
 Frequencies --    553.4892               640.1578               739.4662
 Red. masses --      2.6866                 4.2173                 3.3162
 Frc consts  --      0.4849                 1.0183                 1.0684
 IR Inten    --     20.5739                 7.5254                 5.3816

                     13                     14                     15
                      A                      A                      A
 Frequencies --    759.5110               814.0928               839.0914
 Red. masses --      2.5605                 2.0558                 1.3251
 Frc consts  --      0.8703                 0.8028                 0.5497
 IR Inten    --      5.1760                 3.8350                 5.9194

                     16                     17                     18
                      A                      A                      A
 Frequencies --    898.0008               910.4081               932.4152
 Red. masses --      2.5804                 1.9241                 2.2789
 Frc consts  --      1.2260                 0.9396                 1.1673
 IR Inten    --      5.5554                 3.3827                 4.1011

                     19                     20                     21
                      A                      A                      A
 Frequencies --    940.5302               969.5548               997.2255
 Red. masses --      1.9948                 1.8827                 1.8366
 Frc consts  --      1.0397                 1.0428                 1.0761
 IR Inten    --      2.5832                 0.5534                 1.1467

                     22                     23                     24
                      A                      A                      A
 Frequencies --   1039.4584              1048.3918              1079.5651
 Red. masses --      2.0050                 2.1255                 3.2395
 Frc consts  --      1.2763                 1.3764                 2.2245
 IR Inten    --      4.9798                23.1700                65.8120

                     25                     26                     27
                      A                      A                      A
 Frequencies --   1091.0859              1113.2276              1142.5440
 Red. masses --      1.8554                 2.0173                 1.5661
 Frc consts  --      1.3014                 1.4729                 1.2045
 IR Inten    --     17.9982                 5.7993                 5.8126

                     28                     29                     30
                      A                      A                      A
 Frequencies --   1161.6814              1191.6203              1206.0110
 Red. masses --      1.7107                 1.5636                 1.3354
 Frc consts  --      1.3602                 1.3081                 1.1443
 IR Inten    --      5.2513                 0.7603                13.0366

                     31                     32                     33
                      A                      A                      A
 Frequencies --   1225.9341              1244.3495              1273.0112
 Red. masses --      1.6281                 1.5634                 1.9565
 Frc consts  --      1.4417                 1.4263                 1.8681
 IR Inten    --     50.9239                13.9749                17.0418

                     34                     35                     36
                      A                      A                      A
 Frequencies --   1285.8185              1301.8935              1360.0040
 Red. masses --      1.6435                 1.4933                 1.8558
 Frc consts  --      1.6010                 1.4913                 2.0224
 IR Inten    --     34.7374                52.9389                 2.3693

                     37                     38                     39
                      A                      A                      A
 Frequencies --   1402.7170              1437.5781              1452.4177
 Red. masses --      1.3249                 2.4338                 1.3869
 Frc consts  --      1.5359                 2.9634                 1.7238
 IR Inten    --      1.5767                64.8187                51.5727

                     40                     41                     42
                      A                      A                      A
 Frequencies --   1501.6440              1504.5675              2964.9740
 Red. masses --      1.1145                 1.0889                 1.0699
 Frc consts  --      1.4807                 1.4523                 5.5414
 IR Inten    --      0.0518                 0.8166                43.2513

                     43                     44                     45
                      A                      A                      A
 Frequencies --   3022.4390              3032.3667              3063.9102
 Red. masses --      1.0799                 1.0631                 1.0928
 Frc consts  --      5.8121                 5.7598                 6.0444
 IR Inten    --     23.4076                79.6284                52.2660

                     46                     47                     48
                      A                      A                      A
 Frequencies --   3092.7279              3134.8380              3190.8149
 Red. masses --      1.1044                 1.0911                 1.0917
 Frc consts  --      6.2239                 6.3172                 6.5485
 IR Inten    --     29.6902                29.8566                15.3741

                     49                     50                     51
                      A                      A                      A
 Frequencies --   3234.1273              3770.6510              3784.9787
 Red. masses --      1.0982                 1.0659                 1.0660
 Frc consts  --      6.7679                 8.9291                 8.9974
 IR Inten    --      3.5396                60.0245                22.6992

 - Thermochemistry -
 -------------------
 Temperature   298.150 Kelvin.  Pressure   1.00000 Atm.
 Atom     1 has atomic number  8 and mass  15.99491

 Molecular mass:   126.06808 amu.
 Principal axes and moments of inertia in atomic units:
                           1         2         3
     Eigenvalues --   599.747731210.865351551.31101
           X            0.99996   0.00088   0.00903
           Y           -0.00076   0.99991  -0.01327
           Z           -0.00904   0.01326   0.99987
 This molecule is an asymmetric top.
 Rotational symmetry number  1.
 Warning -- assumption of classical behavior for rotation
           may cause significant error
 Rotational temperatures (Kelvin)      0.14442     0.07153     0.05583
 Rotational constants (GHZ):           3.00917     1.49046     1.16337
 Zero-point vibrational energy     420121.0 (Joules/Mol)
                                  100.41132 (Kcal/Mol)
 Warning -- explicit consideration of  10 degrees of freedom as
           vibrations may cause significant error
 Vibrational temperatures:    179.28   242.57   337.94   429.27   478.45
          (Kelvin)            531.09   548.07   655.85   754.74   796.35
                              921.04  1063.93  1092.77  1171.30  1207.26
                             1292.02  1309.87  1341.54  1353.21  1394.97
                             1434.78  1495.55  1508.40  1553.25  1569.83
                             1601.68  1643.86  1671.40  1714.47  1735.18
                             1763.84  1790.34  1831.58  1850.00  1873.13
                             1956.74  2018.19  2068.35  2089.70  2160.53
                             2164.73  4265.93  4348.61  4362.89  4408.28
                             4449.74  4510.33  4590.87  4653.18  5425.12
                             5445.73

 Zero-point correction=                           0.160016 (Hartree/Particle)
 Thermal correction to Energy=                    0.167846
 Thermal correction to Enthalpy=                  0.168791
 Thermal correction to Gibbs Free Energy=         0.128066
 Sum of electronic and zero-point Energies=           -422.963407
 Sum of electronic and thermal Energies=              -422.955576
 Sum of electronic and thermal Enthalpies=            -422.954632
 Sum of electronic and thermal Free Energies=         -422.995356

                     E (Thermal)             CV                S
                      KCal/Mol        Cal/Mol-Kelvin    Cal/Mol-Kelvin
 Total                  105.325             31.686             85.712
 Electronic               0.000              0.000              0.000
 Translational            0.889              2.981             40.409
 Rotational               0.889              2.981             28.512
 Vibrational            103.548             25.724             16.791
 Vibration     1          0.610              1.928              3.028
 Vibration     2          0.625              1.881              2.451
 Vibration     3          0.655              1.787              1.841
 Vibration     4          0.691              1.677              1.426
 Vibration     5          0.714              1.611              1.248
 Vibration     6          0.741              1.536              1.083
 Vibration     7          0.751              1.511              1.035
 Vibration     8          0.814              1.348              0.778
 Vibration     9          0.880              1.196              0.599
 Vibration    10          0.909              1.132              0.537

 Optimization completed.
    -- Stationary point found.
 Normal termination of Gaussian 09 at Tue Jan 28 14:47:55 2020.
