 Gaussian 09, Revision D.01,
 Gaussian 09:  ES64L-G09RevD.01 24-Apr-2013

 -----------------------------
 # b3lyp 6-31G(2df,p) opt Freq
 -----------------------------

 -----
 titel
 -----
 Symbolic Z-matrix:
 Charge =  0 Multiplicity = 1

 SCF Done:  E(RB3LYP) =  -423.115529060     A.U. after   14 cycles
 Optimization completed.
    -- Stationary point found.
 Normal termination of Gaussian 09 at Tue Jan 28 12:49:25 2020.

 ----------------------------------------------------------------------
 #N Geom=AllCheck Guess=TCheck SCRF=Check GenChk RB3LYP/6-31G(2df,p) Fr
 eq
 ----------------------------------------------------------------------

 Structure from the checkpoint file:  "/scratch/puck/g09_74db019b-60c7-4fe1-8661-3c694d3e8c66/Gau-10918.chk"
 -----
 titel
 -----
 Charge =  0 Multiplicity = 1

                         Standard orientation:
 ---------------------------------------------------------------------
 Center     Atomic      Atomic             Coordinates (Angstroms)
 Number     Number       Type             X           Y           Z
 ---------------------------------------------------------------------
      1          6           0       -0.077556    2.139048   -0.261948
      2          6           0       -0.450985    0.696425   -0.123576
      3          8           0       -0.780997    0.291262    1.247546
      4          6           0       -1.618849   -0.704562    0.662776
      5          6           0       -0.876504   -1.308074   -0.544511
      6          6           0       -1.732570   -0.050681   -0.665880
      7          6           0        0.419510   -0.501205   -0.638426
      8          6           0        1.638621   -0.928473    0.164729
      9          8           0        2.717439   -0.004862    0.041729
     10          1           0       -0.893748    2.785614    0.072953
     11          1           0        0.805846    2.367956    0.343691
     12          1           0        0.156830    2.375257   -1.303937
     13          1           0       -2.329091   -1.230602    1.286303
     14          1           0       -1.090517   -2.298337   -0.926240
     15          1           0       -2.556862    0.225095   -1.308408
     16          1           0        0.690355   -0.327904   -1.685131
     17          1           0        1.353540   -1.076175    1.213582
     18          1           0        2.011346   -1.886197   -0.217475
     19          1           0        2.550767    0.719229    0.651476
 ---------------------------------------------------------------------

 SCF Done:  E(RB3LYP) =  -423.115529060     A.U. after    1 cycles

 The electronic state is 1-A.
 Alpha  occ. eigenvalues --  -19.13645 -19.12891 -10.24879 -10.24022 -10.21605
 Alpha  occ. eigenvalues --  -10.19631 -10.19384 -10.18723 -10.18651  -1.06102
 Alpha  occ. eigenvalues --   -1.00768  -0.85812  -0.76714  -0.72824  -0.65029
 Alpha  occ. eigenvalues --   -0.61493  -0.56027  -0.53960  -0.50515  -0.50138
 Alpha  occ. eigenvalues --   -0.46565  -0.45672  -0.42020  -0.41559  -0.40872
 Alpha  occ. eigenvalues --   -0.40099  -0.37333  -0.35192  -0.33091  -0.32532
 Alpha  occ. eigenvalues --   -0.29131  -0.27781  -0.24867  -0.23385
 Alpha virt. eigenvalues --    0.05952   0.08660   0.10105   0.11445   0.12612
 Alpha virt. eigenvalues --    0.13738   0.14543   0.14894   0.15818   0.16454
 Alpha virt. eigenvalues --    0.17946   0.18504   0.20037   0.20411   0.20908

 Mulliken charges:
               1
     1  C   -0.504282
     2  C    0.398360
     3  O   -0.329637
     4  C    0.096366
     5  C   -0.153337
     6  C   -0.203707
     7  C   -0.028909
     8  C   -0.106540
     9  O   -0.423688
    10  H    0.131985
    11  H    0.119995
    12  H    0.130833
    13  H    0.108816
    14  H    0.090473
    15  H    0.099343
    16  H    0.079651
    17  H    0.105604
    18  H    0.101824
    19  H    0.286850
 Sum of Mulliken charges =   0.00000

 Dipole moment (field-independent basis, Debye):
    X=             -1.6818    Y=              0.1123    Z=             -0.6972  Tot=              1.8241
 Quadrupole moment (field-independent basis, Debye-Ang):
   XX=            -56.5611   YY=            -48.9518   ZZ=            -54.0484
   XY=              2.8549   XZ=              3.0153   YZ=             -0.4107

  Exact polarizability:  78.376   2.249  78.160  -0.636   0.038  64.837
 Approx polarizability: 107.947   2.298 111.599  -2.313   1.559 106.294

                      1                      2                      3
                      A                      A                      A
 Frequencies --     56.1776               135.1155               170.9539
 Red. masses --      2.9444                 3.0446                 1.2075
 Frc consts  --      0.0055                 0.0327                 0.0208
 IR Inten    --      5.1534                 1.3829                19.6228

                      4                      5                      6
                      A                      A                      A
 Frequencies --    240.8323               253.0966               295.9113
 Red. masses --      1.8050                 1.4455                 2.3763
 Frc consts  --      0.0617                 0.0546                 0.1226
 IR Inten    --     35.4815                46.8408                22.0478

                      7                      8                      9
                      A                      A                      A
 Frequencies --    306.8895               399.0737               551.0242
 Red. masses --      2.5488                 5.3358                 3.4047
 Frc consts  --      0.1414                 0.5007                 0.6091
 IR Inten    --      2.2657                 5.6164                11.3369

                     10                     11                     12
                      A                      A                      A
 Frequencies --    586.3611               650.1438               763.5241
 Red. masses --      4.0922                 3.2520                 3.0308
 Frc consts  --      0.8290                 0.8099                 1.0410
 IR Inten    --      0.9968                 0.7678                 3.5272

                     13                     14                     15
                      A                      A                      A
 Frequencies --    766.9168               782.2124               807.1803
 Red. masses --      2.4912                 1.7351                 2.0382
 Frc consts  --      0.8633                 0.6255                 0.7824
 IR Inten    --      2.0879                 8.6689                16.4256

                     16                     17                     18
                      A                      A                      A
 Frequencies --    817.0847               852.9141               930.4291
 Red. masses --      2.5686                 2.7449                 1.4225
 Frc consts  --      1.0104                 1.1765                 0.7255
 IR Inten    --      4.2825                31.9773                15.9456

                     19                     20                     21
                      A                      A                      A
 Frequencies --    975.3678               990.7459               998.3812
 Red. masses --      1.7683                 1.7454                 1.8341
 Frc consts  --      0.9911                 1.0094                 1.0771
 IR Inten    --     37.4093                 4.8688                 4.8831

                     22                     23                     24
                      A                      A                      A
 Frequencies --   1026.9014              1039.8039              1057.2755
 Red. masses --      1.5848                 2.7942                 4.2347
 Frc consts  --      0.9847                 1.7800                 2.7890
 IR Inten    --      1.6193                 7.3500                82.8898

                     25                     26                     27
                      A                      A                      A
 Frequencies --   1069.6906              1105.5848              1123.4154
 Red. masses --      2.8478                 1.7005                 2.1167
 Frc consts  --      1.9199                 1.2247                 1.5740
 IR Inten    --     20.1689                13.5382                 1.0119

                     28                     29                     30
                      A                      A                      A
 Frequencies --   1138.4710              1178.5194              1188.7435
 Red. masses --      2.1782                 1.7702                 1.5215
 Frc consts  --      1.6634                 1.4486                 1.2667
 IR Inten    --     18.5957                 3.8270                 1.0600

                     31                     32                     33
                      A                      A                      A
 Frequencies --   1230.7880              1278.9037              1318.5415
 Red. masses --      1.4754                 1.7004                 2.1060
 Frc consts  --      1.3168                 1.6386                 2.1573
 IR Inten    --     11.6983                 5.9429                12.0634

                     34                     35                     36
                      A                      A                      A
 Frequencies --   1364.6083              1370.3017              1399.7795
 Red. masses --      2.6157                 1.6614                 1.1858
 Frc consts  --      2.8698                 1.8380                 1.3689
 IR Inten    --      4.9150                 6.7686                24.4943

                     37                     38                     39
                      A                      A                      A
 Frequencies --   1412.6968              1421.8205              1473.3926
 Red. masses --      1.4328                 1.6694                 1.0527
 Frc consts  --      1.6848                 1.9884                 1.3464
 IR Inten    --     21.2355                 7.1539                 3.7064

                     40                     41                     42
                      A                      A                      A
 Frequencies --   1487.2085              1497.4009              3025.3964
 Red. masses --      1.0514                 1.0844                 1.0572
 Frc consts  --      1.3701                 1.4325                 5.7010
 IR Inten    --      5.4340                 2.7056                34.1692

                     43                     44                     45
                      A                      A                      A
 Frequencies --   3038.1410              3058.3386              3075.6879
 Red. masses --      1.0359                 1.0900                 1.1014
 Frc consts  --      5.6335                 6.0071                 6.1387
 IR Inten    --     15.9990                 9.3479                38.6573

                     46                     47                     48
                      A                      A                      A
 Frequencies --   3105.5318              3120.2584              3196.0342
 Red. masses --      1.0995                 1.1019                 1.0911
 Frc consts  --      6.2479                 6.3206                 6.5664
 IR Inten    --     19.3789                13.2302                11.7850

                     49                     50                     51
                      A                      A                      A
 Frequencies --   3205.4740              3221.1896              3837.6457
 Red. masses --      1.0906                 1.1042                 1.0665
 Frc consts  --      6.6025                 6.7507                 9.2541
 IR Inten    --     10.9447                16.9798                14.6748

 - Thermochemistry -
 -------------------
 Temperature   298.150 Kelvin.  Pressure   1.00000 Atm.
 Atom     1 has atomic number  6 and mass  12.00000

 Molecular mass:   126.06808 amu.
 Principal axes and moments of inertia in atomic units:
                           1         2         3
     Eigenvalues --   676.780191161.507441437.58216
           X            0.99987   0.00746   0.01413
           Y           -0.00715   0.99973  -0.02198
           Z           -0.01429   0.02187   0.99966
 This molecule is an asymmetric top.
 Rotational symmetry number  1.
 Warning -- assumption of classical behavior for rotation
           may cause significant error
 Rotational temperatures (Kelvin)      0.12798     0.07457     0.06025
 Rotational constants (GHZ):           2.66666     1.55379     1.25540
 Zero-point vibrational energy     415091.5 (Joules/Mol)
                                   99.20925 (Kcal/Mol)
 Warning -- explicit consideration of  10 degrees of freedom as
           vibrations may cause significant error
 Vibrational temperatures:     80.83   194.40   245.96   346.50   364.15
          (Kelvin)            425.75   441.54   574.18   792.80   843.64
                              935.41  1098.54  1103.42  1125.43  1161.35
                             1175.60  1227.15  1338.68  1403.33  1425.46
                             1436.45  1477.48  1496.04  1521.18  1539.04
                             1590.69  1616.34  1638.00  1695.62  1710.33
                             1770.83  1840.05  1897.08  1963.36  1971.56
                             2013.97  2032.55  2045.68  2119.88  2139.76
                             2154.42  4352.87  4371.20  4400.26  4425.22
                             4468.16  4489.35  4598.37  4611.96  4634.57
                             5521.51

 Zero-point correction=                           0.158100 (Hartree/Particle)
 Thermal correction to Energy=                    0.166610
 Thermal correction to Enthalpy=                  0.167554
 Thermal correction to Gibbs Free Energy=         0.124814
 Sum of electronic and zero-point Energies=           -422.957429
 Sum of electronic and thermal Energies=              -422.948919
 Sum of electronic and thermal Enthalpies=            -422.947975
 Sum of electronic and thermal Free Energies=         -422.990715

                     E (Thermal)             CV                S
                      KCal/Mol        Cal/Mol-Kelvin    Cal/Mol-Kelvin
 Total                  104.549             32.558             89.954
 Electronic               0.000              0.000              0.000
 Translational            0.889              2.981             40.409
 Rotational               0.889              2.981             28.515
 Vibrational            102.772             26.596             21.030
 Vibration     1          0.596              1.975              4.587
 Vibration     2          0.613              1.918              2.872
 Vibration     3          0.626              1.878              2.425
 Vibration     4          0.658              1.778              1.797
 Vibration     5          0.664              1.758              1.709
 Vibration     6          0.690              1.681              1.440
 Vibration     7          0.697              1.661              1.379
 Vibration     8          0.765              1.472              0.966
 Vibration     9          0.906              1.137              0.542
 Vibration    10          0.943              1.061              0.474

 Normal termination of Gaussian 09 at Tue Jan 28 14:47:30 2020.
