 Gaussian 09, Revision D.01,
 Gaussian 09:  ES64L-G09RevD.01 24-Apr-2013

 -----------------------------
 # b3lyp 6-31G(2df,p) opt Freq
 -----------------------------

 -----
 titel
 -----
 Symbolic Z-matrix:
 Charge =  0 Multiplicity = 1

 SCF Done:  E(RB3LYP) =  -423.168389447     A.U. after   14 cycles
 Optimization completed.
    -- Stationary point found.
 Normal termination of Gaussian 09 at Tue Jan 28 14:08:54 2020.

 ----------------------------------------------------------------------
 #N Geom=AllCheck Guess=TCheck SCRF=Check GenChk RB3LYP/6-31G(2df,p) Fr
 eq
 ----------------------------------------------------------------------

 Structure from the checkpoint file:  "/scratch/puck/g09_557e89e9-387b-43ca-9b10-f724193814d4/Gau-91402.chk"
 -----
 titel
 -----
 Charge =  0 Multiplicity = 1

                         Standard orientation:
 ---------------------------------------------------------------------
 Center     Atomic      Atomic             Coordinates (Angstroms)
 Number     Number       Type             X           Y           Z
 ---------------------------------------------------------------------
      1          6           0       -2.981705   -0.765478   -0.060048
      2          6           0       -1.975074    0.355579    0.213393
      3          6           0       -0.587846    0.077916   -0.379389
      4          6           0        0.326169   -0.910197    0.399883
      5          8           0        1.279770   -1.577719   -0.448095
      6          6           0        2.301801   -0.600465   -0.155938
      7          6           0        1.343998    0.226937    0.736605
      8          6           0        0.443821    1.185230   -0.055522
      9          8           0        0.471062    2.364705   -0.258160
     10          1           0       -3.953000   -0.536639    0.389091
     11          1           0       -3.132762   -0.904111   -1.135717
     12          1           0       -2.642023   -1.721661    0.351609
     13          1           0       -2.338317    1.301747   -0.203095
     14          1           0       -1.883454    0.518153    1.295738
     15          1           0       -0.662603   -0.167906   -1.444134
     16          1           0       -0.136608   -1.574159    1.133055
     17          1           0        3.133021   -1.048425    0.400665
     18          1           0        2.692214   -0.110052   -1.054827
     19          1           0        1.689898    0.530034    1.723751
 ---------------------------------------------------------------------

 SCF Done:  E(RB3LYP) =  -423.168389447     A.U. after    1 cycles

 The electronic state is 1-A.
 Alpha  occ. eigenvalues --  -19.14386 -19.14218 -10.27214 -10.24784 -10.24661
 Alpha  occ. eigenvalues --  -10.20367 -10.19710 -10.19589 -10.18305  -1.05656
 Alpha  occ. eigenvalues --   -1.04582  -0.83872  -0.77378  -0.72145  -0.66133
 Alpha  occ. eigenvalues --   -0.60728  -0.58963  -0.52029  -0.51152  -0.48488
 Alpha  occ. eigenvalues --   -0.47660  -0.44548  -0.44027  -0.41846  -0.41343
 Alpha  occ. eigenvalues --   -0.39667  -0.37902  -0.36765  -0.35654  -0.34151
 Alpha  occ. eigenvalues --   -0.32622  -0.30703  -0.25647  -0.24343
 Alpha virt. eigenvalues --   -0.02940   0.06883   0.08394   0.11029   0.11481
 Alpha virt. eigenvalues --    0.12759   0.13431   0.14160   0.14858   0.16223
 Alpha virt. eigenvalues --    0.17427   0.17740   0.19370   0.19730   0.20944

 Mulliken charges:
               1
     1  C   -0.387781
     2  C   -0.188920
     3  C   -0.137817
     4  C    0.103357
     5  O   -0.286912
     6  C   -0.089349
     7  C   -0.220752
     8  C    0.395060
     9  O   -0.304922
    10  H    0.119208
    11  H    0.122749
    12  H    0.121002
    13  H    0.122329
    14  H    0.098904
    15  H    0.108609
    16  H    0.086684
    17  H    0.115769
    18  H    0.119297
    19  H    0.103486
 Sum of Mulliken charges =   0.00000

 Dipole moment (field-independent basis, Debye):
    X=             -0.3546    Y=             -1.2567    Z=              1.2905  Tot=              1.8359
 Quadrupole moment (field-independent basis, Debye-Ang):
   XX=            -48.1140   YY=            -64.2979   ZZ=            -51.4543
   XY=              0.1595   XZ=              1.1961   YZ=             -0.6898

  Exact polarizability:  90.684   0.480  74.490   1.242  -1.547  62.851
 Approx polarizability: 113.006   0.928 118.559   1.142  -2.589  97.866

                      1                      2                      3
                      A                      A                      A
 Frequencies --     68.1945                99.6500               134.6404
 Red. masses --      3.6739                 2.2641                 3.6751
 Frc consts  --      0.0101                 0.0132                 0.0393
 IR Inten    --      5.0396                 0.6242                 1.7440

                      4                      5                      6
                      A                      A                      A
 Frequencies --    186.7915               217.2992               272.1290
 Red. masses --      1.8361                 2.5453                 1.5347
 Frc consts  --      0.0377                 0.0708                 0.0670
 IR Inten    --      1.5040                 2.2086                 0.3111

                      7                      8                      9
                      A                      A                      A
 Frequencies --    301.0249               421.6668               454.8709
 Red. masses --      4.2449                 3.9145                 3.9056
 Frc consts  --      0.2266                 0.4101                 0.4761
 IR Inten    --      3.0086                 3.9371                 3.5999

                     10                     11                     12
                      A                      A                      A
 Frequencies --    623.6551               690.1864               768.3021
 Red. masses --      4.0177                 2.9821                 1.6366
 Frc consts  --      0.9207                 0.8369                 0.5692
 IR Inten    --      2.1053                 0.5549                 1.4304

                     13                     14                     15
                      A                      A                      A
 Frequencies --    781.9387               842.2500               853.8690
 Red. masses --      2.0227                 2.7267                 2.4039
 Frc consts  --      0.7287                 1.1397                 1.0326
 IR Inten    --      5.3782                 4.4620                 8.4548

                     16                     17                     18
                      A                      A                      A
 Frequencies --    925.0032               933.5201               962.9497
 Red. masses --      1.9805                 2.0152                 2.9275
 Frc consts  --      0.9984                 1.0347                 1.5994
 IR Inten    --      2.3974                 4.0179                23.5279

                     19                     20                     21
                      A                      A                      A
 Frequencies --    978.6148              1021.8970              1033.1001
 Red. masses --      1.8346                 4.3771                 2.6619
 Frc consts  --      1.0352                 2.6931                 1.6739
 IR Inten    --      8.6330                57.1887                 4.5460

                     22                     23                     24
                      A                      A                      A
 Frequencies --   1048.9254              1071.0824              1103.6260
 Red. masses --      2.3349                 2.3626                 1.7260
 Frc consts  --      1.5136                 1.5969                 1.2386
 IR Inten    --     28.1747                62.7744                 2.1648

                     25                     26                     27
                      A                      A                      A
 Frequencies --   1129.9477              1157.5899              1171.9163
 Red. masses --      2.5853                 1.3144                 1.5962
 Frc consts  --      1.9448                 1.0378                 1.2916
 IR Inten    --      3.7786                 1.2600                24.3021

                     28                     29                     30
                      A                      A                      A
 Frequencies --   1198.3474              1232.6548              1245.8779
 Red. masses --      1.6011                 1.7099                 1.5304
 Frc consts  --      1.3547                 1.5308                 1.3996
 IR Inten    --      0.6704                 5.1415                 6.2443

                     31                     32                     33
                      A                      A                      A
 Frequencies --   1253.8056              1301.3650              1327.8996
 Red. masses --      1.5488                 1.3007                 1.3283
 Frc consts  --      1.4345                 1.2978                 1.3800
 IR Inten    --     12.2447                16.1154                 1.9137

                     34                     35                     36
                      A                      A                      A
 Frequencies --   1355.6454              1369.8469              1414.0573
 Red. masses --      1.4295                 1.4359                 1.2307
 Frc consts  --      1.5478                 1.5875                 1.4499
 IR Inten    --      9.3999                15.0645                 1.5624

                     37                     38                     39
                      A                      A                      A
 Frequencies --   1486.6768              1498.5620              1504.8537
 Red. masses --      1.0624                 1.0401                 1.0650
 Frc consts  --      1.3834                 1.3762                 1.4210
 IR Inten    --      0.9949                 5.5691                 3.6977

                     40                     41                     42
                      A                      A                      A
 Frequencies --   1523.6909              1884.3792              3019.7829
 Red. masses --      1.0932                12.6730                 1.0655
 Frc consts  --      1.4954                26.5135                 5.7246
 IR Inten    --      0.5358               242.4754                17.1015

                     43                     44                     45
                      A                      A                      A
 Frequencies --   3024.1687              3034.8006              3058.3564
 Red. masses --      1.0549                 1.0352                 1.0851
 Frc consts  --      5.6845                 5.6176                 5.9798
 IR Inten    --     73.6296                22.4521                 5.5194

                     46                     47                     48
                      A                      A                      A
 Frequencies --   3068.3400              3071.1415              3090.0665
 Red. masses --      1.0947                 1.1115                 1.0895
 Frc consts  --      6.0721                 6.1768                 6.1292
 IR Inten    --      7.9634                28.0373                30.3714

                     49                     50                     51
                      A                      A                      A
 Frequencies --   3104.8322              3107.0574              3129.4748
 Red. masses --      1.1014                 1.1016                 1.0903
 Frc consts  --      6.2556                 6.2658                 6.2914
 IR Inten    --     42.4197                30.0600                13.9376

 - Thermochemistry -
 -------------------
 Temperature   298.150 Kelvin.  Pressure   1.00000 Atm.
 Atom     1 has atomic number  6 and mass  12.00000

 Molecular mass:   126.06808 amu.
 Principal axes and moments of inertia in atomic units:
                           1         2         3
     Eigenvalues --   734.816001301.883571848.74796
           X            0.99978   0.02083   0.00370
           Y           -0.02082   0.99978  -0.00221
           Z           -0.00374   0.00213   0.99999
 This molecule is an asymmetric top.
 Rotational symmetry number  1.
 Warning -- assumption of classical behavior for rotation
           may cause significant error
 Rotational temperatures (Kelvin)      0.11787     0.06653     0.04685
 Rotational constants (GHZ):           2.45605     1.38625     0.97620
 Zero-point vibrational energy     416063.1 (Joules/Mol)
                                   99.44148 (Kcal/Mol)
 Warning -- explicit consideration of   9 degrees of freedom as
           vibrations may cause significant error
 Vibrational temperatures:     98.12   143.37   193.72   268.75   312.64
          (Kelvin)            391.53   433.11   606.68   654.46   897.30
                              993.02  1105.41  1125.03  1211.81  1228.53
                             1330.87  1343.13  1385.47  1408.01  1470.28
                             1486.40  1509.17  1541.05  1587.87  1625.74
                             1665.51  1686.12  1724.15  1773.51  1792.54
                             1803.94  1872.37  1910.55  1950.47  1970.90
                             2034.51  2138.99  2156.09  2165.15  2192.25
                             2711.20  4344.79  4351.10  4366.40  4400.29
                             4414.65  4418.68  4445.91  4467.16  4470.36
                             4502.61

 Zero-point correction=                           0.158470 (Hartree/Particle)
 Thermal correction to Energy=                    0.167126
 Thermal correction to Enthalpy=                  0.168071
 Thermal correction to Gibbs Free Energy=         0.124532
 Sum of electronic and zero-point Energies=           -423.009919
 Sum of electronic and thermal Energies=              -423.001263
 Sum of electronic and thermal Enthalpies=            -423.000319
 Sum of electronic and thermal Free Energies=         -423.043858

                     E (Thermal)             CV                S
                      KCal/Mol        Cal/Mol-Kelvin    Cal/Mol-Kelvin
 Total                  104.873             31.748             91.635
 Electronic               0.000              0.000              0.000
 Translational            0.889              2.981             40.409
 Rotational               0.889              2.981             28.960
 Vibrational            103.096             25.787             22.266
 Vibration     1          0.598              1.969              4.205
 Vibration     2          0.604              1.949              3.461
 Vibration     3          0.613              1.919              2.879
 Vibration     4          0.632              1.858              2.259
 Vibration     5          0.646              1.815              1.981
 Vibration     6          0.675              1.725              1.583
 Vibration     7          0.693              1.672              1.411
 Vibration     8          0.784              1.423              0.886
 Vibration     9          0.813              1.350              0.781

 Optimization completed.
    -- Stationary point found.
 Normal termination of Gaussian 09 at Tue Jan 28 14:53:02 2020.
