 Gaussian 09, Revision D.01,
 Gaussian 09:  ES64L-G09RevD.01 24-Apr-2013

 -----------------------------
 # b3lyp 6-31G(2df,p) opt Freq
 -----------------------------

 -----
 titel
 -----
 Symbolic Z-matrix:
 Charge =  0 Multiplicity = 1

 SCF Done:  E(RB3LYP) =  -423.116149161     A.U. after   13 cycles
 Optimization completed.
    -- Stationary point found.
 Normal termination of Gaussian 09 at Mon Jan 27 16:30:13 2020.

 ----------------------------------------------------------------------
 #N Geom=AllCheck Guess=TCheck SCRF=Check GenChk RB3LYP/6-31G(2df,p) Fr
 eq
 ----------------------------------------------------------------------

 Structure from the checkpoint file:  "/scratch/puck/g09_3a199fec-b950-4637-be2a-48a244338e92/Gau-69947.chk"
 -----
 titel
 -----
 Charge =  0 Multiplicity = 1

                         Standard orientation:
 ---------------------------------------------------------------------
 Center     Atomic      Atomic             Coordinates (Angstroms)
 Number     Number       Type             X           Y           Z
 ---------------------------------------------------------------------
      1          6           0        0.197815    2.102861    0.364603
      2          6           0        0.121910    0.630957   -0.026437
      3          8           0        1.084157    0.362472   -1.102134
      4          6           0        1.902343   -0.382288   -0.195517
      5          6           0        1.214370   -1.616573    0.280257
      6          6           0        0.900604   -0.280670    0.931516
      7          6           0       -1.289757    0.280856   -0.438459
      8          6           0       -2.261452   -0.277887    0.510880
      9          8           0       -1.680062   -1.087031   -0.510898
     10          1           0       -0.443254    2.308887    1.228744
     11          1           0        1.226115    2.370354    0.619331
     12          1           0       -0.126821    2.736460   -0.466573
     13          1           0        2.973480   -0.223343   -0.234732
     14          1           0        0.481250   -2.110578   -0.344498
     15          1           0        1.823347   -2.268086    0.900678
     16          1           0        1.050092   -0.077301    1.983649
     17          1           0       -1.668738    0.890096   -1.261349
     18          1           0       -1.941501   -0.513702    1.524843
     19          1           0       -3.321728   -0.059860    0.393110
 ---------------------------------------------------------------------

 SCF Done:  E(RB3LYP) =  -423.116149161     A.U. after    1 cycles

 The electronic state is 1-A.
 Alpha  occ. eigenvalues --  -19.15398 -19.13405 -10.24812 -10.23818 -10.23750
 Alpha  occ. eigenvalues --  -10.23636 -10.19414 -10.18319 -10.18198  -1.07660
 Alpha  occ. eigenvalues --   -1.04617  -0.82854  -0.77579  -0.67651  -0.65507
 Alpha  occ. eigenvalues --   -0.62670  -0.58977  -0.53255  -0.51383  -0.50822
 Alpha  occ. eigenvalues --   -0.47566  -0.47244  -0.42977  -0.40821  -0.40161
 Alpha  occ. eigenvalues --   -0.38619  -0.37616  -0.36905  -0.34144  -0.32231
 Alpha  occ. eigenvalues --   -0.30995  -0.27992  -0.26038  -0.23482
 Alpha virt. eigenvalues --    0.07290   0.08774   0.10623   0.11133   0.11601
 Alpha virt. eigenvalues --    0.12966   0.14177   0.14337   0.15539   0.16373
 Alpha virt. eigenvalues --    0.17819   0.17966   0.18974   0.20949   0.21925

 Mulliken charges:
               1
     1  C   -0.433331
     2  C    0.382071
     3  O   -0.337560
     4  C    0.096182
     5  C   -0.306932
     6  C   -0.186800
     7  C    0.041870
     8  C   -0.180726
     9  O   -0.228444
    10  H    0.116271
    11  H    0.127435
    12  H    0.126288
    13  H    0.101573
    14  H    0.145190
    15  H    0.109860
    16  H    0.094614
    17  H    0.098659
    18  H    0.117272
    19  H    0.116509
 Sum of Mulliken charges =   0.00000

 Dipole moment (field-independent basis, Debye):
    X=             -0.1398    Y=              1.2162    Z=              2.3164  Tot=              2.6200
 Quadrupole moment (field-independent basis, Debye-Ang):
   XX=            -48.8607   YY=            -53.8044   ZZ=            -54.2486
   XY=             -3.5980   XZ=              0.7968   YZ=             -1.1242

  Exact polarizability:  82.501  -3.620  75.574  -2.008  -2.535  64.654
 Approx polarizability: 111.039  -2.854 109.003  -7.293  -2.761 106.413

                      1                      2                      3
                      A                      A                      A
 Frequencies --     75.1829               182.2986               200.4173
 Red. masses --      3.3929                 2.7224                 3.1800
 Frc consts  --      0.0113                 0.0533                 0.0753
 IR Inten    --      2.0848                 1.2605                 3.0987

                      4                      5                      6
                      A                      A                      A
 Frequencies --    227.4460               260.5024               289.0780
 Red. masses --      1.2702                 2.6823                 2.4096
 Frc consts  --      0.0387                 0.1072                 0.1186
 IR Inten    --      0.5273                 0.5314                 0.8989

                      7                      8                      9
                      A                      A                      A
 Frequencies --    358.3525               460.1585               488.0403
 Red. masses --      4.1961                 3.1390                 3.0353
 Frc consts  --      0.3175                 0.3916                 0.4260
 IR Inten    --      0.4771                 5.5933                 5.8196

                     10                     11                     12
                      A                      A                      A
 Frequencies --    564.2094               636.9855               760.5671
 Red. masses --      4.1756                 2.6843                 1.7241
 Frc consts  --      0.7832                 0.6417                 0.5876
 IR Inten    --      8.5954                10.8301                 8.4850

                     13                     14                     15
                      A                      A                      A
 Frequencies --    798.9211               845.7957               872.5178
 Red. masses --      1.9155                 2.3122                 4.1765
 Frc consts  --      0.7203                 0.9746                 1.8733
 IR Inten    --     12.0569                 2.9589                30.8594

                     16                     17                     18
                      A                      A                      A
 Frequencies --    906.7105               909.4233               944.3485
 Red. masses --      2.9111                 2.1715                 2.7486
 Frc consts  --      1.4101                 1.0582                 1.4442
 IR Inten    --     33.8581                 4.9212                11.9660

                     19                     20                     21
                      A                      A                      A
 Frequencies --    966.0843               977.0621              1006.5478
 Red. masses --      2.4761                 1.5543                 1.6972
 Frc consts  --      1.3616                 0.8742                 1.0131
 IR Inten    --     13.8918                18.3198                 9.3951

                     22                     23                     24
                      A                      A                      A
 Frequencies --   1033.8421              1048.0783              1056.2286
 Red. masses --      1.4933                 1.7019                 1.5334
 Frc consts  --      0.9404                 1.1015                 1.0079
 IR Inten    --      2.8595                51.0255                 4.3044

                     25                     26                     27
                      A                      A                      A
 Frequencies --   1089.3741              1093.8917              1132.6457
 Red. masses --      1.6723                 1.2555                 1.8456
 Frc consts  --      1.1693                 0.8851                 1.3950
 IR Inten    --     24.1844                 1.1807                 5.6706

                     28                     29                     30
                      A                      A                      A
 Frequencies --   1156.6097              1166.8017              1168.4447
 Red. masses --      1.9410                 1.4724                 1.6633
 Frc consts  --      1.5298                 1.1810                 1.3379
 IR Inten    --      9.7003                 2.1013                 4.2069

                     31                     32                     33
                      A                      A                      A
 Frequencies --   1196.7470              1261.0611              1285.4101
 Red. masses --      2.1207                 1.8698                 1.7371
 Frc consts  --      1.7895                 1.7519                 1.6911
 IR Inten    --     10.3523                 6.6296                 2.4862

                     34                     35                     36
                      A                      A                      A
 Frequencies --   1334.7249              1353.8478              1401.1855
 Red. masses --      2.1793                 2.1949                 1.2850
 Frc consts  --      2.2875                 2.3703                 1.4864
 IR Inten    --     21.3238                 5.7855                 5.8962

                     37                     38                     39
                      A                      A                      A
 Frequencies --   1429.1985              1474.8767              1486.3842
 Red. masses --      1.7904                 1.2310                 1.0898
 Frc consts  --      2.1546                 1.5777                 1.4186
 IR Inten    --      4.2856                 6.5756                 2.1955

                     40                     41                     42
                      A                      A                      A
 Frequencies --   1487.6696              1526.5885              3036.2945
 Red. masses --      1.0514                 1.3649                 1.0355
 Frc consts  --      1.3709                 1.8741                 5.6243
 IR Inten    --      4.0286                 1.3546                15.2609

                     43                     44                     45
                      A                      A                      A
 Frequencies --   3084.6127              3094.2767              3107.3629
 Red. masses --      1.0505                 1.0872                 1.1000
 Frc consts  --      5.8893                 6.1331                 6.2581
 IR Inten    --     24.0859                18.2851                20.8390

                     46                     47                     48
                      A                      A                      A
 Frequencies --   3125.1001              3133.1620              3172.9107
 Red. masses --      1.1016                 1.0551                 1.1195
 Frc consts  --      6.3389                 6.1025                 6.6405
 IR Inten    --     18.1134                10.8519                25.3571

                     49                     50                     51
                      A                      A                      A
 Frequencies --   3180.3462              3198.2557              3235.3290
 Red. masses --      1.0903                 1.0981                 1.1141
 Frc consts  --      6.4977                 6.6179                 6.8708
 IR Inten    --     23.9163                11.8073                 1.6995

 - Thermochemistry -
 -------------------
 Temperature   298.150 Kelvin.  Pressure   1.00000 Atm.
 Atom     1 has atomic number  6 and mass  12.00000

 Molecular mass:   126.06808 amu.
 Principal axes and moments of inertia in atomic units:
                           1         2         3
     Eigenvalues --   704.858701083.982011406.75963
           X            0.99905  -0.04335   0.00498
           Y            0.04337   0.99906  -0.00259
           Z           -0.00487   0.00280   0.99998
 This molecule is an asymmetric top.
 Rotational symmetry number  1.
 Warning -- assumption of classical behavior for rotation
           may cause significant error
 Rotational temperatures (Kelvin)      0.12288     0.07990     0.06157
 Rotational constants (GHZ):           2.56043     1.66492     1.28291
 Zero-point vibrational energy     414397.8 (Joules/Mol)
                                   99.04346 (Kcal/Mol)
 Warning -- explicit consideration of  10 degrees of freedom as
           vibrations may cause significant error
 Vibrational temperatures:    108.17   262.29   288.36   327.24   374.80
          (Kelvin)            415.92   515.59   662.06   702.18   811.77
                              916.48  1094.29  1149.47  1216.91  1255.36
                             1304.55  1308.46  1358.71  1389.98  1405.77
                             1448.20  1487.47  1507.95  1519.68  1567.36
                             1573.86  1629.62  1664.10  1678.77  1681.13
                             1721.85  1814.38  1849.42  1920.37  1947.88
                             2015.99  2056.30  2122.02  2138.57  2140.42
                             2196.42  4368.55  4438.06  4451.97  4470.80
                             4496.32  4507.92  4565.11  4575.80  4601.57
                             4654.91

 Zero-point correction=                           0.157836 (Hartree/Particle)
 Thermal correction to Energy=                    0.166070
 Thermal correction to Enthalpy=                  0.167015
 Thermal correction to Gibbs Free Energy=         0.125153
 Sum of electronic and zero-point Energies=           -422.958313
 Sum of electronic and thermal Energies=              -422.950079
 Sum of electronic and thermal Enthalpies=            -422.949135
 Sum of electronic and thermal Free Energies=         -422.990996

                     E (Thermal)             CV                S
                      KCal/Mol        Cal/Mol-Kelvin    Cal/Mol-Kelvin
 Total                  104.211             32.002             88.106
 Electronic               0.000              0.000              0.000
 Translational            0.889              2.981             40.409
 Rotational               0.889              2.981             28.465
 Vibrational            102.433             26.041             19.232
 Vibration     1          0.599              1.966              4.013
 Vibration     2          0.630              1.864              2.305
 Vibration     3          0.638              1.839              2.129
 Vibration     4          0.651              1.799              1.899
 Vibration     5          0.669              1.745              1.658
 Vibration     6          0.686              1.694              1.479
 Vibration     7          0.733              1.558              1.129
 Vibration     8          0.818              1.338              0.766
 Vibration     9          0.844              1.277              0.689
 Vibration    10          0.920              1.109              0.515

 Optimization completed.
    -- Stationary point found.
 Normal termination of Gaussian 09 at Mon Jan 27 17:26:03 2020.
