 Gaussian 09, Revision D.01,
 Gaussian 09:  ES64L-G09RevD.01 24-Apr-2013

 -----------------------------
 # b3lyp 6-31G(2df,p) opt Freq
 -----------------------------

 -----
 titel
 -----
 Symbolic Z-matrix:
 Charge =  0 Multiplicity = 1

 SCF Done:  E(RB3LYP) =  -423.158654410     A.U. after   13 cycles
 Optimization completed.
    -- Stationary point found.
 Normal termination of Gaussian 09 at Mon Jan 27 17:00:19 2020.

 ----------------------------------------------------------------------
 #N Geom=AllCheck Guess=TCheck SCRF=Check GenChk RB3LYP/6-31G(2df,p) Fr
 eq
 ----------------------------------------------------------------------

 Structure from the checkpoint file:  "/scratch/puck/g09_bffafc0e-de17-4286-88ab-4d02acdfa4b3/Gau-166871.chk"
 -----
 titel
 -----
 Charge =  0 Multiplicity = 1

                         Standard orientation:
 ---------------------------------------------------------------------
 Center     Atomic      Atomic             Coordinates (Angstroms)
 Number     Number       Type             X           Y           Z
 ---------------------------------------------------------------------
      1          6           0       -2.213131   -0.221741   -0.205874
      2          6           0       -0.735525   -0.344518    0.063897
      3          6           0       -0.224883   -0.449680    1.547855
      4          6           0        0.885935    0.538727    1.192047
      5          6           0        1.494357    0.147021   -0.166628
      6          6           0        1.239389   -1.261365   -0.689976
      7          8           0       -0.186698   -1.393520   -0.733262
      8          6           0        0.207919    0.884651   -0.127484
      9          8           0       -0.027669    2.058575   -0.808092
     10          1           0       -2.728904   -1.151359    0.052295
     11          1           0       -2.651215    0.587228    0.387312
     12          1           0       -2.387736   -0.013176   -1.265319
     13          1           0       -0.937770   -0.026877    2.262230
     14          1           0        0.057008   -1.456258    1.872685
     15          1           0        1.437913    1.174190    1.874592
     16          1           0        2.389253    0.684611   -0.456328
     17          1           0        1.634862   -1.398870   -1.703149
     18          1           0        1.674251   -2.038992   -0.046431
     19          1           0       -0.697095    2.560495   -0.330076
 ---------------------------------------------------------------------

 SCF Done:  E(RB3LYP) =  -423.158654410     A.U. after    1 cycles

 The electronic state is 1-A.
 Alpha  occ. eigenvalues --  -19.15540 -19.12889 -10.23398 -10.23236 -10.22248
 Alpha  occ. eigenvalues --  -10.19246 -10.18997 -10.18063 -10.17731  -1.04521
 Alpha  occ. eigenvalues --   -1.02556  -0.87859  -0.77262  -0.69941  -0.66972
 Alpha  occ. eigenvalues --   -0.61082  -0.57206  -0.55964  -0.50730  -0.47700
 Alpha  occ. eigenvalues --   -0.46723  -0.43371  -0.42258  -0.40575  -0.40208
 Alpha  occ. eigenvalues --   -0.39211  -0.37775  -0.36759  -0.35701  -0.31727
 Alpha  occ. eigenvalues --   -0.29737  -0.28170  -0.24697  -0.22799
 Alpha virt. eigenvalues --    0.06571   0.09800   0.10490   0.12568   0.13039
 Alpha virt. eigenvalues --    0.14376   0.15032   0.15224   0.16566   0.17423
 Alpha virt. eigenvalues --    0.18413   0.18714   0.19149   0.20389   0.22642

 Mulliken charges:
               1
     1  C   -0.481623
     2  C    0.335180
     3  C   -0.275595
     4  C   -0.168429
     5  C   -0.119274
     6  C   -0.108534
     7  O   -0.303153
     8  C    0.339684
     9  O   -0.456413
    10  H    0.130738
    11  H    0.105699
    12  H    0.134324
    13  H    0.094273
    14  H    0.097991
    15  H    0.087370
    16  H    0.097856
    17  H    0.106967
    18  H    0.095327
    19  H    0.287611
 Sum of Mulliken charges =   0.00000

 Dipole moment (field-independent basis, Debye):
    X=             -0.1904    Y=              1.1493    Z=              1.5622  Tot=              1.9487
 Quadrupole moment (field-independent basis, Debye-Ang):
   XX=            -49.2066   YY=            -53.3115   ZZ=            -54.6586
   XY=             -3.4654   XZ=             -1.2245   YZ=              1.6160

  Exact polarizability:  79.225  -2.924  72.025  -2.124   0.976  71.122
 Approx polarizability: 109.826  -4.712 106.680  -2.097   0.822 108.395

                      1                      2                      3
                      A                      A                      A
 Frequencies --    188.6000               197.3441               211.8067
 Red. masses --      1.1801                 3.4512                 2.1580
 Frc consts  --      0.0247                 0.0792                 0.0570
 IR Inten    --      0.1943                 2.1885                 0.7523

                      4                      5                      6
                      A                      A                      A
 Frequencies --    235.8400               321.2220               345.7027
 Red. masses --      2.2056                 1.3106                 2.3365
 Frc consts  --      0.0723                 0.0797                 0.1645
 IR Inten    --      9.3517                71.7638                22.7245

                      7                      8                      9
                      A                      A                      A
 Frequencies --    362.2640               453.9131               483.1198
 Red. masses --      2.7097                 3.1821                 2.5513
 Frc consts  --      0.2095                 0.3863                 0.3508
 IR Inten    --     11.6289                 2.2484                 6.1721

                     10                     11                     12
                      A                      A                      A
 Frequencies --    579.8215               647.0764               668.6545
 Red. masses --      3.7809                 3.6278                 4.5883
 Frc consts  --      0.7489                 0.8950                 1.2087
 IR Inten    --      3.0064                 4.1130                15.1256

                     13                     14                     15
                      A                      A                      A
 Frequencies --    747.2907               772.7232               832.5361
 Red. masses --      3.8870                 4.1398                 2.3925
 Frc consts  --      1.2789                 1.4564                 0.9770
 IR Inten    --      3.8621                 2.1657                 4.8149

                     16                     17                     18
                      A                      A                      A
 Frequencies --    872.0057               890.6156               933.9001
 Red. masses --      1.8856                 2.1956                 1.9052
 Frc consts  --      0.8448                 1.0261                 0.9790
 IR Inten    --      1.5277                11.0762                 3.6734

                     19                     20                     21
                      A                      A                      A
 Frequencies --    947.1106               982.0074              1004.8102
 Red. masses --      1.8609                 1.6611                 2.1556
 Frc consts  --      0.9835                 0.9438                 1.2823
 IR Inten    --     19.4484                 5.8942                25.8838

                     22                     23                     24
                      A                      A                      A
 Frequencies --   1023.3334              1064.5322              1083.1803
 Red. masses --      1.4849                 3.7846                 1.8728
 Frc consts  --      0.9162                 2.5269                 1.2946
 IR Inten    --      6.8667                51.6358                 1.5079

                     25                     26                     27
                      A                      A                      A
 Frequencies --   1114.6855              1122.2047              1164.1133
 Red. masses --      1.6815                 1.8595                 2.1880
 Frc consts  --      1.2310                 1.3797                 1.7470
 IR Inten    --      3.8382                 3.9716                27.7010

                     28                     29                     30
                      A                      A                      A
 Frequencies --   1193.0168              1217.3340              1228.4266
 Red. masses --      1.7635                 1.2241                 1.7801
 Frc consts  --      1.4789                 1.0687                 1.5827
 IR Inten    --     36.7391                 2.9744                 3.4470

                     31                     32                     33
                      A                      A                      A
 Frequencies --   1246.7553              1286.0682              1324.0534
 Red. masses --      2.8221                 1.5780                 1.5578
 Frc consts  --      2.5845                 1.5377                 1.6090
 IR Inten    --     45.5787                35.0636                26.2133

                     34                     35                     36
                      A                      A                      A
 Frequencies --   1335.9578              1372.4908              1411.7963
 Red. masses --      2.6361                 1.4481                 1.4497
 Frc consts  --      2.7720                 1.6072                 1.7025
 IR Inten    --     66.9309                15.0781                13.3392

                     37                     38                     39
                      A                      A                      A
 Frequencies --   1469.3959              1484.1592              1492.3356
 Red. masses --      1.6914                 1.1411                 1.0784
 Frc consts  --      2.1517                 1.4810                 1.4151
 IR Inten    --      7.2794                 6.2178                 2.7939

                     40                     41                     42
                      A                      A                      A
 Frequencies --   1498.7487              1525.7709              3000.3908
 Red. masses --      1.5105                 1.0978                 1.0649
 Frc consts  --      1.9991                 1.5058                 5.6481
 IR Inten    --     23.2402                 1.9676                71.0436

                     43                     44                     45
                      A                      A                      A
 Frequencies --   3038.8155              3043.3736              3050.6795
 Red. masses --      1.0401                 1.0519                 1.0992
 Frc consts  --      5.6590                 5.7401                 6.0274
 IR Inten    --     18.6658                35.1661                48.4170

                     46                     47                     48
                      A                      A                      A
 Frequencies --   3093.7490              3110.5949              3118.5412
 Red. masses --      1.1083                 1.1009                 1.1018
 Frc consts  --      6.2502                 6.2759                 6.3135
 IR Inten    --     22.0733                23.7833                13.1656

                     49                     50                     51
                      A                      A                      A
 Frequencies --   3180.9690              3196.1662              3794.2633
 Red. masses --      1.0919                 1.0915                 1.0660
 Frc consts  --      6.5098                 6.5697                 9.0423
 IR Inten    --     13.5503                11.2373                19.7061

 - Thermochemistry -
 -------------------
 Temperature   298.150 Kelvin.  Pressure   1.00000 Atm.
 Atom     1 has atomic number  6 and mass  12.00000

 Molecular mass:   126.06808 amu.
 Principal axes and moments of inertia in atomic units:
                           1         2         3
     Eigenvalues --   861.47169 882.053021109.28833
           X            0.85680  -0.51531  -0.01860
           Y            0.51558   0.85672   0.01430
           Z            0.00856  -0.02184   0.99972
 This molecule is an asymmetric top.
 Rotational symmetry number  1.
 Warning -- assumption of classical behavior for rotation
           may cause significant error
 Rotational temperatures (Kelvin)      0.10054     0.09820     0.07808
 Rotational constants (GHZ):           2.09495     2.04607     1.62694
 Zero-point vibrational energy     418479.2 (Joules/Mol)
                                  100.01894 (Kcal/Mol)
 Warning -- explicit consideration of  10 degrees of freedom as
           vibrations may cause significant error
 Vibrational temperatures:    271.35   283.93   304.74   339.32   462.17
          (Kelvin)            497.39   521.22   653.08   695.10   834.23
                              931.00   962.04  1075.18  1111.77  1197.83
                             1254.62  1281.40  1343.67  1362.68  1412.89
                             1445.70  1472.35  1531.62  1558.45  1603.78
                             1614.60  1674.90  1716.48  1751.47  1767.43
                             1793.80  1850.36  1905.02  1922.14  1974.71
                             2031.26  2114.13  2135.37  2147.14  2156.36
                             2195.24  4316.89  4372.17  4378.73  4389.24
                             4451.21  4475.45  4486.88  4576.70  4598.56
                             5459.09

 Zero-point correction=                           0.159390 (Hartree/Particle)
 Thermal correction to Energy=                    0.167279
 Thermal correction to Enthalpy=                  0.168223
 Thermal correction to Gibbs Free Energy=         0.127694
 Sum of electronic and zero-point Energies=           -422.999264
 Sum of electronic and thermal Energies=              -422.991376
 Sum of electronic and thermal Enthalpies=            -422.990431
 Sum of electronic and thermal Free Energies=         -423.030961

                     E (Thermal)             CV                S
                      KCal/Mol        Cal/Mol-Kelvin    Cal/Mol-Kelvin
 Total                  104.969             31.837             85.301
 Electronic               0.000              0.000              0.000
 Translational            0.889              2.981             40.409
 Rotational               0.889              2.981             28.224
 Vibrational            103.192             25.876             16.669
 Vibration     1          0.633              1.856              2.242
 Vibration     2          0.637              1.844              2.158
 Vibration     3          0.643              1.823              2.028
 Vibration     4          0.655              1.786              1.834
 Vibration     5          0.707              1.633              1.304
 Vibration     6          0.724              1.584              1.186
 Vibration     7          0.736              1.550              1.112
 Vibration     8          0.812              1.352              0.784
 Vibration     9          0.839              1.287              0.702
 Vibration    10          0.936              1.075              0.486

 Optimization completed.
    -- Stationary point found.
 Normal termination of Gaussian 09 at Mon Jan 27 17:46:53 2020.
