 Gaussian 09, Revision D.01,
 Gaussian 09:  ES64L-G09RevD.01 24-Apr-2013

 -----------------------------
 # b3lyp 6-31G(2df,p) opt Freq
 -----------------------------

 -----
 titel
 -----
 Symbolic Z-matrix:
 Charge =  0 Multiplicity = 1

 SCF Done:  E(RB3LYP) =  -423.126471851     A.U. after   14 cycles
 Optimization completed.
    -- Stationary point found.
 Normal termination of Gaussian 09 at Tue Jan 28 00:02:20 2020.

 ----------------------------------------------------------------------
 #N Geom=AllCheck Guess=TCheck SCRF=Check GenChk RB3LYP/6-31G(2df,p) Fr
 eq
 ----------------------------------------------------------------------

 Structure from the checkpoint file:  "/scratch/puck/g09_f8a99473-408b-4e06-bf3b-391dfbec1141/Gau-104177.chk"
 -----
 titel
 -----
 Charge =  0 Multiplicity = 1

                         Standard orientation:
 ---------------------------------------------------------------------
 Center     Atomic      Atomic             Coordinates (Angstroms)
 Number     Number       Type             X           Y           Z
 ---------------------------------------------------------------------
      1          6           0        1.353631    2.034541    0.030109
      2          6           0        0.360615    0.970663   -0.423469
      3          6           0       -0.986598    0.904322    0.354578
      4          8           0       -2.081557    0.453245   -0.462142
      5          6           0       -1.892487   -0.921207   -0.043218
      6          6           0       -0.680828   -0.548907    0.830853
      7          6           0        0.636478   -0.471854    0.059727
      8          6           0        1.911835   -1.122519    0.366795
      9          8           0        1.121076   -1.519812   -0.762163
     10          1           0        2.326258    1.899763   -0.454113
     11          1           0        0.991532    3.036917   -0.221151
     12          1           0        1.513976    1.997496    1.113544
     13          1           0        0.185829    1.027206   -1.501784
     14          1           0       -1.250829    1.745524    1.000883
     15          1           0       -2.761042   -1.285142    0.518322
     16          1           0       -1.690935   -1.595880   -0.882661
     17          1           0       -0.664073   -0.890113    1.865157
     18          1           0        2.850491   -0.625155    0.126101
     19          1           0        1.966761   -1.848316    1.177885
 ---------------------------------------------------------------------

 SCF Done:  E(RB3LYP) =  -423.126471851     A.U. after    1 cycles

 The electronic state is 1-A.
 Alpha  occ. eigenvalues --  -19.15337 -19.13255 -10.24302 -10.23608 -10.23584
 Alpha  occ. eigenvalues --  -10.23148 -10.19448 -10.19058 -10.18469  -1.07457
 Alpha  occ. eigenvalues --   -1.03945  -0.82829  -0.74369  -0.69055  -0.66763
 Alpha  occ. eigenvalues --   -0.62393  -0.58928  -0.52665  -0.50468  -0.50021
 Alpha  occ. eigenvalues --   -0.48399  -0.45520  -0.43443  -0.41558  -0.40947
 Alpha  occ. eigenvalues --   -0.40241  -0.37614  -0.34711  -0.34388  -0.32726
 Alpha  occ. eigenvalues --   -0.29986  -0.28467  -0.26280  -0.24408
 Alpha virt. eigenvalues --    0.05989   0.08253   0.09146   0.10628   0.11340
 Alpha virt. eigenvalues --    0.13689   0.14321   0.14644   0.15913   0.16098
 Alpha virt. eigenvalues --    0.16805   0.18050   0.18944   0.19351   0.21258

 Mulliken charges:
               1
     1  C   -0.415390
     2  C   -0.088228
     3  C    0.104706
     4  O   -0.291811
     5  C   -0.085905
     6  C   -0.192987
     7  C    0.440343
     8  C   -0.270918
     9  O   -0.270766
    10  H    0.123304
    11  H    0.123054
    12  H    0.114383
    13  H    0.099220
    14  H    0.074874
    15  H    0.102893
    16  H    0.120423
    17  H    0.081506
    18  H    0.117082
    19  H    0.114218
 Sum of Mulliken charges =   0.00000

 Dipole moment (field-independent basis, Debye):
    X=              1.2272    Y=              0.4420    Z=              2.1774  Tot=              2.5382
 Quadrupole moment (field-independent basis, Debye-Ang):
   XX=            -54.1094   YY=            -53.2663   ZZ=            -53.3474
   XY=              3.4103   XZ=             -0.5560   YZ=             -2.1983

  Exact polarizability:  83.690   1.825  77.907   0.330  -1.931  62.866
 Approx polarizability: 112.200  -1.596 109.376   2.544  -0.041 100.115

                      1                      2                      3
                      A                      A                      A
 Frequencies --     65.4037               187.4783               216.4208
 Red. masses --      3.7661                 2.8830                 2.9930
 Frc consts  --      0.0095                 0.0597                 0.0826
 IR Inten    --      1.4529                 1.8538                 4.9489

                      4                      5                      6
                      A                      A                      A
 Frequencies --    222.2171               236.0532               299.1773
 Red. masses --      1.1905                 2.2533                 2.8860
 Frc consts  --      0.0346                 0.0740                 0.1522
 IR Inten    --      0.4910                 0.1053                 1.3523

                      7                      8                      9
                      A                      A                      A
 Frequencies --    347.7513               438.6454               535.4226
 Red. masses --      3.4538                 4.1054                 3.4714
 Frc consts  --      0.2461                 0.4654                 0.5863
 IR Inten    --      3.0677                 3.2762                 0.1522

                     10                     11                     12
                      A                      A                      A
 Frequencies --    573.0671               728.3251               818.3743
 Red. masses --      3.9086                 2.7891                 1.8480
 Frc consts  --      0.7563                 0.8717                 0.7292
 IR Inten    --      9.7862                 6.7875                 6.9789

                     13                     14                     15
                      A                      A                      A
 Frequencies --    844.3860               865.0183               879.6274
 Red. masses --      1.6860                 2.6447                 3.3760
 Frc consts  --      0.7083                 1.1659                 1.5390
 IR Inten    --     13.2286                12.1449                 9.0144

                     16                     17                     18
                      A                      A                      A
 Frequencies --    885.2614               944.9495               970.8468
 Red. masses --      2.7552                 3.7594                 1.8161
 Frc consts  --      1.2722                 1.9778                 1.0085
 IR Inten    --     11.6527                14.3132                16.3155

                     19                     20                     21
                      A                      A                      A
 Frequencies --    998.0047              1021.4941              1054.5934
 Red. masses --      2.1434                 4.6001                 1.8198
 Frc consts  --      1.2578                 2.8281                 1.1924
 IR Inten    --     12.9830                84.4154                 2.0755

                     22                     23                     24
                      A                      A                      A
 Frequencies --   1059.7745              1092.3601              1123.6973
 Red. masses --      2.0833                 1.8583                 1.4699
 Frc consts  --      1.3786                 1.3064                 1.0935
 IR Inten    --     13.3142                 2.0351                 1.7618

                     25                     26                     27
                      A                      A                      A
 Frequencies --   1132.6037              1143.5638              1161.8050
 Red. masses --      2.0151                 1.8843                 1.3993
 Frc consts  --      1.5230                 1.4518                 1.1129
 IR Inten    --      1.6376                 4.0735                 1.3644

                     28                     29                     30
                      A                      A                      A
 Frequencies --   1169.0684              1190.8109              1224.3372
 Red. masses --      1.3263                 1.6831                 1.6877
 Frc consts  --      1.0680                 1.4062                 1.4905
 IR Inten    --      2.4931                 6.9796                 1.8772

                     31                     32                     33
                      A                      A                      A
 Frequencies --   1251.7461              1277.5900              1288.4638
 Red. masses --      1.6875                 1.7959                 1.2658
 Frc consts  --      1.5579                 1.7271                 1.2381
 IR Inten    --      1.1210                 6.5966                 7.6461

                     34                     35                     36
                      A                      A                      A
 Frequencies --   1335.2891              1360.7260              1406.4459
 Red. masses --      1.6301                 1.5353                 1.2981
 Frc consts  --      1.7125                 1.6749                 1.5129
 IR Inten    --      0.7377                 8.9226                 2.0314

                     37                     38                     39
                      A                      A                      A
 Frequencies --   1434.5369              1494.9099              1497.6355
 Red. masses --      2.2398                 1.0499                 1.0543
 Frc consts  --      2.7157                 1.3824                 1.3933
 IR Inten    --     14.8726                 3.9361                 4.9232

                     40                     41                     42
                      A                      A                      A
 Frequencies --   1522.4838              1533.0495              3022.3076
 Red. masses --      1.1160                 1.4548                 1.0565
 Frc consts  --      1.5241                 2.0145                 5.6861
 IR Inten    --      1.0308                 7.3525                77.0914

                     43                     44                     45
                      A                      A                      A
 Frequencies --   3028.3997              3069.9923              3073.0561
 Red. masses --      1.0352                 1.0865                 1.1087
 Frc consts  --      5.5938                 6.0335                 6.1688
 IR Inten    --     18.4948                 2.6551                31.8360

                     46                     47                     48
                      A                      A                      A
 Frequencies --   3074.8579              3078.3043              3097.7436
 Red. masses --      1.0886                 1.0512                 1.0996
 Frc consts  --      6.0640                 5.8691                 6.2172
 IR Inten    --     38.1984                25.0795                29.8939

                     49                     50                     51
                      A                      A                      A
 Frequencies --   3101.1629              3119.0026              3164.3951
 Red. masses --      1.1015                 1.0906                 1.1190
 Frc consts  --      6.2415                 6.2510                 6.6020
 IR Inten    --     25.0685                26.9943                22.9567

 - Thermochemistry -
 -------------------
 Temperature   298.150 Kelvin.  Pressure   1.00000 Atm.
 Atom     1 has atomic number  6 and mass  12.00000

 Molecular mass:   126.06808 amu.
 Principal axes and moments of inertia in atomic units:
                           1         2         3
     Eigenvalues --   744.064421047.921681527.62656
           X            0.99312   0.11706   0.00133
           Y           -0.11702   0.99300  -0.01601
           Z           -0.00320   0.01575   0.99987
 This molecule is an asymmetric top.
 Rotational symmetry number  1.
 Warning -- assumption of classical behavior for rotation
           may cause significant error
 Rotational temperatures (Kelvin)      0.11641     0.08265     0.05670
 Rotational constants (GHZ):           2.42552     1.72221     1.18140
 Zero-point vibrational energy     416675.1 (Joules/Mol)
                                   99.58774 (Kcal/Mol)
 Warning -- explicit consideration of  10 degrees of freedom as
           vibrations may cause significant error
 Vibrational temperatures:     94.10   269.74   311.38   319.72   339.63
          (Kelvin)            430.45   500.34   631.11   770.35   824.51
                             1047.90  1177.46  1214.88  1244.57  1265.59
                             1273.69  1359.57  1396.83  1435.90  1469.70
                             1517.32  1524.78  1571.66  1616.75  1629.56
                             1645.33  1671.58  1682.03  1713.31  1761.55
                             1800.98  1838.16  1853.81  1921.18  1957.78
                             2023.56  2063.98  2150.84  2154.76  2190.51
                             2205.71  4348.42  4357.19  4417.03  4421.44
                             4424.03  4428.99  4456.96  4461.88  4487.54
                             4552.85

 Zero-point correction=                           0.158703 (Hartree/Particle)
 Thermal correction to Energy=                    0.166807
 Thermal correction to Enthalpy=                  0.167751
 Thermal correction to Gibbs Free Energy=         0.125916
 Sum of electronic and zero-point Energies=           -422.967769
 Sum of electronic and thermal Energies=              -422.959665
 Sum of electronic and thermal Enthalpies=            -422.958720
 Sum of electronic and thermal Free Energies=         -423.000556

                     E (Thermal)             CV                S
                      KCal/Mol        Cal/Mol-Kelvin    Cal/Mol-Kelvin
 Total                  104.673             31.027             88.050
 Electronic               0.000              0.000              0.000
 Translational            0.889              2.981             40.409
 Rotational               0.889              2.981             28.567
 Vibrational            102.896             25.066             19.074
 Vibration     1          0.597              1.971              4.287
 Vibration     2          0.632              1.857              2.253
 Vibration     3          0.645              1.816              1.989
 Vibration     4          0.648              1.807              1.941
 Vibration     5          0.655              1.786              1.832
 Vibration     6          0.692              1.675              1.422
 Vibration     7          0.725              1.580              1.176
 Vibration     8          0.799              1.386              0.831
 Vibration     9          0.890              1.172              0.575
 Vibration    10          0.929              1.090              0.498

 Optimization completed.
    -- Stationary point found.
 Normal termination of Gaussian 09 at Tue Jan 28 00:49:46 2020.
