 Gaussian 09, Revision D.01,
 Gaussian 09:  ES64L-G09RevD.01 24-Apr-2013

 -----------------------------
 # b3lyp 6-31G(2df,p) opt Freq
 -----------------------------

 -----
 titel
 -----
 Symbolic Z-matrix:
 Charge =  0 Multiplicity = 1

 SCF Done:  E(RB3LYP) =  -423.138899711     A.U. after   14 cycles
 Optimization completed.
    -- Stationary point found.
 Normal termination of Gaussian 09 at Mon Jan 27 14:00:32 2020.

 ----------------------------------------------------------------------
 #N Geom=AllCheck Guess=TCheck SCRF=Check GenChk RB3LYP/6-31G(2df,p) Fr
 eq
 ----------------------------------------------------------------------

 Structure from the checkpoint file:  "/scratch/puck/g09_f6a6fb89-fcd9-4340-91b7-40af0621b70c/Gau-158430.chk"
 -----
 titel
 -----
 Charge =  0 Multiplicity = 1

                         Standard orientation:
 ---------------------------------------------------------------------
 Center     Atomic      Atomic             Coordinates (Angstroms)
 Number     Number       Type             X           Y           Z
 ---------------------------------------------------------------------
      1          6           0        3.781698   -0.160453   -0.425845
      2          6           0        2.358229   -0.073856   -0.134833
      3          6           0        1.177085   -0.003882    0.094370
      4          6           0       -0.240018    0.080720    0.407926
      5          8           0       -0.566486   -0.668548    1.566916
      6          6           0       -0.881053    1.499627    0.368697
      7          8           0       -1.823545    1.102250   -0.639303
      8          6           0       -1.241726   -0.216613   -0.758318
      9          6           0       -2.248596   -1.329323   -0.567509
     10          1           0        3.980925    0.064270   -1.479295
     11          1           0        4.357111    0.548514    0.179344
     12          1           0        4.168133   -1.164915   -0.221909
     13          1           0        0.190686   -0.632743    2.159911
     14          1           0       -1.366971    1.779877    1.310423
     15          1           0       -0.217985    2.304218    0.029600
     16          1           0       -0.723761   -0.320434   -1.720382
     17          1           0       -3.017228   -1.257344   -1.343445
     18          1           0       -1.759877   -2.304849   -0.654228
     19          1           0       -2.724495   -1.263531    0.412140
 ---------------------------------------------------------------------

 SCF Done:  E(RB3LYP) =  -423.138899711     A.U. after    1 cycles

 The electronic state is 1-A.
 Alpha  occ. eigenvalues --  -19.14674 -19.12660 -10.25932 -10.23138 -10.22418
 Alpha  occ. eigenvalues --  -10.21275 -10.18874 -10.17656 -10.16840  -1.04728
 Alpha  occ. eigenvalues --   -1.01696  -0.79014  -0.75617  -0.73890  -0.69026
 Alpha  occ. eigenvalues --   -0.64165  -0.55938  -0.55524  -0.48817  -0.47239
 Alpha  occ. eigenvalues --   -0.46559  -0.43912  -0.43530  -0.43377  -0.41997
 Alpha  occ. eigenvalues --   -0.38251  -0.38175  -0.36177  -0.35324  -0.31255
 Alpha  occ. eigenvalues --   -0.28058  -0.26506  -0.25043  -0.24470
 Alpha virt. eigenvalues --    0.03081   0.04287   0.08821   0.09818   0.10362
 Alpha virt. eigenvalues --    0.13332   0.14185   0.14758   0.16128   0.16546
 Alpha virt. eigenvalues --    0.17638   0.18190   0.19433   0.20631   0.21962

 Mulliken charges:
               1
     1  C   -0.499734
     2  C    0.022110
     3  C    0.054279
     4  C    0.151687
     5  O   -0.461282
     6  C   -0.107175
     7  O   -0.291643
     8  C    0.123837
     9  C   -0.398347
    10  H    0.155920
    11  H    0.151823
    12  H    0.153363
    13  H    0.285679
    14  H    0.104972
    15  H    0.099736
    16  H    0.077006
    17  H    0.121618
    18  H    0.119857
    19  H    0.136292
 Sum of Mulliken charges =   0.00000

 Dipole moment (field-independent basis, Debye):
    X=              3.0920    Y=             -0.4248    Z=              0.5397  Tot=              3.1674
 Quadrupole moment (field-independent basis, Debye-Ang):
   XX=            -48.6205   YY=            -53.8288   ZZ=            -50.9762
   XY=              1.5450   XZ=             -0.2861   YZ=              2.5306

  Exact polarizability: 109.286   0.746  68.328  -3.769   2.732  66.529
 Approx polarizability: 151.476  -2.222  95.693  -8.532   1.470  98.401

                      1                      2                      3
                      A                      A                      A
 Frequencies --     30.9193                43.3560                89.6379
 Red. masses --      1.0225                 3.5136                 3.5282
 Frc consts  --      0.0006                 0.0039                 0.0167
 IR Inten    --      0.0022                 1.5796                 0.6992

                      4                      5                      6
                      A                      A                      A
 Frequencies --    111.1129               173.1988               205.2491
 Red. masses --      2.7377                 1.3423                 1.1281
 Frc consts  --      0.0199                 0.0237                 0.0280
 IR Inten    --      7.5472                75.7309                 3.4725

                      7                      8                      9
                      A                      A                      A
 Frequencies --    256.4719               270.9200               311.1839
 Red. masses --      2.7493                 2.7638                 3.4077
 Frc consts  --      0.1065                 0.1195                 0.1944
 IR Inten    --      6.5088                 8.7709                 8.7367

                     10                     11                     12
                      A                      A                      A
 Frequencies --    352.7015               388.0467               477.2681
 Red. masses --      3.8879                 3.3230                 3.5895
 Frc consts  --      0.2850                 0.2948                 0.4817
 IR Inten    --      5.0385                 2.7659                 4.4242

                     13                     14                     15
                      A                      A                      A
 Frequencies --    514.4286               542.7465               603.7321
 Red. masses --      6.6540                 4.2935                 4.9186
 Frc consts  --      1.0375                 0.7452                 1.0563
 IR Inten    --      3.3639                 6.3693                 0.3252

                     16                     17                     18
                      A                      A                      A
 Frequencies --    788.1545               876.2890               885.4808
 Red. masses --      2.6129                 2.4398                 2.7515
 Frc consts  --      0.9563                 1.1038                 1.2711
 IR Inten    --      2.8958                 6.5791                11.0895

                     19                     20                     21
                      A                      A                      A
 Frequencies --    951.1496              1008.5248              1034.2502
 Red. masses --      2.9009                 1.7230                 4.6815
 Frc consts  --      1.5463                 1.0325                 2.9504
 IR Inten    --     41.0047                18.1730                61.5765

                     22                     23                     24
                      A                      A                      A
 Frequencies --   1045.1805              1051.7962              1054.4856
 Red. masses --      3.0105                 1.4630                 1.4655
 Frc consts  --      1.9376                 0.9536                 0.9601
 IR Inten    --     26.8582                 5.1287                 3.5257

                     25                     26                     27
                      A                      A                      A
 Frequencies --   1094.6173              1136.7035              1152.4292
 Red. masses --      2.2945                 2.4171                 3.0333
 Frc consts  --      1.6198                 1.8401                 2.3736
 IR Inten    --     36.2304                55.8244                42.9007

                     28                     29                     30
                      A                      A                      A
 Frequencies --   1162.7882              1242.3410              1290.0840
 Red. masses --      1.2802                 2.6997                 1.3775
 Frc consts  --      1.0198                 2.4549                 1.3508
 IR Inten    --     15.7515                14.2350                 1.5183

                     31                     32                     33
                      A                      A                      A
 Frequencies --   1323.7540              1369.5224              1400.3911
 Red. masses --      1.3880                 1.3186                 1.3833
 Frc consts  --      1.4331                 1.4571                 1.5983
 IR Inten    --     49.9491                12.6175                22.4270

                     34                     35                     36
                      A                      A                      A
 Frequencies --   1408.2993              1414.4266              1476.3877
 Red. masses --      1.5911                 1.2752                 1.0392
 Frc consts  --      1.8592                 1.5031                 1.3346
 IR Inten    --     18.2690                 8.7902                 6.1014

                     37                     38                     39
                      A                      A                      A
 Frequencies --   1477.5848              1481.8535              1488.5557
 Red. masses --      1.0397                 1.0514                 1.0582
 Frc consts  --      1.3374                 1.3603                 1.3815
 IR Inten    --      5.7512                 3.4721                 3.9615

                     40                     41                     42
                      A                      A                      A
 Frequencies --   1508.4440              2362.9595              3015.2236
 Red. masses --      1.1051                11.8915                 1.0640
 Frc consts  --      1.4815                39.1202                 5.6996
 IR Inten    --      0.6272                 9.7010                71.5543

                     43                     44                     45
                      A                      A                      A
 Frequencies --   3023.0738              3029.6183              3045.3054
 Red. masses --      1.0742                 1.0347                 1.0371
 Frc consts  --      5.7838                 5.5956                 5.6668
 IR Inten    --     24.6474                27.8514                14.1732

                     46                     47                     48
                      A                      A                      A
 Frequencies --   3073.8300              3091.5166              3092.8200
 Red. masses --      1.1122                 1.1004                 1.1001
 Frc consts  --      6.1914                 6.1963                 6.2001
 IR Inten    --     35.0383                 8.6278                 7.6243

                     49                     50                     51
                      A                      A                      A
 Frequencies --   3112.1133              3144.3043              3824.5950
 Red. masses --      1.1011                 1.1006                 1.0665
 Frc consts  --      6.2834                 6.4108                 9.1913
 IR Inten    --     17.0171                13.7189                28.5164

 - Thermochemistry -
 -------------------
 Temperature   298.150 Kelvin.  Pressure   1.00000 Atm.
 Atom     1 has atomic number  6 and mass  12.00000

 Molecular mass:   126.06808 amu.
 Principal axes and moments of inertia in atomic units:
                           1         2         3
     Eigenvalues --   613.280401975.423912047.60593
           X            0.99985   0.01696  -0.00162
           Y           -0.01615   0.97376   0.22701
           Z            0.00543  -0.22695   0.97389
 This molecule is an asymmetric top.
 Rotational symmetry number  1.
 Warning -- assumption of classical behavior for rotation
           may cause significant error
 Rotational temperatures (Kelvin)      0.14123     0.04385     0.04230
 Rotational constants (GHZ):           2.94277     0.91360     0.88139
 Zero-point vibrational energy     408583.5 (Joules/Mol)
                                   97.65380 (Kcal/Mol)
 Warning -- explicit consideration of  15 degrees of freedom as
           vibrations may cause significant error
 Vibrational temperatures:     44.49    62.38   128.97   159.87   249.19
          (Kelvin)            295.31   369.01   389.79   447.72   507.46
                              558.31   686.68   740.15   780.89   868.63
                             1133.98  1260.78  1274.01  1368.49  1451.04
                             1488.05  1503.78  1513.30  1517.17  1574.91
                             1635.46  1658.09  1672.99  1787.45  1856.14
                             1904.58  1970.43  2014.85  2026.23  2035.04
                             2124.19  2125.91  2132.05  2141.70  2170.31
                             3399.77  4338.23  4349.52  4358.94  4381.51
                             4422.55  4448.00  4449.87  4477.63  4523.95
                             5502.73

 Zero-point correction=                           0.155621 (Hartree/Particle)
 Thermal correction to Energy=                    0.166211
 Thermal correction to Enthalpy=                  0.167156
 Thermal correction to Gibbs Free Energy=         0.118413
 Sum of electronic and zero-point Energies=           -422.983278
 Sum of electronic and thermal Energies=              -422.972688
 Sum of electronic and thermal Enthalpies=            -422.971744
 Sum of electronic and thermal Free Energies=         -423.020486

                     E (Thermal)             CV                S
                      KCal/Mol        Cal/Mol-Kelvin    Cal/Mol-Kelvin
 Total                  104.299             36.562            102.586
 Electronic               0.000              0.000              0.000
 Translational            0.889              2.981             40.409
 Rotational               0.889              2.981             29.296
 Vibrational            102.522             30.600             32.882
 Vibration     1          0.594              1.984              5.770
 Vibration     2          0.595              1.980              5.100
 Vibration     3          0.602              1.957              3.668
 Vibration     4          0.607              1.940              3.249
 Vibration     5          0.627              1.875              2.400
 Vibration     6          0.640              1.832              2.086
 Vibration     7          0.666              1.752              1.686
 Vibration     8          0.675              1.727              1.590
 Vibration     9          0.700              1.652              1.356
 Vibration    10          0.729              1.570              1.154
 Vibration    11          0.756              1.496              1.008
 Vibration    12          0.834              1.300              0.717
 Vibration    13          0.869              1.218              0.623
 Vibration    14          0.898              1.156              0.559
 Vibration    15          0.962              1.024              0.443

 Optimization completed on the basis of negligible forces.
    -- Stationary point found.
 Normal termination of Gaussian 09 at Mon Jan 27 14:37:06 2020.
