 Gaussian 09, Revision D.01,
 Gaussian 09:  ES64L-G09RevD.01 24-Apr-2013

 -----------------------------
 # b3lyp 6-31G(2df,p) opt Freq
 -----------------------------

 -----
 titel
 -----
 Symbolic Z-matrix:
 Charge =  0 Multiplicity = 1

 SCF Done:  E(RB3LYP) =  -423.226233260     A.U. after   14 cycles
 Optimization completed.
    -- Stationary point found.
 Normal termination of Gaussian 09 at Mon Jan 27 10:22:04 2020.

 ----------------------------------------------------------------------
 #N Geom=AllCheck Guess=TCheck SCRF=Check GenChk RB3LYP/6-31G(2df,p) Fr
 eq
 ----------------------------------------------------------------------

 Structure from the checkpoint file:  "/scratch/puck/g09_2d8339ee-bebe-49f6-b96b-16213b0ada04/Gau-19565.chk"
 -----
 titel
 -----
 Charge =  0 Multiplicity = 1

                         Standard orientation:
 ---------------------------------------------------------------------
 Center     Atomic      Atomic             Coordinates (Angstroms)
 Number     Number       Type             X           Y           Z
 ---------------------------------------------------------------------
      1          6           0        3.129639    0.370364    0.637473
      2          6           0        2.356380   -0.347247   -0.482673
      3          6           0        0.880657   -0.348416   -0.277028
      4          6           0       -0.034676   -1.338373   -0.085028
      5          6           0       -1.302999   -0.683780    0.058753
      6          8           0       -2.526910   -1.250063    0.270972
      7          6           0       -1.083820    0.655485   -0.052134
      8          6           0       -1.977348    1.837701    0.007185
      9          8           0        0.260607    0.862115   -0.258649
     10          1           0        4.204181    0.366585    0.430758
     11          1           0        2.802133    1.409599    0.726910
     12          1           0        2.963632   -0.118963    1.602060
     13          1           0        2.591658    0.129188   -1.443743
     14          1           0        2.686185   -1.388215   -0.561606
     15          1           0        0.164659   -2.399346   -0.051737
     16          1           0       -2.424685   -2.205283    0.287082
     17          1           0       -3.004246    1.499643    0.165160
     18          1           0       -1.711135    2.514605    0.828245
     19          1           0       -1.948963    2.421368   -0.920991
 ---------------------------------------------------------------------

 SCF Done:  E(RB3LYP) =  -423.226233260     A.U. after    1 cycles

 The electronic state is 1-A.
 Alpha  occ. eigenvalues --  -19.18536 -19.16181 -10.22378 -10.22160 -10.20958
 Alpha  occ. eigenvalues --  -10.19145 -10.17911 -10.17539 -10.17030  -1.08992
 Alpha  occ. eigenvalues --   -1.04621  -0.79465  -0.77893  -0.74505  -0.67440
 Alpha  occ. eigenvalues --   -0.62314  -0.59438  -0.54467  -0.51268  -0.46697
 Alpha  occ. eigenvalues --   -0.45696  -0.43823  -0.43156  -0.40605  -0.39362
 Alpha  occ. eigenvalues --   -0.38326  -0.37713  -0.37080  -0.36621  -0.35655
 Alpha  occ. eigenvalues --   -0.34699  -0.32709  -0.24338  -0.18762
 Alpha virt. eigenvalues --    0.02763   0.07107   0.09918   0.10764   0.12535
 Alpha virt. eigenvalues --    0.13379   0.15038   0.15852   0.16740   0.17119
 Alpha virt. eigenvalues --    0.18633   0.19257   0.21415   0.22461   0.23639

 Mulliken charges:
               1
     1  C   -0.370335
     2  C   -0.293992
     3  C    0.388965
     4  C   -0.429269
     5  C    0.231630
     6  O   -0.448114
     7  C    0.254581
     8  C   -0.500634
     9  O   -0.223600
    10  H    0.111023
    11  H    0.132631
    12  H    0.120056
    13  H    0.115583
    14  H    0.110053
    15  H    0.099596
    16  H    0.298191
    17  H    0.144314
    18  H    0.129516
    19  H    0.129805
 Sum of Mulliken charges =   0.00000

 Dipole moment (field-independent basis, Debye):
    X=              0.6820    Y=             -1.4562    Z=             -0.0194  Tot=              1.6081
 Quadrupole moment (field-independent basis, Debye-Ang):
   XX=            -52.3071   YY=            -46.2662   ZZ=            -54.6800
   XY=              0.5815   XZ=             -0.4659   YZ=             -0.3358

  Exact polarizability: 102.703  -2.843  87.414  -3.157  -0.780  53.197
 Approx polarizability: 137.406   1.089 138.677  -7.725  -3.727  80.203

                      1                      2                      3
                      A                      A                      A
 Frequencies --     51.1295                95.8635               117.8626
 Red. masses --      2.5233                 1.0949                 3.5962
 Frc consts  --      0.0039                 0.0059                 0.0294
 IR Inten    --      0.1654                37.7871                 0.3312

                      4                      5                      6
                      A                      A                      A
 Frequencies --    156.3000               194.4048               221.0410
 Red. masses --      1.1000                 1.4974                 2.4379
 Frc consts  --      0.0158                 0.0333                 0.0702
 IR Inten    --     63.8768                 0.6091                 0.0702

                      7                      8                      9
                      A                      A                      A
 Frequencies --    246.1442               284.3186               310.9696
 Red. masses --      2.6728                 2.2764                 2.9754
 Frc consts  --      0.0954                 0.1084                 0.1695
 IR Inten    --      3.8330                 1.5657                 0.8855

                     10                     11                     12
                      A                      A                      A
 Frequencies --    402.7556               491.6247               583.3470
 Red. masses --      4.8370                 3.0202                 4.2583
 Frc consts  --      0.4623                 0.4301                 0.8538
 IR Inten    --      0.1801                 2.2206                 2.3656

                     13                     14                     15
                      A                      A                      A
 Frequencies --    645.2568               662.3052               692.0612
 Red. masses --      5.7829                 5.1769                 3.7487
 Frc consts  --      1.4186                 1.3379                 1.0579
 IR Inten    --      2.6761                 0.0482                 1.1520

                     16                     17                     18
                      A                      A                      A
 Frequencies --    758.6178               785.9433               794.8754
 Red. masses --      1.3422                 1.4496                 2.5546
 Frc consts  --      0.4551                 0.5276                 0.9510
 IR Inten    --     23.4871                 3.0015                 0.7224

                     19                     20                     21
                      A                      A                      A
 Frequencies --    950.0391               965.3645              1027.1596
 Red. masses --      3.4178                 1.7210                 3.1450
 Frc consts  --      1.8175                 0.9450                 1.9550
 IR Inten    --     12.9357                 2.9221                 9.4260

                     22                     23                     24
                      A                      A                      A
 Frequencies --   1064.6441              1077.9097              1085.7346
 Red. masses --      1.4209                 1.6827                 1.6073
 Frc consts  --      0.9489                 1.1519                 1.1163
 IR Inten    --      0.2673                19.9806                 3.8671

                     25                     26                     27
                      A                      A                      A
 Frequencies --   1102.0459              1171.5521              1239.2245
 Red. masses --      2.1123                 1.9165                 4.0332
 Frc consts  --      1.5115                 1.5498                 3.6492
 IR Inten    --     89.2572                22.9277                 5.8044

                     28                     29                     30
                      A                      A                      A
 Frequencies --   1268.1820              1306.6802              1330.5606
 Red. masses --      1.5989                 1.5653                 2.1095
 Frc consts  --      1.5150                 1.5747                 2.2004
 IR Inten    --     25.8492                54.2849                37.3513

                     31                     32                     33
                      A                      A                      A
 Frequencies --   1355.8892              1406.0278              1412.0799
 Red. masses --      1.6541                 1.2328                 1.3455
 Frc consts  --      1.7917                 1.4359                 1.5807
 IR Inten    --     15.4211                 3.2081                14.5614

                     34                     35                     36
                      A                      A                      A
 Frequencies --   1457.7277              1474.3037              1474.7027
 Red. masses --      3.8957                 1.1068                 1.0478
 Frc consts  --      4.8774                 1.4174                 1.3426
 IR Inten    --     65.4977                 6.2451                 6.9124

                     37                     38                     39
                      A                      A                      A
 Frequencies --   1494.7454              1496.4706              1507.1921
 Red. masses --      1.0918                 1.0434                 1.0619
 Frc consts  --      1.4373                 1.3767                 1.4213
 IR Inten    --     10.3655                 6.9436                 2.2610

                     40                     41                     42
                      A                      A                      A
 Frequencies --   1610.9510              1719.5127              3018.8952
 Red. masses --      7.4057                 6.7020                 1.0549
 Frc consts  --     11.3235                11.6752                 5.6646
 IR Inten    --      7.8163                49.9401                47.9918

                     43                     44                     45
                      A                      A                      A
 Frequencies --   3019.8094              3040.8529              3064.4774
 Red. masses --      1.0501                 1.0346                 1.1005
 Frc consts  --      5.6420                 5.6367                 6.0891
 IR Inten    --     28.3042                30.4784                21.5310

                     46                     47                     48
                      A                      A                      A
 Frequencies --   3076.6324              3111.3544              3122.9471
 Red. masses --      1.0945                 1.1023                 1.1020
 Frc consts  --      6.1039                 6.2873                 6.3320
 IR Inten    --      9.5234                35.9975                25.7732

                     49                     50                     51
                      A                      A                      A
 Frequencies --   3126.5402              3238.2215              3852.7980
 Red. masses --      1.0964                 1.0969                 1.0664
 Frc consts  --      6.3147                 6.7769                 9.3264
 IR Inten    --      7.5594                 3.4304                60.5743

 - Thermochemistry -
 -------------------
 Temperature   298.150 Kelvin.  Pressure   1.00000 Atm.
 Atom     1 has atomic number  6 and mass  12.00000

 Molecular mass:   126.06808 amu.
 Principal axes and moments of inertia in atomic units:
                           1         2         3
     Eigenvalues --   577.646281666.757882113.35436
           X            0.99974  -0.02189   0.00579
           Y            0.02183   0.99972   0.00914
           Z           -0.00599  -0.00901   0.99994
 This molecule is an asymmetric top.
 Rotational symmetry number  1.
 Warning -- assumption of classical behavior for rotation
           may cause significant error
 Rotational temperatures (Kelvin)      0.14994     0.05197     0.04098
 Rotational constants (GHZ):           3.12430     1.08279     0.85397
 Zero-point vibrational energy     413704.8 (Joules/Mol)
                                   98.87783 (Kcal/Mol)
 Warning -- explicit consideration of  12 degrees of freedom as
           vibrations may cause significant error
 Vibrational temperatures:     73.56   137.93   169.58   224.88   279.70
          (Kelvin)            318.03   354.15   409.07   447.42   579.47
                              707.34   839.31   928.38   952.91   995.72
                             1091.48  1130.80  1143.65  1366.89  1388.94
                             1477.85  1531.78  1550.87  1562.13  1585.60
                             1685.60  1782.97  1824.63  1880.02  1914.38
                             1950.82  2022.96  2031.67  2097.34  2121.19
                             2121.77  2150.60  2153.08  2168.51  2317.80
                             2473.99  4343.51  4344.83  4375.10  4409.09
                             4426.58  4476.54  4493.22  4498.39  4659.07
                             5543.31

 Zero-point correction=                           0.157572 (Hartree/Particle)
 Thermal correction to Energy=                    0.167444
 Thermal correction to Enthalpy=                  0.168389
 Thermal correction to Gibbs Free Energy=         0.122291
 Sum of electronic and zero-point Energies=           -423.068661
 Sum of electronic and thermal Energies=              -423.058789
 Sum of electronic and thermal Enthalpies=            -423.057845
 Sum of electronic and thermal Free Energies=         -423.103942

                     E (Thermal)             CV                S
                      KCal/Mol        Cal/Mol-Kelvin    Cal/Mol-Kelvin
 Total                  105.073             35.162             97.020
 Electronic               0.000              0.000              0.000
 Translational            0.889              2.981             40.409
 Rotational               0.889              2.981             29.099
 Vibrational            103.295             29.200             27.512
 Vibration     1          0.595              1.977              4.773
 Vibration     2          0.603              1.952              3.537
 Vibration     3          0.608              1.934              3.135
 Vibration     4          0.620              1.896              2.594
 Vibration     5          0.635              1.848              2.185
 Vibration     6          0.648              1.809              1.951
 Vibration     7          0.661              1.769              1.758
 Vibration     8          0.683              1.703              1.508
 Vibration     9          0.700              1.653              1.357
 Vibration    10          0.768              1.464              0.953
 Vibration    11          0.847              1.269              0.679
 Vibration    12          0.940              1.067              0.479

 Optimization completed.
    -- Stationary point found.
 Normal termination of Gaussian 09 at Mon Jan 27 11:04:38 2020.
