 Gaussian 09, Revision D.01,
 Gaussian 09:  ES64L-G09RevD.01 24-Apr-2013

 -----------------------------
 # b3lyp 6-31G(2df,p) opt Freq
 -----------------------------

 -----
 titel
 -----
 Symbolic Z-matrix:
 Charge =  0 Multiplicity = 1

 SCF Done:  E(RB3LYP) =  -423.172395298     A.U. after   13 cycles
 Optimization completed.
    -- Stationary point found.
 Normal termination of Gaussian 09 at Tue Jan 28 01:56:50 2020.

 ----------------------------------------------------------------------
 #N Geom=AllCheck Guess=TCheck SCRF=Check GenChk RB3LYP/6-31G(2df,p) Fr
 eq
 ----------------------------------------------------------------------

 Structure from the checkpoint file:  "/scratch/puck/g09_9801e4dc-30ba-4598-b0df-ca8ee1c95a56/Gau-193644.chk"
 -----
 titel
 -----
 Charge =  0 Multiplicity = 1

                         Standard orientation:
 ---------------------------------------------------------------------
 Center     Atomic      Atomic             Coordinates (Angstroms)
 Number     Number       Type             X           Y           Z
 ---------------------------------------------------------------------
      1          8           0       -2.563289    0.549982   -0.521325
      2          6           0       -1.588988   -0.450759   -0.450692
      3          6           0       -1.156765   -0.985146    0.887709
      4          6           0       -0.253099   -0.051726    0.106957
      5          6           0       -0.001914    1.391414    0.559405
      6          6           0        1.426241    1.632821    0.141961
      7          6           0        1.979063    0.578977   -0.456276
      8          6           0        1.043792   -0.603594   -0.527894
      9          8           0        1.570271   -1.770359    0.103863
     10          1           0       -3.410493    0.159694   -0.283334
     11          1           0       -1.585280   -1.141887   -1.295065
     12          1           0       -1.650148   -0.574768    1.763721
     13          1           0       -0.857497   -2.025243    0.959672
     14          1           0       -0.695937    2.086568    0.073420
     15          1           0       -0.136987    1.532602    1.640102
     16          1           0        1.921669    2.582793    0.313990
     17          1           0        2.990139    0.521131   -0.843255
     18          1           0        0.871383   -0.929453   -1.560987
     19          1           0        1.807319   -1.520343    1.004405
 ---------------------------------------------------------------------

 SCF Done:  E(RB3LYP) =  -423.172395298     A.U. after    1 cycles

 The electronic state is 1-A.
 Alpha  occ. eigenvalues --  -19.14322 -19.13109 -10.23157 -10.22911 -10.18960
 Alpha  occ. eigenvalues --  -10.18522 -10.18217 -10.17962 -10.17522  -1.02787
 Alpha  occ. eigenvalues --   -1.01181  -0.86022  -0.80288  -0.69769  -0.65946
 Alpha  occ. eigenvalues --   -0.60497  -0.55806  -0.54609  -0.51149  -0.50160
 Alpha  occ. eigenvalues --   -0.45325  -0.44612  -0.43542  -0.41759  -0.39896
 Alpha  occ. eigenvalues --   -0.38133  -0.37528  -0.34560  -0.31859  -0.31796
 Alpha  occ. eigenvalues --   -0.28142  -0.26047  -0.25841  -0.24729
 Alpha virt. eigenvalues --    0.01591   0.07780   0.10044   0.11070   0.11930
 Alpha virt. eigenvalues --    0.12299   0.12881   0.15380   0.16875   0.17173
 Alpha virt. eigenvalues --    0.18909   0.20665   0.21767   0.22490   0.23602

 Mulliken charges:
               1
     1  O   -0.424264
     2  C    0.051715
     3  C   -0.378306
     4  C    0.288206
     5  C   -0.340244
     6  C   -0.068301
     7  C   -0.110035
     8  C    0.005658
     9  O   -0.423840
    10  H    0.288863
    11  H    0.085414
    12  H    0.107198
    13  H    0.123361
    14  H    0.133032
    15  H    0.102518
    16  H    0.097376
    17  H    0.097373
    18  H    0.090113
    19  H    0.274163
 Sum of Mulliken charges =   0.00000

 Dipole moment (field-independent basis, Debye):
    X=             -0.7662    Y=              0.3428    Z=              1.1654  Tot=              1.4362
 Quadrupole moment (field-independent basis, Debye-Ang):
   XX=            -47.9005   YY=            -56.0650   ZZ=            -51.4761
   XY=              4.9701   XZ=              0.0214   YZ=              0.4869

  Exact polarizability:  85.714   0.713  80.042  -4.497   4.179  64.201
 Approx polarizability: 115.222  -6.902 123.048  -7.068   9.148 101.968

                      1                      2                      3
                      A                      A                      A
 Frequencies --     50.3982               170.8823               205.7056
 Red. masses --      3.3309                 3.6841                 4.2782
 Frc consts  --      0.0050                 0.0634                 0.1067
 IR Inten    --      0.8198                 0.1912                 8.1430

                      4                      5                      6
                      A                      A                      A
 Frequencies --    246.6716               272.7540               317.3163
 Red. masses --      2.7347                 1.2340                 1.7663
 Frc consts  --      0.0980                 0.0541                 0.1048
 IR Inten    --      5.1077                90.2539                31.2202

                      7                      8                      9
                      A                      A                      A
 Frequencies --    349.8791               390.3518               456.8891
 Red. masses --      2.2594                 1.7356                 2.4483
 Frc consts  --      0.1630                 0.1558                 0.3011
 IR Inten    --     24.7839                51.2412                 3.6679

                     10                     11                     12
                      A                      A                      A
 Frequencies --    506.9653               523.4696               613.2361
 Red. masses --      3.5046                 3.0639                 3.3838
 Frc consts  --      0.5307                 0.4947                 0.7497
 IR Inten    --      0.6325                 6.0239                 7.5291

                     13                     14                     15
                      A                      A                      A
 Frequencies --    728.8313               777.6313               789.9759
 Red. masses --      1.7984                 4.4994                 2.0624
 Frc consts  --      0.5628                 1.6031                 0.7583
 IR Inten    --      8.9571                 2.0460                26.2430

                     16                     17                     18
                      A                      A                      A
 Frequencies --    848.0811               888.1334               926.8378
 Red. masses --      1.9843                 2.2573                 2.1315
 Frc consts  --      0.8409                 1.0490                 1.0788
 IR Inten    --      3.7453                13.7786                22.5940

                     19                     20                     21
                      A                      A                      A
 Frequencies --    972.5066               974.5024               989.2130
 Red. masses --      2.1286                 1.4661                 1.8574
 Frc consts  --      1.1861                 0.8203                 1.0709
 IR Inten    --     10.2405                10.2647                52.3553

                     22                     23                     24
                      A                      A                      A
 Frequencies --   1016.2602              1024.0523              1051.9197
 Red. masses --      1.9941                 1.7992                 1.5276
 Frc consts  --      1.2134                 1.1117                 0.9959
 IR Inten    --     10.9682                 4.0209                 5.3329

                     25                     26                     27
                      A                      A                      A
 Frequencies --   1070.1590              1094.5200              1133.7494
 Red. masses --      2.6510                 1.7759                 1.2043
 Frc consts  --      1.7888                 1.2535                 0.9120
 IR Inten    --     55.9548                 9.5863                10.2583

                     28                     29                     30
                      A                      A                      A
 Frequencies --   1168.6158              1191.2785              1230.4547
 Red. masses --      2.0330                 1.2793                 2.6404
 Frc consts  --      1.6358                 1.0697                 2.3554
 IR Inten    --     16.7744                 3.3937                 9.7286

                     31                     32                     33
                      A                      A                      A
 Frequencies --   1260.0455              1265.9361              1287.0685
 Red. masses --      1.4143                 1.5118                 1.4110
 Frc consts  --      1.3230                 1.4274                 1.3771
 IR Inten    --      1.2017                54.3639                 4.1966

                     34                     35                     36
                      A                      A                      A
 Frequencies --   1302.2969              1354.6008              1370.6021
 Red. masses --      1.3000                 1.8281                 1.6954
 Frc consts  --      1.2991                 1.9764                 1.8765
 IR Inten    --     48.1060                 2.8573                 4.8434

                     37                     38                     39
                      A                      A                      A
 Frequencies --   1418.9043              1429.3384              1480.4834
 Red. masses --      1.4108                 1.2111                 1.7044
 Frc consts  --      1.6735                 1.4578                 2.2011
 IR Inten    --     21.5067                62.3236                10.6957

                     40                     41                     42
                      A                      A                      A
 Frequencies --   1490.8953              1686.7262              3016.4353
 Red. masses --      1.0906                 6.2749                 1.0682
 Frc consts  --      1.4282                10.5184                 5.7264
 IR Inten    --      3.1199                 4.8436                32.6487

                     43                     44                     45
                      A                      A                      A
 Frequencies --   3031.8420              3059.9532              3086.9348
 Red. masses --      1.0841                 1.0927                 1.0871
 Frc consts  --      5.8710                 6.0282                 6.1035
 IR Inten    --     29.4846                 9.4098                35.5996

                     46                     47                     48
                      A                      A                      A
 Frequencies --   3124.0759              3179.9979              3207.7276
 Red. masses --      1.0534                 1.0852                 1.1034
 Frc consts  --      6.0575                 6.4657                 6.6895
 IR Inten    --     10.7492                 8.8096                22.5462

                     49                     50                     51
                      A                      A                      A
 Frequencies --   3218.6305              3793.3591              3809.7022
 Red. masses --      1.1168                 1.0659                 1.0663
 Frc consts  --      6.8166                 9.0365                 9.1185
 IR Inten    --      4.2447                13.8905                24.1706

 - Thermochemistry -
 -------------------
 Temperature   298.150 Kelvin.  Pressure   1.00000 Atm.
 Atom     1 has atomic number  8 and mass  15.99491

 Molecular mass:   126.06808 amu.
 Principal axes and moments of inertia in atomic units:
                           1         2         3
     Eigenvalues --   694.465331251.789921666.52269
           X            0.99940   0.03343  -0.00873
           Y           -0.03333   0.99937   0.01194
           Z            0.00912  -0.01164   0.99989
 This molecule is an asymmetric top.
 Rotational symmetry number  1.
 Warning -- assumption of classical behavior for rotation
           may cause significant error
 Rotational temperatures (Kelvin)      0.12472     0.06919     0.05197
 Rotational constants (GHZ):           2.59875     1.44173     1.08294
 Zero-point vibrational energy     417836.4 (Joules/Mol)
                                   99.86530 (Kcal/Mol)
 Warning -- explicit consideration of  12 degrees of freedom as
           vibrations may cause significant error
 Vibrational temperatures:     72.51   245.86   295.96   354.91   392.43
          (Kelvin)            456.55   503.40   561.63   657.36   729.41
                              753.16   882.31  1048.62  1118.84  1136.60
                             1220.20  1277.82  1333.51  1399.22  1402.09
                             1423.26  1462.17  1473.38  1513.48  1539.72
                             1574.77  1631.21  1681.38  1713.98  1770.35
                             1812.92  1821.40  1851.80  1873.71  1948.97
                             1971.99  2041.48  2056.50  2130.08  2145.06
                             2426.82  4339.97  4362.14  4402.58  4441.41
                             4494.84  4575.30  4615.20  4630.89  5457.79
                             5481.30

 Zero-point correction=                           0.159145 (Hartree/Particle)
 Thermal correction to Energy=                    0.167711
 Thermal correction to Enthalpy=                  0.168655
 Thermal correction to Gibbs Free Energy=         0.125893
 Sum of electronic and zero-point Energies=           -423.013250
 Sum of electronic and thermal Energies=              -423.004685
 Sum of electronic and thermal Enthalpies=            -423.003740
 Sum of electronic and thermal Free Energies=         -423.046502

                     E (Thermal)             CV                S
                      KCal/Mol        Cal/Mol-Kelvin    Cal/Mol-Kelvin
 Total                  105.240             33.289             90.000
 Electronic               0.000              0.000              0.000
 Translational            0.889              2.981             40.409
 Rotational               0.889              2.981             28.762
 Vibrational            103.463             27.328             20.829
 Vibration     1          0.595              1.977              4.802
 Vibration     2          0.626              1.878              2.426
 Vibration     3          0.640              1.832              2.081
 Vibration     4          0.661              1.768              1.754
 Vibration     5          0.676              1.724              1.579
 Vibration     6          0.704              1.641              1.324
 Vibration     7          0.727              1.575              1.167
 Vibration     8          0.758              1.491              0.999
 Vibration     9          0.815              1.346              0.775
 Vibration    10          0.862              1.235              0.641
 Vibration    11          0.878              1.198              0.602
 Vibration    12          0.973              1.004              0.427

 Normal termination of Gaussian 09 at Tue Jan 28 02:43:31 2020.
