 Gaussian 09, Revision D.01,
 Gaussian 09:  ES64L-G09RevD.01 24-Apr-2013

 -----------------------------
 # b3lyp 6-31G(2df,p) opt Freq
 -----------------------------

 -----
 titel
 -----
 Symbolic Z-matrix:
 Charge =  0 Multiplicity = 1

 SCF Done:  E(RB3LYP) =  -423.108965909     A.U. after   12 cycles
 Optimization completed.
    -- Stationary point found.
 Normal termination of Gaussian 09 at Tue Jan 28 12:47:29 2020.

 ----------------------------------------------------------------------
 #N Geom=AllCheck Guess=TCheck SCRF=Check GenChk RB3LYP/6-31G(2df,p) Fr
 eq
 ----------------------------------------------------------------------

 Structure from the checkpoint file:  "/scratch/puck/g09_860ccb23-452a-4832-98ca-4a2152071b62/Gau-10898.chk"
 -----
 titel
 -----
 Charge =  0 Multiplicity = 1

                         Standard orientation:
 ---------------------------------------------------------------------
 Center     Atomic      Atomic             Coordinates (Angstroms)
 Number     Number       Type             X           Y           Z
 ---------------------------------------------------------------------
      1          6           0        3.055644    0.214246    0.353880
      2          6           0        1.875664    0.100440   -0.617098
      3          6           0        0.698244   -0.687433   -0.048817
      4          6           0       -0.125473    0.055123    1.007162
      5          6           0       -1.578848   -0.483978    0.808290
      6          8           0       -1.536243   -1.467343   -0.220020
      7          6           0       -0.590271   -0.613530   -0.915107
      8          6           0       -1.060267    0.637833   -0.026694
      9          8           0       -1.398762    1.941024   -0.258232
     10          1           0        2.770822    0.747097    1.267040
     11          1           0        3.421893   -0.775560    0.648076
     12          1           0        3.890222    0.757034   -0.100458
     13          1           0        1.536303    1.104149   -0.904177
     14          1           0        2.211502   -0.390396   -1.540494
     15          1           0        0.994569   -1.714415    0.197779
     16          1           0        0.184107    0.492121    1.948193
     17          1           0       -2.315824   -0.561587    1.596532
     18          1           0       -0.586162   -0.747933   -1.995933
     19          1           0       -2.275537    1.963837   -0.660236
 ---------------------------------------------------------------------

 SCF Done:  E(RB3LYP) =  -423.108965908     A.U. after    1 cycles

 The electronic state is 1-A.
 Alpha  occ. eigenvalues --  -19.16537 -19.13621 -10.24282 -10.23577 -10.23492
 Alpha  occ. eigenvalues --  -10.19043 -10.18851 -10.18098 -10.17291  -1.06713
 Alpha  occ. eigenvalues --   -1.04023  -0.85509  -0.77543  -0.71039  -0.64332
 Alpha  occ. eigenvalues --   -0.60652  -0.57981  -0.54490  -0.53679  -0.48603
 Alpha  occ. eigenvalues --   -0.46696  -0.43155  -0.42326  -0.41070  -0.39193
 Alpha  occ. eigenvalues --   -0.38156  -0.37701  -0.36051  -0.34007  -0.32875
 Alpha  occ. eigenvalues --   -0.31776  -0.26150  -0.25910  -0.22680
 Alpha virt. eigenvalues --    0.06721   0.08561   0.09623   0.11584   0.11896
 Alpha virt. eigenvalues --    0.13475   0.14406   0.14807   0.16438   0.16946
 Alpha virt. eigenvalues --    0.18726   0.19429   0.20393   0.21639   0.21948

 Mulliken charges:
               1
     1  C   -0.380093
     2  C   -0.196739
     3  C    0.017546
     4  C   -0.154442
     5  C   -0.028735
     6  O   -0.285658
     7  C   -0.036387
     8  C    0.313502
     9  O   -0.450975
    10  H    0.118234
    11  H    0.115401
    12  H    0.112681
    13  H    0.107103
    14  H    0.092552
    15  H    0.070617
    16  H    0.094499
    17  H    0.111773
    18  H    0.084022
    19  H    0.295103
 Sum of Mulliken charges =   0.00000

 Dipole moment (field-independent basis, Debye):
    X=             -0.2300    Y=              0.8878    Z=             -0.1564  Tot=              0.9303
 Quadrupole moment (field-independent basis, Debye-Ang):
   XX=            -49.2635   YY=            -58.4428   ZZ=            -49.8604
   XY=             -4.6973   XZ=             -0.1767   YZ=             -0.8661

  Exact polarizability:  85.682  -1.181  68.148  -1.230   0.272  69.969
 Approx polarizability: 111.699  -0.059 108.224  -0.512   0.250 107.717

                      1                      2                      3
                      A                      A                      A
 Frequencies --     84.2337               142.8790               179.7329
 Red. masses --      2.9251                 2.3070                 2.1002
 Frc consts  --      0.0122                 0.0277                 0.0400
 IR Inten    --      0.1283                 1.1927                 0.2266

                      4                      5                      6
                      A                      A                      A
 Frequencies --    239.4069               313.9318               339.1523
 Red. masses --      1.3932                 3.7968                 1.5947
 Frc consts  --      0.0470                 0.2205                 0.1081
 IR Inten    --      2.1514                11.0308                28.4134

                      7                      8                      9
                      A                      A                      A
 Frequencies --    371.7878               403.8304               500.6464
 Red. masses --      3.5882                 1.7912                 3.5042
 Frc consts  --      0.2922                 0.1721                 0.5175
 IR Inten    --      1.1704                68.9808                 1.1586

                     10                     11                     12
                      A                      A                      A
 Frequencies --    569.7358               615.1051               734.1555
 Red. masses --      3.7123                 3.5525                 1.9478
 Frc consts  --      0.7100                 0.7919                 0.6185
 IR Inten    --      6.3610                19.7577                 2.1947

                     13                     14                     15
                      A                      A                      A
 Frequencies --    764.9707               815.0457               842.4626
 Red. masses --      5.0633                 2.0524                 2.0955
 Frc consts  --      1.7457                 0.8033                 0.8763
 IR Inten    --      0.3997                 4.8319                 5.1385

                     16                     17                     18
                      A                      A                      A
 Frequencies --    870.3053               895.5204               933.7892
 Red. masses --      1.8263                 2.0357                 1.7433
 Frc consts  --      0.8150                 0.9619                 0.8956
 IR Inten    --      1.5274                22.3233                31.3151

                     19                     20                     21
                      A                      A                      A
 Frequencies --    947.3331               967.5493               991.4379
 Red. masses --      2.0925                 1.6839                 3.5979
 Frc consts  --      1.1064                 0.9288                 2.0837
 IR Inten    --     10.8567                 5.3555                20.8349

                     22                     23                     24
                      A                      A                      A
 Frequencies --   1042.5893              1044.3891              1065.8470
 Red. masses --      2.8031                 2.6966                 2.2793
 Frc consts  --      1.7952                 1.7330                 1.5256
 IR Inten    --      9.8761                12.3665                 5.8300

                     25                     26                     27
                      A                      A                      A
 Frequencies --   1096.6977              1105.2427              1146.6309
 Red. masses --      1.6281                 1.8370                 2.4005
 Frc consts  --      1.1537                 1.3222                 1.8595
 IR Inten    --      4.2930                 4.9092                 6.9462

                     28                     29                     30
                      A                      A                      A
 Frequencies --   1151.4698              1200.7408              1223.2759
 Red. masses --      2.2167                 1.3725                 1.9313
 Frc consts  --      1.7317                 1.1659                 1.7028
 IR Inten    --      0.8398                 4.6003                49.0294

                     31                     32                     33
                      A                      A                      A
 Frequencies --   1255.0013              1276.5899              1298.1833
 Red. masses --      1.6710                 1.3626                 1.3727
 Frc consts  --      1.5506                 1.3083                 1.3630
 IR Inten    --      5.9182                11.5599                21.8551

                     34                     35                     36
                      A                      A                      A
 Frequencies --   1318.6983              1355.9734              1392.1960
 Red. masses --      1.4337                 1.4737                 1.6179
 Frc consts  --      1.4689                 1.5964                 1.8475
 IR Inten    --     68.1771                22.0438                 2.8718

                     37                     38                     39
                      A                      A                      A
 Frequencies --   1411.7118              1485.5356              1488.6881
 Red. masses --      1.2325                 1.1096                 3.8286
 Frc consts  --      1.4472                 1.4427                 4.9991
 IR Inten    --      2.3779                 1.3940                62.6159

                     40                     41                     42
                      A                      A                      A
 Frequencies --   1499.0308              1506.4493              3012.5932
 Red. masses --      1.0422                 1.0705                 1.0604
 Frc consts  --      1.3799                 1.4313                 5.6701
 IR Inten    --      6.4421                 3.7239                26.6405

                     43                     44                     45
                      A                      A                      A
 Frequencies --   3030.3791              3033.0276              3052.6757
 Red. masses --      1.0760                 1.0444                 1.0981
 Frc consts  --      5.8218                 5.6609                 6.0290
 IR Inten    --     11.7326                31.2659                35.9768

                     46                     47                     48
                      A                      A                      A
 Frequencies --   3100.0551              3104.6160              3133.3357
 Red. masses --      1.1016                 1.1014                 1.0923
 Frc consts  --      6.2376                 6.2547                 6.3184
 IR Inten    --     40.5904                35.9588                30.3856

                     49                     50                     51
                      A                      A                      A
 Frequencies --   3199.1973              3213.2440              3778.5953
 Red. masses --      1.0922                 1.0961                 1.0659
 Frc consts  --      6.5860                 6.6678                 8.9667
 IR Inten    --      5.1214                13.7910                29.0040

 - Thermochemistry -
 -------------------
 Temperature   298.150 Kelvin.  Pressure   1.00000 Atm.
 Atom     1 has atomic number  6 and mass  12.00000

 Molecular mass:   126.06808 amu.
 Principal axes and moments of inertia in atomic units:
                           1         2         3
     Eigenvalues --   637.600571372.879391623.62668
           X            0.99999  -0.00523   0.00040
           Y            0.00523   0.99999  -0.00152
           Z           -0.00040   0.00153   1.00000
 This molecule is an asymmetric top.
 Rotational symmetry number  1.
 Warning -- assumption of classical behavior for rotation
           may cause significant error
 Rotational temperatures (Kelvin)      0.13584     0.06309     0.05335
 Rotational constants (GHZ):           2.83052     1.31457     1.11155
 Zero-point vibrational energy     415975.5 (Joules/Mol)
                                   99.42053 (Kcal/Mol)
 Warning -- explicit consideration of  11 degrees of freedom as
           vibrations may cause significant error
 Vibrational temperatures:    121.19   205.57   258.60   344.45   451.68
          (Kelvin)            487.96   534.92   581.02   720.32   819.72
                              885.00  1056.28  1100.62  1172.67  1212.11
                             1252.17  1288.45  1343.51  1363.00  1392.09
                             1426.46  1500.05  1502.64  1533.51  1577.90
                             1590.20  1649.74  1656.71  1727.60  1760.02
                             1805.66  1836.73  1867.79  1897.31  1950.94
                             2003.06  2031.14  2137.35  2141.89  2156.77
                             2167.44  4334.44  4360.03  4363.84  4392.11
                             4460.28  4466.84  4508.17  4602.93  4623.14
                             5436.55

 Zero-point correction=                           0.158437 (Hartree/Particle)
 Thermal correction to Energy=                    0.166680
 Thermal correction to Enthalpy=                  0.167624
 Thermal correction to Gibbs Free Energy=         0.125632
 Sum of electronic and zero-point Energies=           -422.950529
 Sum of electronic and thermal Energies=              -422.942286
 Sum of electronic and thermal Enthalpies=            -422.941342
 Sum of electronic and thermal Free Energies=         -422.983334

                     E (Thermal)             CV                S
                      KCal/Mol        Cal/Mol-Kelvin    Cal/Mol-Kelvin
 Total                  104.593             32.157             88.381
 Electronic               0.000              0.000              0.000
 Translational            0.889              2.981             40.409
 Rotational               0.889              2.981             28.743
 Vibrational            102.816             26.195             19.229
 Vibration     1          0.601              1.960              3.790
 Vibration     2          0.616              1.910              2.765
 Vibration     3          0.629              1.867              2.331
 Vibration     4          0.657              1.780              1.807
 Vibration     5          0.702              1.647              1.342
 Vibration     6          0.719              1.597              1.216
 Vibration     7          0.743              1.530              1.072
 Vibration     8          0.769              1.462              0.949
 Vibration     9          0.856              1.249              0.657
 Vibration    10          0.926              1.097              0.505
 Vibration    11          0.975              1.000              0.424

 Optimization completed.
    -- Stationary point found.
 Normal termination of Gaussian 09 at Tue Jan 28 14:40:03 2020.
