 Gaussian 09, Revision D.01,
 Gaussian 09:  ES64L-G09RevD.01 24-Apr-2013

 -----------------------------
 # b3lyp 6-31G(2df,p) opt Freq
 -----------------------------

 -----
 titel
 -----
 Symbolic Z-matrix:
 Charge =  0 Multiplicity = 1

 SCF Done:  E(RB3LYP) =  -423.140978372     A.U. after   14 cycles
 Optimization completed.
    -- Stationary point found.
 Normal termination of Gaussian 09 at Tue Jan 28 08:44:05 2020.

 ----------------------------------------------------------------------
 #N Geom=AllCheck Guess=TCheck SCRF=Check GenChk RB3LYP/6-31G(2df,p) Fr
 eq
 ----------------------------------------------------------------------

 Structure from the checkpoint file:  "/scratch/puck/g09_11165726-5e87-486d-91d2-25b674e6649b/Gau-187532.chk"
 -----
 titel
 -----
 Charge =  0 Multiplicity = 1

                         Standard orientation:
 ---------------------------------------------------------------------
 Center     Atomic      Atomic             Coordinates (Angstroms)
 Number     Number       Type             X           Y           Z
 ---------------------------------------------------------------------
      1          6           0       -0.472778    1.766461    0.202603
      2          6           0       -0.407076    0.238678    0.226473
      3          6           0       -1.812197   -0.319687    0.483713
      4          8           0       -2.713406   -0.003821   -0.570109
      5          6           0        0.799318   -0.426843    1.010585
      6          6           0        0.663344   -1.671454    0.063645
      7          6           0        0.463053   -0.458238   -0.906865
      8          6           0        1.663336    0.122089   -0.137820
      9          8           0        2.710027    0.655828   -0.331634
     10          1           0       -1.245789    2.091115   -0.498722
     11          1           0       -0.741773    2.151712    1.192727
     12          1           0        0.476310    2.224110   -0.087886
     13          1           0       -1.815308   -1.395654    0.689080
     14          1           0       -2.222062    0.171657    1.372918
     15          1           0       -2.430023   -0.488071   -1.352381
     16          1           0        0.984712   -0.417198    2.083204
     17          1           0        1.561703   -2.272949   -0.084650
     18          1           0       -0.203376   -2.307558    0.226117
     19          1           0        0.280643   -0.479250   -1.980475
 ---------------------------------------------------------------------

 SCF Done:  E(RB3LYP) =  -423.140978372     A.U. after    1 cycles

 The electronic state is 1-A.
 Alpha  occ. eigenvalues --  -19.14475 -19.13861 -10.27780 -10.23595 -10.22213
 Alpha  occ. eigenvalues --  -10.21500 -10.21468 -10.21371 -10.17747  -1.05240
 Alpha  occ. eigenvalues --   -1.02529  -0.92656  -0.76165  -0.69419  -0.65417
 Alpha  occ. eigenvalues --   -0.64899  -0.58850  -0.52051  -0.50318  -0.49115
 Alpha  occ. eigenvalues --   -0.47416  -0.45334  -0.44041  -0.42131  -0.40821
 Alpha  occ. eigenvalues --   -0.38370  -0.37792  -0.35754  -0.34423  -0.34047
 Alpha  occ. eigenvalues --   -0.32268  -0.31759  -0.27513  -0.24439
 Alpha virt. eigenvalues --    0.00891   0.06162   0.10468   0.10708   0.11555
 Alpha virt. eigenvalues --    0.12329   0.12860   0.12974   0.14691   0.15635
 Alpha virt. eigenvalues --    0.17174   0.17359   0.18742   0.19889   0.20722

 Mulliken charges:
               1
     1  C   -0.478206
     2  C    0.316753
     3  C   -0.148318
     4  O   -0.413651
     5  C   -0.218942
     6  C   -0.262187
     7  C   -0.218253
     8  C    0.450949
     9  O   -0.330996
    10  H    0.138074
    11  H    0.119208
    12  H    0.137131
    13  H    0.094704
    14  H    0.115218
    15  H    0.285220
    16  H    0.091880
    17  H    0.119455
    18  H    0.113606
    19  H    0.088354
 Sum of Mulliken charges =   0.00000

 Dipole moment (field-independent basis, Debye):
    X=             -1.5132    Y=             -2.0037    Z=              0.2744  Tot=              2.5258
 Quadrupole moment (field-independent basis, Debye-Ang):
   XX=            -67.6916   YY=            -51.8815   ZZ=            -49.5170
   XY=             -1.5398   XZ=              1.6103   YZ=              1.6427

  Exact polarizability:  83.982   0.091  74.519  -0.998   0.571  68.832
 Approx polarizability: 124.635   5.039 109.509  -1.725   0.067 109.891

                      1                      2                      3
                      A                      A                      A
 Frequencies --     88.5485               140.4108               164.6990
 Red. masses --      3.4893                 5.4217                 4.5553
 Frc consts  --      0.0161                 0.0630                 0.0728
 IR Inten    --      3.7406                 1.9595                 2.0478

                      4                      5                      6
                      A                      A                      A
 Frequencies --    214.7394               286.7556               308.8724
 Red. masses --      1.0450                 1.9831                 1.4355
 Frc consts  --      0.0284                 0.0961                 0.0807
 IR Inten    --      0.1882                12.4702                95.4122

                      7                      8                      9
                      A                      A                      A
 Frequencies --    367.0662               404.7002               429.4823
 Red. masses --      2.8272                 2.2274                 4.3081
 Frc consts  --      0.2244                 0.2149                 0.4682
 IR Inten    --      0.1600                 9.3824                 0.3591

                     10                     11                     12
                      A                      A                      A
 Frequencies --    481.3377               514.6535               656.9283
 Red. masses --      2.9986                 3.0294                 3.6002
 Frc consts  --      0.4093                 0.4728                 0.9154
 IR Inten    --      0.9558                 3.8692                 2.3062

                     13                     14                     15
                      A                      A                      A
 Frequencies --    697.6440               742.9230               779.1904
 Red. masses --      3.0136                 3.5425                 3.8648
 Frc consts  --      0.8642                 1.1520                 1.3825
 IR Inten    --      7.2821                10.2477                 0.8640

                     16                     17                     18
                      A                      A                      A
 Frequencies --    818.4910               881.8190               920.1034
 Red. masses --      4.3079                 2.4467                 1.5924
 Frc consts  --      1.7004                 1.1210                 0.7943
 IR Inten    --      5.6123                 0.8443                21.9343

                     19                     20                     21
                      A                      A                      A
 Frequencies --    948.4777               966.0369              1023.5297
 Red. masses --      1.7272                 1.6203                 1.4385
 Frc consts  --      0.9155                 0.8909                 0.8879
 IR Inten    --      6.2349                 0.3760                 7.4636

                     22                     23                     24
                      A                      A                      A
 Frequencies --   1039.4501              1046.1556              1056.6029
 Red. masses --      1.4399                 1.3373                 4.3523
 Frc consts  --      0.9166                 0.8624                 2.8628
 IR Inten    --     20.0464                 2.1976                93.4369

                     25                     26                     27
                      A                      A                      A
 Frequencies --   1097.4330              1126.2464              1135.8532
 Red. masses --      4.2756                 1.4446                 1.5232
 Frc consts  --      3.0339                 1.0796                 1.1578
 IR Inten    --      1.1770                 1.1827                 2.6040

                     28                     29                     30
                      A                      A                      A
 Frequencies --   1154.3363              1175.7139              1207.3365
 Red. masses --      1.7443                 1.6319                 1.5689
 Frc consts  --      1.3694                 1.3291                 1.3474
 IR Inten    --      0.5636                13.2743                 4.1557

                     31                     32                     33
                      A                      A                      A
 Frequencies --   1226.3117              1244.5873              1295.5560
 Red. masses --      1.8189                 2.9830                 2.0133
 Frc consts  --      1.6116                 2.7224                 1.9910
 IR Inten    --      1.8776                 6.8690                 5.5455

                     34                     35                     36
                      A                      A                      A
 Frequencies --   1382.2752              1408.6606              1422.6726
 Red. masses --      1.2709                 1.2234                 1.2315
 Frc consts  --      1.4308                 1.4303                 1.4685
 IR Inten    --      5.7801                38.6630                20.6460

                     37                     38                     39
                      A                      A                      A
 Frequencies --   1485.8366              1498.2387              1507.8821
 Red. masses --      1.0588                 1.0726                 1.0580
 Frc consts  --      1.3772                 1.4185                 1.4173
 IR Inten    --      5.4974                 6.2104                 3.2652

                     40                     41                     42
                      A                      A                      A
 Frequencies --   1539.1230              1917.3690              3033.8995
 Red. masses --      1.0926                11.9964                 1.0565
 Frc consts  --      1.5250                25.9844                 5.7294
 IR Inten    --      0.9077               382.5904                37.1981

                     43                     44                     45
                      A                      A                      A
 Frequencies --   3038.5802              3073.3108              3091.7508
 Red. masses --      1.0415                 1.1020                 1.0616
 Frc consts  --      5.6658                 6.1326                 5.9788
 IR Inten    --     13.6346                22.6392                40.1665

                     46                     47                     48
                      A                      A                      A
 Frequencies --   3105.0159              3127.6525              3129.4247
 Red. masses --      1.0968                 1.1022                 1.0920
 Frc consts  --      6.2303                 6.3523                 6.3011
 IR Inten    --     15.5705                 9.1851                34.5551

                     49                     50                     51
                      A                      A                      A
 Frequencies --   3139.6118              3166.5312              3815.0884
 Red. masses --      1.0937                 1.1046                 1.0662
 Frc consts  --      6.3521                 6.5254                 9.1429
 IR Inten    --     15.2066                17.8417                14.4770

 - Thermochemistry -
 -------------------
 Temperature   298.150 Kelvin.  Pressure   1.00000 Atm.
 Atom     1 has atomic number  6 and mass  12.00000

 Molecular mass:   126.06808 amu.
 Principal axes and moments of inertia in atomic units:
                           1         2         3
     Eigenvalues --   569.294161412.532881642.29614
           X            0.99990  -0.01424  -0.00039
           Y            0.01424   0.99978   0.01547
           Z            0.00017  -0.01548   0.99988
 This molecule is an asymmetric top.
 Rotational symmetry number  1.
 Warning -- assumption of classical behavior for rotation
           may cause significant error
 Rotational temperatures (Kelvin)      0.15214     0.06132     0.05274
 Rotational constants (GHZ):           3.17014     1.27766     1.09891
 Zero-point vibrational energy     415851.3 (Joules/Mol)
                                   99.39086 (Kcal/Mol)
 Warning -- explicit consideration of  11 degrees of freedom as
           vibrations may cause significant error
 Vibrational temperatures:    127.40   202.02   236.96   308.96   412.58
          (Kelvin)            444.40   528.13   582.27   617.93   692.54
                              740.47   945.17  1003.75  1068.90  1121.08
                             1177.62  1268.74  1323.82  1364.65  1389.91
                             1472.63  1495.53  1505.18  1520.21  1578.96
                             1620.42  1634.24  1660.83  1691.59  1737.09
                             1764.39  1790.68  1864.01  1988.78  2026.75
                             2046.91  2137.78  2155.63  2169.50  2214.45
                             2758.66  4365.10  4371.83  4421.80  4448.33
                             4467.42  4499.99  4502.54  4517.20  4555.93
                             5489.05

 Zero-point correction=                           0.158389 (Hartree/Particle)
 Thermal correction to Energy=                    0.167049
 Thermal correction to Enthalpy=                  0.167993
 Thermal correction to Gibbs Free Energy=         0.125312
 Sum of electronic and zero-point Energies=           -422.982589
 Sum of electronic and thermal Energies=              -422.973930
 Sum of electronic and thermal Enthalpies=            -422.972986
 Sum of electronic and thermal Free Energies=         -423.015666

                     E (Thermal)             CV                S
                      KCal/Mol        Cal/Mol-Kelvin    Cal/Mol-Kelvin
 Total                  104.825             33.386             89.829
 Electronic               0.000              0.000              0.000
 Translational            0.889              2.981             40.409
 Rotational               0.889              2.981             28.670
 Vibrational            103.047             27.424             20.750
 Vibration     1          0.601              1.957              3.692
 Vibration     2          0.615              1.913              2.798
 Vibration     3          0.623              1.886              2.495
 Vibration     4          0.645              1.819              2.003
 Vibration     5          0.684              1.698              1.493
 Vibration     6          0.698              1.657              1.368
 Vibration     7          0.740              1.540              1.092
 Vibration     8          0.770              1.460              0.946
 Vibration     9          0.791              1.406              0.860
 Vibration    10          0.838              1.291              0.706
 Vibration    11          0.870              1.218              0.622

 Normal termination of Gaussian 09 at Tue Jan 28 09:20:13 2020.
