 Gaussian 09, Revision D.01,
 Gaussian 09:  ES64L-G09RevD.01 24-Apr-2013

 -----------------------------
 # b3lyp 6-31G(2df,p) opt Freq
 -----------------------------

 -----
 titel
 -----
 Symbolic Z-matrix:
 Charge =  0 Multiplicity = 1

 SCF Done:  E(RB3LYP) =  -423.105677677     A.U. after   13 cycles
 Optimization completed.
    -- Stationary point found.
 Normal termination of Gaussian 09 at Tue Jan 28 02:51:49 2020.

 ----------------------------------------------------------------------
 #N Geom=AllCheck Guess=TCheck SCRF=Check GenChk RB3LYP/6-31G(2df,p) Fr
 eq
 ----------------------------------------------------------------------

 Structure from the checkpoint file:  "/scratch/puck/g09_2826838c-9e10-4b07-b078-ba059f48a716/Gau-189997.chk"
 -----
 titel
 -----
 Charge =  0 Multiplicity = 1

                         Standard orientation:
 ---------------------------------------------------------------------
 Center     Atomic      Atomic             Coordinates (Angstroms)
 Number     Number       Type             X           Y           Z
 ---------------------------------------------------------------------
      1          6           0       -2.787724   -0.177127   -0.552626
      2          6           0       -1.528413   -0.283514    0.274758
      3          8           0       -1.016833    1.059303    0.649692
      4          6           0        0.276563    0.602863    0.304401
      5          6           0        0.996371   -0.406019    1.286702
      6          6           0        1.162748   -1.136979   -0.043061
      7          8           0        2.027981   -0.195422   -0.776665
      8          6           0        1.448781    1.122838   -0.505584
      9          6           0       -0.211419   -0.609760   -0.510539
     10          1           0       -3.130103   -1.176039   -0.843606
     11          1           0       -3.581712    0.307784    0.023112
     12          1           0       -2.609508    0.411063   -1.457063
     13          1           0       -1.701038   -0.877046    1.178299
     14          1           0        1.910971   -0.081064    1.784439
     15          1           0        0.306991   -0.869854    1.990174
     16          1           0        1.568951   -2.137098   -0.184647
     17          1           0        2.174518    1.740172    0.033700
     18          1           0        1.162637    1.610460   -1.442200
     19          1           0       -0.332331   -0.513240   -1.590731
 ---------------------------------------------------------------------

 SCF Done:  E(RB3LYP) =  -423.105677677     A.U. after    1 cycles

 The electronic state is 1-A.
 Alpha  occ. eigenvalues --  -19.14467 -19.13805 -10.25175 -10.24744 -10.24565
 Alpha  occ. eigenvalues --  -10.23221 -10.18608 -10.18548 -10.18374  -1.05802
 Alpha  occ. eigenvalues --   -1.02399  -0.82184  -0.76636  -0.72103  -0.68085
 Alpha  occ. eigenvalues --   -0.61816  -0.57501  -0.53524  -0.50808  -0.49781
 Alpha  occ. eigenvalues --   -0.47608  -0.45686  -0.42400  -0.40721  -0.40348
 Alpha  occ. eigenvalues --   -0.39129  -0.37479  -0.36638  -0.34796  -0.33974
 Alpha  occ. eigenvalues --   -0.31572  -0.26681  -0.25341  -0.24585
 Alpha virt. eigenvalues --    0.06458   0.08713   0.09849   0.11312   0.11761
 Alpha virt. eigenvalues --    0.12902   0.14004   0.15088   0.15900   0.16490
 Alpha virt. eigenvalues --    0.17241   0.17846   0.18883   0.20395   0.21166

 Mulliken charges:
               1
     1  C   -0.406928
     2  C    0.072838
     3  O   -0.361633
     4  C    0.401038
     5  C   -0.294341
     6  C    0.051267
     7  O   -0.294152
     8  C   -0.153501
     9  C   -0.085773
    10  H    0.123430
    11  H    0.131854
    12  H    0.127166
    13  H    0.090298
    14  H    0.103340
    15  H    0.110534
    16  H    0.080285
    17  H    0.106053
    18  H    0.110726
    19  H    0.087499
 Sum of Mulliken charges =   0.00000

 Dipole moment (field-independent basis, Debye):
    X=             -1.0734    Y=             -0.9387    Z=              0.2261  Tot=              1.4438
 Quadrupole moment (field-independent basis, Debye-Ang):
   XX=            -54.6047   YY=            -52.7333   ZZ=            -53.3558
   XY=              3.5254   XZ=              3.2494   YZ=             -2.3310

  Exact polarizability:  88.121   3.026  68.618   2.235  -2.529  68.195
 Approx polarizability: 119.135   1.687 108.865  -1.354  -0.286 104.233

                      1                      2                      3
                      A                      A                      A
 Frequencies --    160.9006               223.8524               264.7658
 Red. masses --      3.1024                 1.1498                 2.2496
 Frc consts  --      0.0473                 0.0339                 0.0929
 IR Inten    --      0.3478                 0.3555                 1.0725

                      4                      5                      6
                      A                      A                      A
 Frequencies --    358.5579               368.6036               411.3900
 Red. masses --      4.1706                 2.5905                 3.0893
 Frc consts  --      0.3159                 0.2074                 0.3080
 IR Inten    --      7.6813                 6.0600                 0.4368

                      7                      8                      9
                      A                      A                      A
 Frequencies --    471.6989               503.8417               555.7425
 Red. masses --      3.0161                 2.4343                 4.2679
 Frc consts  --      0.3954                 0.3641                 0.7766
 IR Inten    --      3.9955                 0.2395                 4.2821

                     10                     11                     12
                      A                      A                      A
 Frequencies --    660.3395               762.0228               809.2492
 Red. masses --      3.4985                 3.4223                 4.3980
 Frc consts  --      0.8988                 1.1708                 1.6969
 IR Inten    --      0.3443                 9.1833                13.2694

                     13                     14                     15
                      A                      A                      A
 Frequencies --    822.8115               840.8859               863.3334
 Red. masses --      4.0177                 4.2688                 3.5436
 Frc consts  --      1.6026                 1.7784                 1.5561
 IR Inten    --     50.6392                 5.0566                12.9397

                     16                     17                     18
                      A                      A                      A
 Frequencies --    901.5615               916.0469               949.0307
 Red. masses --      1.8499                 3.6440                 2.2342
 Frc consts  --      0.8859                 1.8016                 1.1856
 IR Inten    --      8.7359                32.6070                22.2323

                     19                     20                     21
                      A                      A                      A
 Frequencies --    990.1966              1006.3748              1050.3139
 Red. masses --      2.1232                 1.8060                 1.5848
 Frc consts  --      1.2265                 1.0777                 1.0301
 IR Inten    --      7.7464                14.6135                21.4138

                     22                     23                     24
                      A                      A                      A
 Frequencies --   1054.2705              1062.1045              1096.5764
 Red. masses --      1.5412                 1.7508                 1.9715
 Frc consts  --      1.0093                 1.1636                 1.3968
 IR Inten    --     20.8518                 5.0665                 4.0888

                     25                     26                     27
                      A                      A                      A
 Frequencies --   1123.8961              1136.9770              1171.3418
 Red. masses --      1.6147                 2.1130                 1.5653
 Frc consts  --      1.2017                 1.6094                 1.2653
 IR Inten    --      7.1744                11.3139                 6.2121

                     28                     29                     30
                      A                      A                      A
 Frequencies --   1190.8173              1210.4037              1248.6161
 Red. masses --      1.7379                 1.7374                 1.4699
 Frc consts  --      1.4520                 1.4997                 1.3502
 IR Inten    --      5.4797                32.3064                29.5655

                     31                     32                     33
                      A                      A                      A
 Frequencies --   1255.9107              1265.1395              1287.9609
 Red. masses --      1.7520                 1.4966                 1.9026
 Frc consts  --      1.6282                 1.4114                 1.8596
 IR Inten    --      4.5035                29.9627                19.0347

                     34                     35                     36
                      A                      A                      A
 Frequencies --   1326.0882              1347.3502              1394.4571
 Red. masses --      1.4470                 1.6177                 1.4986
 Frc consts  --      1.4992                 1.7303                 1.7169
 IR Inten    --     11.4666                19.7888                 0.9899

                     37                     38                     39
                      A                      A                      A
 Frequencies --   1408.7228              1478.9864              1492.9557
 Red. masses --      1.4281                 1.0517                 1.1036
 Frc consts  --      1.6698                 1.3554                 1.4492
 IR Inten    --     10.1391                 3.1693                 4.8001

                     40                     41                     42
                      A                      A                      A
 Frequencies --   1495.9219              1527.7716              3038.1033
 Red. masses --      1.0676                 1.1064                 1.0372
 Frc consts  --      1.4076                 1.5216                 5.6407
 IR Inten    --      6.9846                 0.9179                21.8336

                     43                     44                     45
                      A                      A                      A
 Frequencies --   3039.0019              3051.7846              3088.9917
 Red. masses --      1.0539                 1.0842                 1.0841
 Frc consts  --      5.7349                 5.9496                 6.0948
 IR Inten    --     53.9267                23.6683                 1.5591

                     46                     47                     48
                      A                      A                      A
 Frequencies --   3091.4417              3097.7304              3111.9653
 Red. masses --      1.0838                 1.0872                 1.1009
 Frc consts  --      6.1028                 6.1469                 6.2817
 IR Inten    --     41.4334                27.7650                14.5386

                     49                     50                     51
                      A                      A                      A
 Frequencies --   3122.1241              3134.6013              3160.9067
 Red. masses --      1.1020                 1.0926                 1.1091
 Frc consts  --      6.3290                 6.3255                 6.5289
 IR Inten    --     25.4029                48.0649                19.2594

 - Thermochemistry -
 -------------------
 Temperature   298.150 Kelvin.  Pressure   1.00000 Atm.
 Atom     1 has atomic number  6 and mass  12.00000

 Molecular mass:   126.06808 amu.
 Principal axes and moments of inertia in atomic units:
                           1         2         3
     Eigenvalues --   496.547571309.806721355.41670
           X            0.99931   0.02976   0.02208
           Y           -0.02255   0.96127  -0.27468
           Z           -0.02940   0.27400   0.96128
 This molecule is an asymmetric top.
 Rotational symmetry number  1.
 Warning -- assumption of classical behavior for rotation
           may cause significant error
 Rotational temperatures (Kelvin)      0.17443     0.06613     0.06390
 Rotational constants (GHZ):           3.63458     1.37787     1.33150
 Zero-point vibrational energy     421112.1 (Joules/Mol)
                                  100.64820 (Kcal/Mol)
 Warning -- explicit consideration of   9 degrees of freedom as
           vibrations may cause significant error
 Vibrational temperatures:    231.50   322.07   380.94   515.88   530.34
          (Kelvin)            591.90   678.67   724.91   799.59   950.08
                             1096.38  1164.33  1183.84  1209.85  1242.14
                             1297.14  1317.99  1365.44  1424.67  1447.95
                             1511.17  1516.86  1528.13  1577.73  1617.03
                             1635.85  1685.30  1713.32  1741.50  1796.48
                             1806.97  1820.25  1853.09  1907.94  1938.53
                             2006.31  2026.84  2127.93  2148.03  2152.30
                             2198.12  4371.15  4372.44  4390.83  4444.36
                             4447.89  4456.94  4477.42  4492.03  4509.99
                             4547.83

 Zero-point correction=                           0.160393 (Hartree/Particle)
 Thermal correction to Energy=                    0.167522
 Thermal correction to Enthalpy=                  0.168467
 Thermal correction to Gibbs Free Energy=         0.129266
 Sum of electronic and zero-point Energies=           -422.945285
 Sum of electronic and thermal Energies=              -422.938155
 Sum of electronic and thermal Enthalpies=            -422.937211
 Sum of electronic and thermal Free Energies=         -422.976412

                     E (Thermal)             CV                S
                      KCal/Mol        Cal/Mol-Kelvin    Cal/Mol-Kelvin
 Total                  105.122             29.626             82.505
 Electronic               0.000              0.000              0.000
 Translational            0.889              2.981             40.409
 Rotational               0.889              2.981             28.268
 Vibrational            103.344             23.664             13.828
 Vibration     1          0.622              1.890              2.539
 Vibration     2          0.649              1.805              1.928
 Vibration     3          0.671              1.738              1.630
 Vibration     4          0.733              1.558              1.128
 Vibration     5          0.741              1.537              1.086
 Vibration     6          0.775              1.446              0.922
 Vibration     7          0.829              1.313              0.733
 Vibration     8          0.859              1.241              0.649
 Vibration     9          0.911              1.127              0.532

 Optimization completed.
    -- Stationary point found.
 Normal termination of Gaussian 09 at Tue Jan 28 03:40:21 2020.
