 Gaussian 09, Revision D.01,
 Gaussian 09:  ES64L-G09RevD.01 24-Apr-2013

 -----------------------------
 # b3lyp 6-31G(2df,p) opt Freq
 -----------------------------

 -----
 titel
 -----
 Symbolic Z-matrix:
 Charge =  0 Multiplicity = 1

 SCF Done:  E(RB3LYP) =  -423.177135046     A.U. after   14 cycles
 Optimization completed.
    -- Stationary point found.
 Normal termination of Gaussian 09 at Mon Jan 27 14:02:03 2020.

 ----------------------------------------------------------------------
 #N Geom=AllCheck Guess=TCheck SCRF=Check GenChk RB3LYP/6-31G(2df,p) Fr
 eq
 ----------------------------------------------------------------------

 Structure from the checkpoint file:  "/scratch/puck/g09_dc82743a-ed0f-4777-8104-18a8289088b8/Gau-158465.chk"
 -----
 titel
 -----
 Charge =  0 Multiplicity = 1

                         Standard orientation:
 ---------------------------------------------------------------------
 Center     Atomic      Atomic             Coordinates (Angstroms)
 Number     Number       Type             X           Y           Z
 ---------------------------------------------------------------------
      1          6           0       -3.700478   -0.511553   -0.495741
      2          6           0       -2.451762    0.063197   -0.013291
      3          6           0       -1.435643    0.565671    0.398428
      4          6           0       -0.179257    1.159377    0.845625
      5          6           0        0.989911    0.818578   -0.100066
      6          8           0        1.623139    1.684324   -0.650371
      7          6           0        1.312344   -0.673156   -0.315534
      8          6           0        2.809640   -0.922679   -0.153271
      9          8           0        0.626183   -1.528130    0.578499
     10          1           0       -3.565152   -1.001090   -1.466275
     11          1           0       -4.093512   -1.258066    0.202683
     12          1           0       -4.464934    0.262951   -0.619940
     13          1           0       -0.249016    2.249572    0.893526
     14          1           0        0.074988    0.782158    1.844440
     15          1           0        1.031681   -0.884999   -1.361288
     16          1           0        3.046144   -1.954031   -0.424340
     17          1           0        3.371268   -0.237128   -0.789677
     18          1           0        3.106220   -0.763911    0.888030
     19          1           0       -0.320786   -1.441615    0.410917
 ---------------------------------------------------------------------

 SCF Done:  E(RB3LYP) =  -423.177135046     A.U. after    1 cycles

 The electronic state is 1-A.
 Alpha  occ. eigenvalues --  -19.13841 -19.13771 -10.27463 -10.24179 -10.21743
 Alpha  occ. eigenvalues --  -10.21562 -10.19297 -10.18987 -10.17707  -1.05101
 Alpha  occ. eigenvalues --   -1.02229  -0.80632  -0.77152  -0.75689  -0.69250
 Alpha  occ. eigenvalues --   -0.63829  -0.55004  -0.52836  -0.49363  -0.48321
 Alpha  occ. eigenvalues --   -0.45750  -0.44987  -0.43825  -0.43671  -0.42280
 Alpha  occ. eigenvalues --   -0.39771  -0.38345  -0.37976  -0.36764  -0.33809
 Alpha  occ. eigenvalues --   -0.29954  -0.27877  -0.26650  -0.23306
 Alpha virt. eigenvalues --   -0.02251   0.04368   0.05038   0.08054   0.10398
 Alpha virt. eigenvalues --    0.12696   0.13419   0.15320   0.15654   0.16684
 Alpha virt. eigenvalues --    0.18010   0.18290   0.18468   0.19746   0.19868

 Mulliken charges:
               1
     1  C   -0.498930
     2  C    0.063586
     3  C    0.028279
     4  C   -0.423240
     5  C    0.364245
     6  O   -0.301269
     7  C    0.025978
     8  C   -0.376747
     9  O   -0.430622
    10  H    0.153040
    11  H    0.153532
    12  H    0.157035
    13  H    0.149139
    14  H    0.156340
    15  H    0.100751
    16  H    0.123942
    17  H    0.140723
    18  H    0.124993
    19  H    0.289224
 Sum of Mulliken charges =   0.00000

 Dipole moment (field-independent basis, Debye):
    X=             -2.4625    Y=             -1.0503    Z=              0.0366  Tot=              2.6774
 Quadrupole moment (field-independent basis, Debye-Ang):
   XX=            -47.1582   YY=            -57.7754   ZZ=            -52.8275
   XY=             -0.4332   XZ=              2.5852   YZ=              4.8209

  Exact polarizability: 107.597   8.202  73.237   3.807   2.996  62.369
 Approx polarizability: 142.763  22.613 111.195   8.889   2.022  97.716

                      1                      2                      3
                      A                      A                      A
 Frequencies --     30.3243                35.1977                63.4633
 Red. masses --      2.0905                 1.3173                 4.0524
 Frc consts  --      0.0011                 0.0010                 0.0096
 IR Inten    --      1.8768                 0.7983                 0.4913

                      4                      5                      6
                      A                      A                      A
 Frequencies --     87.3252               210.3440               221.0715
 Red. masses --      4.3111                 3.0391                 1.1907
 Frc consts  --      0.0194                 0.0792                 0.0343
 IR Inten    --      0.6045                 6.7738                 0.3714

                      7                      8                      9
                      A                      A                      A
 Frequencies --    228.8309               273.3663               299.3239
 Red. masses --      3.3133                 3.4223                 2.8305
 Frc consts  --      0.1022                 0.1507                 0.1494
 IR Inten    --      3.3379                13.4905                 9.4386

                     10                     11                     12
                      A                      A                      A
 Frequencies --    381.0608               405.7735               426.5428
 Red. masses --      4.0417                 3.4003                 5.6032
 Frc consts  --      0.3458                 0.3299                 0.6006
 IR Inten    --      0.5198                 3.8385                 4.3617

                     13                     14                     15
                      A                      A                      A
 Frequencies --    468.6544               483.6506               538.1132
 Red. masses --      4.2826                 1.0683                 4.5789
 Frc consts  --      0.5542                 0.1472                 0.7812
 IR Inten    --     11.4516               127.0237                 1.6680

                     16                     17                     18
                      A                      A                      A
 Frequencies --    667.3519               710.6992               798.5013
 Red. masses --      3.3496                 3.8410                 3.4092
 Frc consts  --      0.8789                 1.1431                 1.2807
 IR Inten    --      6.4364                 5.6724                 2.1507

                     19                     20                     21
                      A                      A                      A
 Frequencies --    905.2013               927.6922              1032.4117
 Red. masses --      1.8490                 2.1637                 1.8154
 Frc consts  --      0.8926                 1.0971                 1.1400
 IR Inten    --      1.5408                 4.7188                34.0015

                     22                     23                     24
                      A                      A                      A
 Frequencies --   1052.2643              1054.2169              1069.0896
 Red. masses --      1.4151                 1.4270                 1.7850
 Frc consts  --      0.9232                 0.9344                 1.2020
 IR Inten    --      2.3363                 1.1335                13.6009

                     25                     26                     27
                      A                      A                      A
 Frequencies --   1139.1875              1159.7729              1170.0551
 Red. masses --      3.0508                 3.0497                 2.1622
 Frc consts  --      2.3327                 2.4168                 1.7441
 IR Inten    --     50.2487                 2.1283                30.6697

                     28                     29                     30
                      A                      A                      A
 Frequencies --   1224.8649              1281.3469              1292.3118
 Red. masses --      1.4612                 1.2627                 1.4541
 Frc consts  --      1.2916                 1.2215                 1.4308
 IR Inten    --     54.2466                20.4363                15.9529

                     31                     32                     33
                      A                      A                      A
 Frequencies --   1338.8987              1391.5464              1412.9198
 Red. masses --      1.4516                 1.2230                 1.3736
 Frc consts  --      1.5332                 1.3953                 1.6156
 IR Inten    --     24.3175                 7.1102                20.5543

                     34                     35                     36
                      A                      A                      A
 Frequencies --   1417.4189              1444.1987              1477.4640
 Red. masses --      1.3056                 1.0907                 1.0392
 Frc consts  --      1.5455                 1.3403                 1.3365
 IR Inten    --      4.5969                 7.3207                 5.8315

                     37                     38                     39
                      A                      A                      A
 Frequencies --   1478.0490              1486.9106              1498.8719
 Red. masses --      1.0395                 1.0486                 1.0529
 Frc consts  --      1.3380                 1.3659                 1.3937
 IR Inten    --      6.4272                 7.2070                 1.0593

                     40                     41                     42
                      A                      A                      A
 Frequencies --   1818.4759              2359.4127              2960.9203
 Red. masses --     12.0757                11.8015                 1.0808
 Frc consts  --     23.5276                38.7074                 5.5830
 IR Inten    --    166.7197                 0.8518                27.4921

                     43                     44                     45
                      A                      A                      A
 Frequencies --   3030.4782              3032.0519              3052.2750
 Red. masses --      1.0352                 1.0606                 1.0355
 Frc consts  --      5.6014                 5.7447                 5.6840
 IR Inten    --     21.5173                11.1406                17.3539

                     46                     47                     48
                      A                      A                      A
 Frequencies --   3092.2737              3094.0516              3097.3281
 Red. masses --      1.1003                 1.1003                 1.0987
 Frc consts  --      6.1989                 6.2062                 6.2100
 IR Inten    --      8.1001                 8.0354                 2.4562

                     49                     50                     51
                      A                      A                      A
 Frequencies --   3124.7420              3151.8063              3764.0772
 Red. masses --      1.1012                 1.1021                 1.0658
 Frc consts  --      6.3351                 6.4506                 8.8973
 IR Inten    --     18.4633                 7.9251                94.1238

 - Thermochemistry -
 -------------------
 Temperature   298.150 Kelvin.  Pressure   1.00000 Atm.
 Atom     1 has atomic number  6 and mass  12.00000

 Molecular mass:   126.06808 amu.
 Principal axes and moments of inertia in atomic units:
                           1         2         3
     Eigenvalues --   652.700271985.659892371.85891
           X            0.99994  -0.00709   0.00871
           Y            0.00665   0.99873   0.04992
           Z           -0.00905  -0.04986   0.99872
 This molecule is an asymmetric top.
 Rotational symmetry number  1.
 Warning -- assumption of classical behavior for rotation
           may cause significant error
 Rotational temperatures (Kelvin)      0.13270     0.04362     0.03652
 Rotational constants (GHZ):           2.76504     0.90889     0.76090
 Zero-point vibrational energy     407700.4 (Joules/Mol)
                                   97.44273 (Kcal/Mol)
 Warning -- explicit consideration of  15 degrees of freedom as
           vibrations may cause significant error
 Vibrational temperatures:     43.63    50.64    91.31   125.64   302.64
          (Kelvin)            318.07   329.24   393.31   430.66   548.26
                              583.82   613.70   674.29   695.86   774.22
                              960.17  1022.54  1148.86  1302.38  1334.74
                             1485.41  1513.97  1516.78  1538.18  1639.03
                             1668.65  1683.45  1762.31  1843.57  1859.35
                             1926.37  2002.12  2032.87  2039.35  2077.88
                             2125.74  2126.58  2139.33  2156.54  2616.38
                             3394.66  4260.10  4360.18  4362.44  4391.54
                             4449.09  4451.64  4456.36  4495.80  4534.74
                             5415.66

 Zero-point correction=                           0.155285 (Hartree/Particle)
 Thermal correction to Energy=                    0.166185
 Thermal correction to Enthalpy=                  0.167129
 Thermal correction to Gibbs Free Energy=         0.117317
 Sum of electronic and zero-point Energies=           -423.021850
 Sum of electronic and thermal Energies=              -423.010950
 Sum of electronic and thermal Enthalpies=            -423.010006
 Sum of electronic and thermal Free Energies=         -423.059818

                     E (Thermal)             CV                S
                      KCal/Mol        Cal/Mol-Kelvin    Cal/Mol-Kelvin
 Total                  104.283             37.524            104.839
 Electronic               0.000              0.000              0.000
 Translational            0.889              2.981             40.409
 Rotational               0.889              2.981             29.509
 Vibrational            102.505             31.563             34.921
 Vibration     1          0.594              1.984              5.808
 Vibration     2          0.594              1.982              5.513
 Vibration     3          0.597              1.972              4.347
 Vibration     4          0.601              1.958              3.719
 Vibration     5          0.643              1.825              2.041
 Vibration     6          0.648              1.809              1.950
 Vibration     7          0.652              1.797              1.888
 Vibration     8          0.676              1.722              1.575
 Vibration     9          0.692              1.675              1.421
 Vibration    10          0.751              1.511              1.035
 Vibration    11          0.771              1.458              0.942
 Vibration    12          0.788              1.412              0.870
 Vibration    13          0.826              1.320              0.741
 Vibration    14          0.840              1.286              0.700
 Vibration    15          0.893              1.166              0.569

 Optimization completed.
    -- Stationary point found.
 Normal termination of Gaussian 09 at Mon Jan 27 14:37:14 2020.
