 Gaussian 09, Revision D.01,
 Gaussian 09:  ES64L-G09RevD.01 24-Apr-2013

 -----------------------------
 # b3lyp 6-31G(2df,p) opt Freq
 -----------------------------

 -----
 titel
 -----
 Symbolic Z-matrix:
 Charge =  0 Multiplicity = 1

 SCF Done:  E(RB3LYP) =  -423.202382379     A.U. after   14 cycles
 Optimization completed.
    -- Stationary point found.
 Normal termination of Gaussian 09 at Tue Jan 28 08:48:02 2020.

 ----------------------------------------------------------------------
 #N Geom=AllCheck Guess=TCheck SCRF=Check GenChk RB3LYP/6-31G(2df,p) Fr
 eq
 ----------------------------------------------------------------------

 Structure from the checkpoint file:  "/scratch/puck/g09_017c0abc-7522-4636-84fd-68de5f7dd1c2/Gau-129541.chk"
 -----
 titel
 -----
 Charge =  0 Multiplicity = 1

                         Standard orientation:
 ---------------------------------------------------------------------
 Center     Atomic      Atomic             Coordinates (Angstroms)
 Number     Number       Type             X           Y           Z
 ---------------------------------------------------------------------
      1          6           0        1.764235   -0.049917   -1.465282
      2          8           0        1.666151   -0.177687   -0.058650
      3          6           0        0.353892   -0.273068    0.472699
      4          6           0        0.537390   -0.250703    1.993096
      5          6           0       -0.437195   -1.465193   -0.017848
      6          6           0       -1.633565   -1.136342   -0.507990
      7          6           0       -1.895182    0.346534   -0.470990
      8          6           0       -0.564436    0.914419    0.040459
      9          8           0       -0.253203    2.074034    0.085919
     10          1           0        1.349905    0.903178   -1.820074
     11          1           0        2.829832   -0.077172   -1.703569
     12          1           0        1.261851   -0.872687   -1.992217
     13          1           0       -0.422825   -0.334238    2.509489
     14          1           0        1.174545   -1.085745    2.297741
     15          1           0        1.020060    0.686884    2.280715
     16          1           0       -0.042484   -2.472511    0.056920
     17          1           0       -2.363518   -1.842658   -0.887948
     18          1           0       -2.158248    0.783362   -1.442069
     19          1           0       -2.703537    0.626431    0.218002
 ---------------------------------------------------------------------

 SCF Done:  E(RB3LYP) =  -423.202382379     A.U. after    1 cycles

 The electronic state is 1-A.
 Alpha  occ. eigenvalues --  -19.14266 -19.13837 -10.26936 -10.24470 -10.22102
 Alpha  occ. eigenvalues --  -10.20096 -10.20065 -10.19068 -10.18013  -1.05274
 Alpha  occ. eigenvalues --   -1.02854  -0.84806  -0.76227  -0.70328  -0.67516
 Alpha  occ. eigenvalues --   -0.64349  -0.56324  -0.53347  -0.49080  -0.47608
 Alpha  occ. eigenvalues --   -0.45850  -0.45049  -0.44112  -0.42309  -0.41151
 Alpha  occ. eigenvalues --   -0.39766  -0.38017  -0.37536  -0.36761  -0.35769
 Alpha  occ. eigenvalues --   -0.31731  -0.27594  -0.26670  -0.23096
 Alpha virt. eigenvalues --   -0.02686   0.00244   0.09603   0.11762   0.12741
 Alpha virt. eigenvalues --    0.13400   0.15170   0.15908   0.16363   0.16893
 Alpha virt. eigenvalues --    0.17037   0.18591   0.18821   0.19666   0.21595

 Mulliken charges:
               1
     1  C   -0.255679
     2  O   -0.270846
     3  C    0.257471
     4  C   -0.428568
     5  C   -0.124388
     6  C   -0.082273
     7  C   -0.372501
     8  C    0.353546
     9  O   -0.312945
    10  H    0.122401
    11  H    0.129631
    12  H    0.107684
    13  H    0.117054
    14  H    0.125808
    15  H    0.143454
    16  H    0.106511
    17  H    0.106556
    18  H    0.136672
    19  H    0.140412
 Sum of Mulliken charges =   0.00000

 Dipole moment (field-independent basis, Debye):
    X=             -1.6186    Y=             -2.3422    Z=             -0.7183  Tot=              2.9363
 Quadrupole moment (field-independent basis, Debye-Ang):
   XX=            -51.0239   YY=            -58.0521   ZZ=            -50.1413
   XY=              0.1041   XZ=             -0.9427   YZ=             -0.3489

  Exact polarizability:  85.389  -0.798  75.060   5.168  -0.600  69.844
 Approx polarizability: 127.340  -2.521 116.335  11.734  -1.893  98.672

                      1                      2                      3
                      A                      A                      A
 Frequencies --     62.6697               103.6746               177.7181
 Red. masses --      3.4201                 1.8709                 1.7591
 Frc consts  --      0.0079                 0.0118                 0.0327
 IR Inten    --      2.8222                 2.6524                 1.4090

                      4                      5                      6
                      A                      A                      A
 Frequencies --    201.8638               227.7751               231.3271
 Red. masses --      2.3871                 1.3877                 1.5333
 Frc consts  --      0.0573                 0.0424                 0.0483
 IR Inten    --      3.2861                 1.3687                 1.2510

                      7                      8                      9
                      A                      A                      A
 Frequencies --    261.8252               317.2667               418.2299
 Red. masses --      2.8833                 4.4359                 2.8727
 Frc consts  --      0.1165                 0.2631                 0.2961
 IR Inten    --      2.0110                 2.5430                 1.2536

                     10                     11                     12
                      A                      A                      A
 Frequencies --    493.0859               509.0214               589.0373
 Red. masses --      2.1089                 3.9434                 5.2547
 Frc consts  --      0.3021                 0.6020                 1.0742
 IR Inten    --      2.0794                 1.3788                 8.7822

                     13                     14                     15
                      A                      A                      A
 Frequencies --    632.4382               671.4271               734.9348
 Red. masses --      2.8055                 5.6287                 2.3067
 Frc consts  --      0.6611                 1.4951                 0.7341
 IR Inten    --      1.2968                 2.6582                15.1277

                     16                     17                     18
                      A                      A                      A
 Frequencies --    752.4681               888.4496               919.7403
 Red. masses --      1.9424                 2.3867                 2.0918
 Frc consts  --      0.6480                 1.1100                 1.0426
 IR Inten    --     25.6313                18.1703                 2.1587

                     19                     20                     21
                      A                      A                      A
 Frequencies --    958.4367               967.3004               996.6660
 Red. masses --      1.8947                 2.0104                 1.3956
 Frc consts  --      1.0255                 1.1083                 0.8168
 IR Inten    --      4.6014                 5.9597                 1.0319

                     22                     23                     24
                      A                      A                      A
 Frequencies --   1049.0074              1087.2937              1125.6742
 Red. masses --      2.3755                 2.9483                 1.3193
 Frc consts  --      1.5401                 2.0536                 0.9849
 IR Inten    --     38.7782                 8.4176                 9.2048

                     25                     26                     27
                      A                      A                      A
 Frequencies --   1135.5249              1168.2653              1180.3785
 Red. masses --      2.3495                 1.9987                 1.4528
 Frc consts  --      1.7849                 1.6072                 1.1927
 IR Inten    --    103.8347                54.9304                 1.0215

                     28                     29                     30
                      A                      A                      A
 Frequencies --   1188.2214              1217.1918              1250.5267
 Red. masses --      1.6462                 2.6696                 2.0329
 Frc consts  --      1.3694                 2.3303                 1.8731
 IR Inten    --     22.3630                16.3024                12.6479

                     31                     32                     33
                      A                      A                      A
 Frequencies --   1285.5815              1376.7160              1397.4430
 Red. masses --      1.8061                 1.6964                 1.2908
 Frc consts  --      1.7587                 1.8944                 1.4852
 IR Inten    --      2.5267                 5.6441                 5.2630

                     34                     35                     36
                      A                      A                      A
 Frequencies --   1444.5195              1474.1062              1480.3014
 Red. masses --      1.0902                 1.1244                 1.0549
 Frc consts  --      1.3403                 1.4396                 1.3619
 IR Inten    --      9.2954                 0.2589                 2.3707

                     37                     38                     39
                      A                      A                      A
 Frequencies --   1489.7064              1491.6533              1512.2809
 Red. masses --      1.0552                 1.0658                 1.0486
 Frc consts  --      1.3797                 1.3972                 1.4129
 IR Inten    --      2.3424                 6.1729                 7.9261

                     40                     41                     42
                      A                      A                      A
 Frequencies --   1676.2742              1854.8107              2999.1051
 Red. masses --      6.5851                12.7204                 1.0348
 Frc consts  --     10.9019                25.7839                 5.4840
 IR Inten    --      2.9654               149.5303                43.2554

                     43                     44                     45
                      A                      A                      A
 Frequencies --   3025.3916              3043.9384              3054.8496
 Red. masses --      1.0622                 1.0332                 1.1034
 Frc consts  --      5.7282                 5.6404                 6.0669
 IR Inten    --     11.9234                13.6731                35.7964

                     46                     47                     48
                      A                      A                      A
 Frequencies --   3058.2325              3120.3341              3122.0815
 Red. masses --      1.0978                 1.0984                 1.1023
 Frc consts  --      6.0495                 6.3008                 6.3307
 IR Inten    --      7.6621                24.0140                16.6550

                     49                     50                     51
                      A                      A                      A
 Frequencies --   3130.5767              3182.0492              3205.2665
 Red. masses --      1.1028                 1.0852                 1.1032
 Frc consts  --      6.3679                 6.4739                 6.6775
 IR Inten    --     10.9651                 4.9308                14.1857

 - Thermochemistry -
 -------------------
 Temperature   298.150 Kelvin.  Pressure   1.00000 Atm.
 Atom     1 has atomic number  6 and mass  12.00000

 Molecular mass:   126.06808 amu.
 Principal axes and moments of inertia in atomic units:
                           1         2         3
     Eigenvalues --   891.859741117.590141208.62890
           X            0.99988   0.00770  -0.01375
           Y           -0.00825   0.99916  -0.04014
           Z            0.01343   0.04025   0.99910
 This molecule is an asymmetric top.
 Rotational symmetry number  1.
 Warning -- assumption of classical behavior for rotation
           may cause significant error
 Rotational temperatures (Kelvin)      0.09712     0.07750     0.07166
 Rotational constants (GHZ):           2.02357     1.61485     1.49321
 Zero-point vibrational energy     412368.7 (Joules/Mol)
                                   98.55848 (Kcal/Mol)
 Warning -- explicit consideration of  12 degrees of freedom as
           vibrations may cause significant error
 Vibrational temperatures:     90.17   149.16   255.70   290.44   327.72
          (Kelvin)            332.83   376.71   456.48   601.74   709.44
                              732.37   847.49   909.94   966.03  1057.41
                             1082.63  1278.28  1323.30  1378.97  1391.73
                             1433.98  1509.29  1564.37  1619.59  1633.77
                             1680.87  1698.30  1709.58  1751.27  1799.23
                             1849.66  1980.78  2010.61  2078.34  2120.91
                             2129.82  2143.35  2146.15  2175.83  2411.78
                             2668.66  4315.04  4352.86  4379.54  4395.24
                             4400.11  4489.46  4491.97  4504.20  4578.25
                             4611.66

 Zero-point correction=                           0.157063 (Hartree/Particle)
 Thermal correction to Energy=                    0.166329
 Thermal correction to Enthalpy=                  0.167273
 Thermal correction to Gibbs Free Energy=         0.123046
 Sum of electronic and zero-point Energies=           -423.045319
 Sum of electronic and thermal Energies=              -423.036054
 Sum of electronic and thermal Enthalpies=            -423.035109
 Sum of electronic and thermal Free Energies=         -423.079336

                     E (Thermal)             CV                S
                      KCal/Mol        Cal/Mol-Kelvin    Cal/Mol-Kelvin
 Total                  104.373             34.169             93.083
 Electronic               0.000              0.000              0.000
 Translational            0.889              2.981             40.409
 Rotational               0.889              2.981             28.579
 Vibrational            102.595             28.207             24.096
 Vibration     1          0.597              1.972              4.371
 Vibration     2          0.605              1.946              3.384
 Vibration     3          0.628              1.870              2.352
 Vibration     4          0.639              1.837              2.116
 Vibration     5          0.651              1.799              1.896
 Vibration     6          0.653              1.793              1.869
 Vibration     7          0.669              1.743              1.650
 Vibration     8          0.704              1.641              1.324
 Vibration     9          0.781              1.431              0.898
 Vibration    10          0.849              1.265              0.676
 Vibration    11          0.864              1.230              0.636
 Vibration    12          0.946              1.055              0.469

 Normal termination of Gaussian 09 at Tue Jan 28 09:31:33 2020.
