 Gaussian 09, Revision D.01,
 Gaussian 09:  ES64L-G09RevD.01 24-Apr-2013

 -----------------------------
 # b3lyp 6-31G(2df,p) opt Freq
 -----------------------------

 -----
 titel
 -----
 Symbolic Z-matrix:
 Charge =  0 Multiplicity = 1

 SCF Done:  E(RB3LYP) =  -423.123542040     A.U. after   14 cycles
 SCF Done:  E(RB3LYP) =  -423.123541794     A.U. after    7 cycles
 SCF Done:  E(RB3LYP) =  -423.123541680     A.U. after    7 cycles
 SCF Done:  E(RB3LYP) =  -423.123541960     A.U. after    7 cycles
 SCF Done:  E(RB3LYP) =  -423.123541989     A.U. after    6 cycles
 Optimization completed.
    -- Stationary point found.
 Normal termination of Gaussian 09 at Tue Jan 28 09:23:59 2020.

 ----------------------------------------------------------------------
 #N Geom=AllCheck Guess=TCheck SCRF=Check GenChk RB3LYP/6-31G(2df,p) Fr
 eq
 ----------------------------------------------------------------------

 Structure from the checkpoint file:  "/scratch/puck/g09_d1a5880f-365b-48be-8365-119276a90b2e/Gau-20009.chk"
 -----
 titel
 -----
 Charge =  0 Multiplicity = 1

                         Standard orientation:
 ---------------------------------------------------------------------
 Center     Atomic      Atomic             Coordinates (Angstroms)
 Number     Number       Type             X           Y           Z
 ---------------------------------------------------------------------
      1          6           0       -1.445794    1.890364   -0.123571
      2          8           0       -0.324158    1.115358   -0.506257
      3          6           0       -0.172653   -0.135958    0.154153
      4          6           0        0.450083    0.027158    1.578527
      5          6           0        1.862917   -0.010599    0.939158
      6          6           0        1.231426   -0.666344   -0.321703
      7          8           0        1.647532   -0.301309   -1.596977
      8          6           0       -1.333681   -0.998762   -0.000682
      9          6           0       -2.277223   -1.736311   -0.114802
     10          1           0       -1.417355    2.153883    0.942457
     11          1           0       -1.405559    2.807662   -0.714924
     12          1           0       -2.384625    1.363323   -0.331512
     13          1           0        0.161852    0.929443    2.120654
     14          1           0        0.240133   -0.844091    2.202312
     15          1           0        2.232978    0.991246    0.709873
     16          1           0        2.642640   -0.571852    1.456816
     17          1           0        1.261201   -1.757084   -0.257296
     18          1           0        1.298804    0.587710   -1.746298
     19          1           0       -3.107517   -2.389925   -0.222695
 ---------------------------------------------------------------------

 SCF Done:  E(RB3LYP) =  -423.123541989     A.U. after    1 cycles

 The electronic state is 1-A.
 Alpha  occ. eigenvalues --  -19.15809 -19.13129 -10.25833 -10.23352 -10.23052
 Alpha  occ. eigenvalues --  -10.19047 -10.18429 -10.18079 -10.18037  -1.05294
 Alpha  occ. eigenvalues --   -1.01448  -0.83988  -0.75514  -0.70873  -0.65703
 Alpha  occ. eigenvalues --   -0.64994  -0.57599  -0.54939  -0.51829  -0.50565
 Alpha  occ. eigenvalues --   -0.46896  -0.45447  -0.44170  -0.41371  -0.40436
 Alpha  occ. eigenvalues --   -0.38753  -0.35789  -0.35718  -0.33235  -0.31165
 Alpha  occ. eigenvalues --   -0.28639  -0.27651  -0.26077  -0.24973
 Alpha virt. eigenvalues --    0.03131   0.04035   0.09061   0.09399   0.11602
 Alpha virt. eigenvalues --    0.12432   0.12958   0.15154   0.15896   0.16392
 Alpha virt. eigenvalues --    0.17215   0.17915   0.19654   0.20207   0.21426

 Mulliken charges:
               1
     1  C   -0.253372
     2  O   -0.299767
     3  C    0.178109
     4  C   -0.278415
     5  C   -0.272468
     6  C    0.131069
     7  O   -0.430546
     8  C    0.272346
     9  C   -0.447553
    10  H    0.111672
    11  H    0.130382
    12  H    0.129492
    13  H    0.110874
    14  H    0.117430
    15  H    0.109720
    16  H    0.102517
    17  H    0.099415
    18  H    0.292936
    19  H    0.196159
 Sum of Mulliken charges =   0.00000

 Dipole moment (field-independent basis, Debye):
    X=             -1.3776    Y=              0.9005    Z=              1.6475  Tot=              2.3288
 Quadrupole moment (field-independent basis, Debye-Ang):
   XX=            -51.6296   YY=            -48.5964   ZZ=            -55.6464
   XY=              1.5582   XZ=              3.0386   YZ=             -1.8719

  Exact polarizability:  89.464   8.622  79.190   3.703  -0.135  65.615
 Approx polarizability: 128.212  20.266 116.313   2.288  -0.294  96.214

                      1                      2                      3
                      A                      A                      A
 Frequencies --    102.1875               114.3343               141.2871
 Red. masses --      2.4255                 2.5216                 3.4305
 Frc consts  --      0.0149                 0.0194                 0.0403
 IR Inten    --      2.0008                 1.1608                 0.3836

                      4                      5                      6
                      A                      A                      A
 Frequencies --    166.3557               193.4006               213.2302
 Red. masses --      1.7478                 2.6280                 2.3520
 Frc consts  --      0.0285                 0.0579                 0.0630
 IR Inten    --      0.4601                 2.4801                 1.8894

                      7                      8                      9
                      A                      A                      A
 Frequencies --    321.0126               368.5569               403.9210
 Red. masses --      3.2262                 3.0700                 3.4312
 Frc consts  --      0.1959                 0.2457                 0.3298
 IR Inten    --      9.1313                 3.0101                 2.5891

                     10                     11                     12
                      A                      A                      A
 Frequencies --    433.9985               487.9088               527.7691
 Red. masses --      1.2768                 3.8303                 4.0270
 Frc consts  --      0.1417                 0.5372                 0.6609
 IR Inten    --    103.5146                 4.1934                 9.8316

                     13                     14                     15
                      A                      A                      A
 Frequencies --    605.2215               609.0941               621.4118
 Red. masses --      4.5048                 3.1089                 1.3011
 Frc consts  --      0.9722                 0.6796                 0.2960
 IR Inten    --      3.5948                 8.0548                38.3178

                     16                     17                     18
                      A                      A                      A
 Frequencies --    666.9216               708.3384               780.9661
 Red. masses --      1.2580                 2.4294                 1.6316
 Frc consts  --      0.3297                 0.7182                 0.5863
 IR Inten    --     34.5478                 8.4166                 2.9937

                     19                     20                     21
                      A                      A                      A
 Frequencies --    877.6556               928.8286               958.7627
 Red. masses --      2.0502                 2.8263                 2.1536
 Frc consts  --      0.9305                 1.4366                 1.1664
 IR Inten    --     10.8984                 7.3134                 7.4018

                     22                     23                     24
                      A                      A                      A
 Frequencies --   1016.9520              1081.1334              1095.9926
 Red. masses --      4.7341                 3.6641                 1.8895
 Frc consts  --      2.8846                 2.5234                 1.3372
 IR Inten    --     13.9428                10.9663                40.9056

                     25                     26                     27
                      A                      A                      A
 Frequencies --   1137.6505              1154.0277              1167.5917
 Red. masses --      3.7991                 2.4609                 2.6708
 Frc consts  --      2.8970                 1.9310                 2.1452
 IR Inten    --    124.0028                40.5735               119.4080

                     28                     29                     30
                      A                      A                      A
 Frequencies --   1184.8131              1213.8754              1222.5706
 Red. masses --      1.2896                 1.4307                 1.5932
 Frc consts  --      1.0666                 1.2421                 1.4030
 IR Inten    --      2.6166                14.7684                20.8506

                     31                     32                     33
                      A                      A                      A
 Frequencies --   1236.2728              1258.2065              1292.9712
 Red. masses --      1.2984                 1.4796                 1.6671
 Frc consts  --      1.1692                 1.3801                 1.6421
 IR Inten    --      8.1683                 6.9853                10.7363

                     34                     35                     36
                      A                      A                      A
 Frequencies --   1344.0529              1441.4667              1466.5495
 Red. masses --      1.5293                 1.2021                 1.1031
 Frc consts  --      1.6278                 1.4716                 1.3979
 IR Inten    --      9.7947                80.9000                 4.5841

                     37                     38                     39
                      A                      A                      A
 Frequencies --   1479.4623              1485.9464              1489.6353
 Red. masses --      1.1190                 1.0871                 1.1016
 Frc consts  --      1.4431                 1.4143                 1.4402
 IR Inten    --      4.3434                 0.6260                13.9231

                     40                     41                     42
                      A                      A                      A
 Frequencies --   1511.4623              2225.3576              3006.2862
 Red. masses --      1.0548                 5.9539                 1.0359
 Frc consts  --      1.4198                17.3720                 5.5158
 IR Inten    --     10.5816                 1.2441                45.2984

                     43                     44                     45
                      A                      A                      A
 Frequencies --   3068.5314              3073.0240              3078.4603
 Red. masses --      1.0985                 1.0593                 1.0622
 Frc consts  --      6.0941                 5.8941                 5.9308
 IR Inten    --     34.9554                24.3685                23.8587

                     46                     47                     48
                      A                      A                      A
 Frequencies --   3083.7105              3124.6752              3125.1745
 Red. masses --      1.0842                 1.1055                 1.1035
 Frc consts  --      6.0745                 6.3592                 6.3497
 IR Inten    --     14.2165                 7.7156                21.3016

                     49                     50                     51
                      A                      A                      A
 Frequencies --   3139.7480              3499.7162              3766.0757
 Red. masses --      1.1078                 1.1611                 1.0646
 Frc consts  --      6.4344                 8.3789                 8.8961
 IR Inten    --     35.8099                69.7896                43.2754

 - Thermochemistry -
 -------------------
 Temperature   298.150 Kelvin.  Pressure   1.00000 Atm.
 Atom     1 has atomic number  6 and mass  12.00000

 Molecular mass:   126.06808 amu.
 Principal axes and moments of inertia in atomic units:
                           1         2         3
     Eigenvalues --   885.932281268.862211413.96042
           X            0.99891  -0.03317   0.03280
           Y            0.03359   0.99936  -0.01221
           Z           -0.03238   0.01330   0.99939
 This molecule is an asymmetric top.
 Rotational symmetry number  1.
 Warning -- assumption of classical behavior for rotation
           may cause significant error
 Rotational temperatures (Kelvin)      0.09777     0.06826     0.06126
 Rotational constants (GHZ):           2.03711     1.42233     1.27637
 Zero-point vibrational energy     410932.5 (Joules/Mol)
                                   98.21523 (Kcal/Mol)
 Warning -- explicit consideration of  14 degrees of freedom as
           vibrations may cause significant error
 Vibrational temperatures:    147.02   164.50   203.28   239.35   278.26
          (Kelvin)            306.79   461.86   530.27   581.15   624.43
                              701.99   759.34   870.78   876.35   894.07
                              959.55  1019.14  1123.63  1262.75  1336.38
                             1379.44  1463.17  1555.51  1576.89  1636.82
                             1660.39  1679.90  1704.68  1746.49  1759.00
                             1778.72  1810.28  1860.29  1933.79  2073.95
                             2110.03  2128.61  2137.94  2143.25  2174.65
                             3201.79  4325.37  4414.93  4421.39  4429.21
                             4436.77  4495.71  4496.42  4517.39  5035.30
                             5418.54

 Zero-point correction=                           0.156516 (Hartree/Particle)
 Thermal correction to Energy=                    0.166137
 Thermal correction to Enthalpy=                  0.167081
 Thermal correction to Gibbs Free Energy=         0.122400
 Sum of electronic and zero-point Energies=           -422.967026
 Sum of electronic and thermal Energies=              -422.957405
 Sum of electronic and thermal Enthalpies=            -422.956461
 Sum of electronic and thermal Free Energies=         -423.001142

                     E (Thermal)             CV                S
                      KCal/Mol        Cal/Mol-Kelvin    Cal/Mol-Kelvin
 Total                  104.253             36.009             94.039
 Electronic               0.000              0.000              0.000
 Translational            0.889              2.981             40.409
 Rotational               0.889              2.981             28.854
 Vibrational            102.475             30.048             24.776
 Vibration     1          0.604              1.947              3.412
 Vibration     2          0.607              1.938              3.194
 Vibration     3          0.615              1.912              2.786
 Vibration     4          0.624              1.884              2.476
 Vibration     5          0.635              1.849              2.195
 Vibration     6          0.644              1.821              2.016
 Vibration     7          0.706              1.633              1.305
 Vibration     8          0.741              1.537              1.086
 Vibration     9          0.769              1.462              0.948
 Vibration    10          0.795              1.396              0.846
 Vibration    11          0.844              1.277              0.689
 Vibration    12          0.883              1.189              0.592
 Vibration    13          0.964              1.021              0.441
 Vibration    14          0.968              1.013              0.434

 Optimization completed.
    -- Stationary point found.
 Normal termination of Gaussian 09 at Tue Jan 28 10:06:20 2020.
