 Gaussian 09, Revision D.01,
 Gaussian 09:  ES64L-G09RevD.01 24-Apr-2013

 -----------------------------
 # b3lyp 6-31G(2df,p) opt Freq
 -----------------------------

 -----
 titel
 -----
 Symbolic Z-matrix:
 Charge =  0 Multiplicity = 1

 SCF Done:  E(RB3LYP) =  -423.177068513     A.U. after   14 cycles
 Optimization completed.
    -- Stationary point found.
 Normal termination of Gaussian 09 at Mon Jan 27 18:34:03 2020.

 ----------------------------------------------------------------------
 #N Geom=AllCheck Guess=TCheck SCRF=Check GenChk RB3LYP/6-31G(2df,p) Fr
 eq
 ----------------------------------------------------------------------

 Structure from the checkpoint file:  "/scratch/puck/g09_fab9a60e-4148-40a1-809b-c32646b7b0ed/Gau-171795.chk"
 -----
 titel
 -----
 Charge =  0 Multiplicity = 1

                         Standard orientation:
 ---------------------------------------------------------------------
 Center     Atomic      Atomic             Coordinates (Angstroms)
 Number     Number       Type             X           Y           Z
 ---------------------------------------------------------------------
      1          6           0       -2.005854   -0.462895   -1.104862
      2          6           0       -0.905644   -0.413895   -0.070384
      3          6           0       -1.199946    0.159363    1.325607
      4          8           0        0.000323    0.967015    1.312910
      5          6           0        0.295385    0.616713   -0.067742
      6          6           0        0.530859    1.801979   -0.958294
      7          6           0        1.270003   -0.584809   -0.048733
      8          8           0        2.460762   -0.686090   -0.089314
      9          6           0        0.106638   -1.597637   -0.010802
     10          1           0       -2.531178    0.495222   -1.176834
     11          1           0       -1.610603   -0.704898   -2.097403
     12          1           0       -2.747747   -1.229723   -0.852366
     13          1           0       -2.096573    0.790976    1.378072
     14          1           0       -1.214762   -0.552569    2.159585
     15          1           0        1.426872    2.337158   -0.627687
     16          1           0        0.689301    1.487111   -1.994745
     17          1           0       -0.316742    2.492956   -0.923337
     18          1           0        0.101704   -2.225902   -0.908472
     19          1           0        0.062402   -2.250645    0.865681
 ---------------------------------------------------------------------

 SCF Done:  E(RB3LYP) =  -423.177068513     A.U. after    1 cycles

 The electronic state is 1-A.
 Alpha  occ. eigenvalues --  -19.14643 -19.14017 -10.26767 -10.24266 -10.23731
 Alpha  occ. eigenvalues --  -10.20989 -10.19605 -10.19265 -10.18628  -1.05667
 Alpha  occ. eigenvalues --   -1.04058  -0.83614  -0.76023  -0.73234  -0.67829
 Alpha  occ. eigenvalues --   -0.63814  -0.56719  -0.50470  -0.49537  -0.48485
 Alpha  occ. eigenvalues --   -0.46520  -0.43748  -0.42929  -0.42234  -0.41091
 Alpha  occ. eigenvalues --   -0.40803  -0.39577  -0.39338  -0.36995  -0.34685
 Alpha  occ. eigenvalues --   -0.31378  -0.29032  -0.28046  -0.23001
 Alpha virt. eigenvalues --   -0.02910   0.06967   0.08809   0.11559   0.11927
 Alpha virt. eigenvalues --    0.12351   0.12964   0.14380   0.15523   0.15979
 Alpha virt. eigenvalues --    0.16480   0.17508   0.18095   0.21120   0.21868

 Mulliken charges:
               1
     1  C   -0.497892
     2  C    0.232151
     3  C   -0.118305
     4  O   -0.324680
     5  C    0.283948
     6  C   -0.489206
     7  C    0.396321
     8  O   -0.298675
     9  C   -0.424828
    10  H    0.123885
    11  H    0.121905
    12  H    0.127223
    13  H    0.101829
    14  H    0.104961
    15  H    0.149371
    16  H    0.124776
    17  H    0.125481
    18  H    0.131918
    19  H    0.129814
 Sum of Mulliken charges =   0.00000

 Dipole moment (field-independent basis, Debye):
    X=             -3.4323    Y=             -0.5173    Z=             -1.2133  Tot=              3.6770
 Quadrupole moment (field-independent basis, Debye-Ang):
   XX=            -59.4562   YY=            -52.0459   ZZ=            -52.8273
   XY=              2.1594   XZ=             -1.2716   YZ=             -2.3966

  Exact polarizability:  82.601   0.631  75.756  -3.229  -1.666  68.579
 Approx polarizability: 122.994   0.492 107.658  -5.658   1.328 101.642

                      1                      2                      3
                      A                      A                      A
 Frequencies --     72.7254               167.1185               174.1062
 Red. masses --      3.5916                 1.8522                 2.1268
 Frc consts  --      0.0112                 0.0305                 0.0380
 IR Inten    --      2.4313                 3.7933                 0.0323

                      4                      5                      6
                      A                      A                      A
 Frequencies --    179.0739               203.2200               269.8617
 Red. masses --      1.6301                 1.0742                 4.2613
 Frc consts  --      0.0308                 0.0261                 0.1828
 IR Inten    --      2.5722                 0.1156                 1.0138

                      7                      8                      9
                      A                      A                      A
 Frequencies --    316.7896               330.0245               387.0701
 Red. masses --      2.2062                 2.2585                 2.8114
 Frc consts  --      0.1304                 0.1449                 0.2482
 IR Inten    --      0.3894                 0.3826                 4.0140

                     10                     11                     12
                      A                      A                      A
 Frequencies --    494.5673               530.8469               586.3901
 Red. masses --      2.9894                 2.2717                 4.5090
 Frc consts  --      0.4308                 0.3772                 0.9135
 IR Inten    --      1.6253                 5.5299                 2.1984

                     13                     14                     15
                      A                      A                      A
 Frequencies --    623.9311               682.6333               802.2650
 Red. masses --      3.4551                 3.8291                 2.3056
 Frc consts  --      0.7925                 1.0513                 0.8743
 IR Inten    --      0.1182                 2.7830                 0.7203

                     16                     17                     18
                      A                      A                      A
 Frequencies --    826.3048               868.1829               905.6409
 Red. masses --      2.6306                 2.7618                 1.8855
 Frc consts  --      1.0582                 1.2265                 0.9111
 IR Inten    --      3.5217                22.6674                 3.1193

                     19                     20                     21
                      A                      A                      A
 Frequencies --    955.1715               993.9137              1008.1553
 Red. masses --      1.7612                 1.5740                 6.2640
 Frc consts  --      0.9467                 0.9161                 3.7511
 IR Inten    --      0.9688                 4.2093                61.0196

                     22                     23                     24
                      A                      A                      A
 Frequencies --   1040.7580              1061.1643              1125.8043
 Red. masses --      4.2347                 1.4283                 2.1096
 Frc consts  --      2.7025                 0.9476                 1.5754
 IR Inten    --     59.4521                 5.8866                13.2797

                     25                     26                     27
                      A                      A                      A
 Frequencies --   1135.9116              1155.5722              1170.1879
 Red. masses --      1.9767                 1.5928                 1.9045
 Frc consts  --      1.5028                 1.2532                 1.5365
 IR Inten    --      4.0555                 7.7831                16.0677

                     28                     29                     30
                      A                      A                      A
 Frequencies --   1201.8483              1251.9218              1286.8901
 Red. masses --      1.5849                 2.7320                 2.1090
 Frc consts  --      1.3488                 2.5228                 2.0579
 IR Inten    --      2.7188                 1.8470                 5.4358

                     31                     32                     33
                      A                      A                      A
 Frequencies --   1301.5656              1364.5443              1404.2640
 Red. masses --      4.0789                 1.7660                 1.3610
 Frc consts  --      4.0712                 1.9373                 1.5813
 IR Inten    --      1.7374                 0.8518                 7.4212

                     34                     35                     36
                      A                      A                      A
 Frequencies --   1415.5922              1433.8573              1475.3690
 Red. masses --      1.2905                 1.1120                 1.0541
 Frc consts  --      1.5236                 1.3469                 1.3519
 IR Inten    --      3.3416                 9.9080                 3.4692

                     37                     38                     39
                      A                      A                      A
 Frequencies --   1482.2884              1492.4220              1494.8494
 Red. masses --      1.0539                 1.0530                 1.0509
 Frc consts  --      1.3644                 1.3819                 1.3836
 IR Inten    --      3.0060                 4.2350                 6.3915

                     40                     41                     42
                      A                      A                      A
 Frequencies --   1522.3016              1890.3172              3006.9746
 Red. masses --      1.0982                12.8930                 1.0565
 Frc consts  --      1.4994                27.1440                 5.6285
 IR Inten    --      0.6483               248.3151                67.8295

                     43                     44                     45
                      A                      A                      A
 Frequencies --   3025.1357              3036.7010              3047.5158
 Red. masses --      1.0362                 1.0346                 1.0594
 Frc consts  --      5.5872                 5.6209                 5.7969
 IR Inten    --     26.1833                11.2315                 8.0621

                     46                     47                     48
                      A                      A                      A
 Frequencies --   3056.1846              3087.4681              3097.4515
 Red. masses --      1.1089                 1.1002                 1.1016
 Frc consts  --      6.1022                 6.1789                 6.2270
 IR Inten    --     35.4316                17.6662                19.2722

                     49                     50                     51
                      A                      A                      A
 Frequencies --   3102.0856              3110.1068              3113.4536
 Red. masses --      1.1044                 1.1005                 1.1022
 Frc consts  --      6.2615                 6.2720                 6.2950
 IR Inten    --      9.1512                11.9748                14.5142

 - Thermochemistry -
 -------------------
 Temperature   298.150 Kelvin.  Pressure   1.00000 Atm.
 Atom     1 has atomic number  6 and mass  12.00000

 Molecular mass:   126.06808 amu.
 Principal axes and moments of inertia in atomic units:
                           1         2         3
     Eigenvalues --   811.072861125.395791265.83509
           X            0.99801   0.06281   0.00603
           Y           -0.06162   0.99074  -0.12100
           Z           -0.01357   0.12039   0.99263
 This molecule is an asymmetric top.
 Rotational symmetry number  1.
 Warning -- assumption of classical behavior for rotation
           may cause significant error
 Rotational temperatures (Kelvin)      0.10679     0.07696     0.06842
 Rotational constants (GHZ):           2.22513     1.60365     1.42573
 Zero-point vibrational energy     411327.0 (Joules/Mol)
                                   98.30950 (Kcal/Mol)
 Warning -- explicit consideration of  12 degrees of freedom as
           vibrations may cause significant error
 Vibrational temperatures:    104.64   240.45   250.50   257.65   292.39
          (Kelvin)            388.27   455.79   474.83   556.91   711.57
                              763.77   843.68   897.70   982.16  1154.28
                             1188.87  1249.12  1303.01  1374.28  1430.02
                             1450.51  1497.42  1526.78  1619.78  1634.32
                             1662.61  1683.64  1729.19  1801.23  1851.55
                             1872.66  1963.27  2020.42  2036.72  2063.00
                             2122.72  2132.68  2147.26  2150.75  2190.25
                             2719.74  4326.36  4352.49  4369.13  4384.69
                             4397.16  4442.17  4456.54  4463.20  4474.74
                             4479.56

 Zero-point correction=                           0.156666 (Hartree/Particle)
 Thermal correction to Energy=                    0.165716
 Thermal correction to Enthalpy=                  0.166660
 Thermal correction to Gibbs Free Energy=         0.123139
 Sum of electronic and zero-point Energies=           -423.020402
 Sum of electronic and thermal Energies=              -423.011353
 Sum of electronic and thermal Enthalpies=            -423.010409
 Sum of electronic and thermal Free Energies=         -423.053929

                     E (Thermal)             CV                S
                      KCal/Mol        Cal/Mol-Kelvin    Cal/Mol-Kelvin
 Total                  103.988             33.816             91.596
 Electronic               0.000              0.000              0.000
 Translational            0.889              2.981             40.409
 Rotational               0.889              2.981             28.537
 Vibrational            102.211             27.854             22.651
 Vibration     1          0.599              1.967              4.078
 Vibration     2          0.624              1.883              2.468
 Vibration     3          0.627              1.874              2.391
 Vibration     4          0.629              1.868              2.338
 Vibration     5          0.639              1.835              2.104
 Vibration     6          0.674              1.729              1.597
 Vibration     7          0.704              1.642              1.327
 Vibration     8          0.713              1.616              1.260
 Vibration     9          0.755              1.498              1.011
 Vibration    10          0.850              1.262              0.672
 Vibration    11          0.886              1.182              0.585
 Vibration    12          0.943              1.061              0.474

 Normal termination of Gaussian 09 at Mon Jan 27 19:17:59 2020.
