 Gaussian 09, Revision D.01,
 Gaussian 09:  ES64L-G09RevD.01 24-Apr-2013

 -----------------------------
 # b3lyp 6-31G(2df,p) opt Freq
 -----------------------------

 -----
 titel
 -----
 Symbolic Z-matrix:
 Charge =  0 Multiplicity = 1

 SCF Done:  E(RB3LYP) =  -423.135886684     A.U. after   12 cycles
 Optimization completed.
    -- Stationary point found.
 Normal termination of Gaussian 09 at Tue Jan 28 02:55:56 2020.

 ----------------------------------------------------------------------
 #N Geom=AllCheck Guess=TCheck SCRF=Check GenChk RB3LYP/6-31G(2df,p) Fr
 eq
 ----------------------------------------------------------------------

 Structure from the checkpoint file:  "/scratch/puck/g09_11fcf7dd-e495-431d-a7f6-5c47408862d7/Gau-89743.chk"
 -----
 titel
 -----
 Charge =  0 Multiplicity = 1

                         Standard orientation:
 ---------------------------------------------------------------------
 Center     Atomic      Atomic             Coordinates (Angstroms)
 Number     Number       Type             X           Y           Z
 ---------------------------------------------------------------------
      1          6           0        2.756170    0.592790    0.345681
      2          6           0        1.386571    0.369934   -0.264300
      3          8           0        1.236667   -0.991571   -0.754830
      4          6           0        0.139483   -1.250385    0.133588
      5          6           0       -1.214317   -0.937404   -0.484470
      6          6           0       -2.171160   -0.507746    0.608231
      7          6           0       -1.154195    0.474617    0.097688
      8          8           0       -1.500996    1.652387   -0.540531
      9          6           0        0.209405    0.201251    0.722304
     10          1           0        2.935115   -0.102799    1.171710
     11          1           0        3.535112    0.437471   -0.407130
     12          1           0        2.843348    1.617087    0.725434
     13          1           0        1.195367    1.097744   -1.062489
     14          1           0        0.264598   -2.177296    0.700673
     15          1           0       -1.552280   -1.266418   -1.459043
     16          1           0       -3.181743   -0.318408    0.260442
     17          1           0       -2.107945   -0.929343    1.609593
     18          1           0       -1.916514    2.237274    0.102725
     19          1           0        0.387836    0.459824    1.768644
 ---------------------------------------------------------------------

 SCF Done:  E(RB3LYP) =  -423.135886684     A.U. after    1 cycles

 The electronic state is 1-A.
 Alpha  occ. eigenvalues --  -19.15180 -19.12523 -10.24361 -10.23430 -10.22895
 Alpha  occ. eigenvalues --  -10.19070 -10.18929 -10.18882 -10.17358  -1.04265
 Alpha  occ. eigenvalues --   -1.02986  -0.88091  -0.75616  -0.71559  -0.65244
 Alpha  occ. eigenvalues --   -0.60291  -0.58443  -0.53621  -0.51299  -0.48783
 Alpha  occ. eigenvalues --   -0.48205  -0.45794  -0.42371  -0.41153  -0.38512
 Alpha  occ. eigenvalues --   -0.38296  -0.37681  -0.36920  -0.33897  -0.31329
 Alpha  occ. eigenvalues --   -0.29603  -0.26422  -0.25728  -0.23999
 Alpha virt. eigenvalues --    0.07285   0.08964   0.10724   0.11502   0.12396
 Alpha virt. eigenvalues --    0.13353   0.14622   0.15162   0.16127   0.16783
 Alpha virt. eigenvalues --    0.17549   0.17895   0.19531   0.20875   0.23080

 Mulliken charges:
               1
     1  C   -0.409481
     2  C    0.150999
     3  O   -0.313737
     4  C    0.131149
     5  C   -0.141336
     6  C   -0.360568
     7  C    0.402488
     8  O   -0.467049
     9  C   -0.194440
    10  H    0.117809
    11  H    0.126826
    12  H    0.112692
    13  H    0.091169
    14  H    0.076598
    15  H    0.103315
    16  H    0.117823
    17  H    0.104571
    18  H    0.286302
    19  H    0.064868
 Sum of Mulliken charges =   0.00000

 Dipole moment (field-independent basis, Debye):
    X=             -1.1394    Y=              1.0957    Z=              2.1640  Tot=              2.6799
 Quadrupole moment (field-independent basis, Debye-Ang):
   XX=            -50.7687   YY=            -51.6904   ZZ=            -54.0140
   XY=              0.7898   XZ=             -0.3293   YZ=              1.0543

  Exact polarizability:  88.189   3.295  73.022  -0.933  -0.179  64.640
 Approx polarizability: 111.280   1.165 113.152  -3.536   2.079 102.128

                      1                      2                      3
                      A                      A                      A
 Frequencies --    112.9215               171.1593               228.4821
 Red. masses --      3.6688                 3.1704                 1.6701
 Frc consts  --      0.0276                 0.0547                 0.0514
 IR Inten    --      1.5735                 1.8276                 0.9917

                      4                      5                      6
                      A                      A                      A
 Frequencies --    241.3270               259.3457               323.7393
 Red. masses --      1.2899                 1.5167                 2.2837
 Frc consts  --      0.0443                 0.0601                 0.1410
 IR Inten    --     13.8678                67.6384                11.4827

                      7                      8                      9
                      A                      A                      A
 Frequencies --    399.5203               415.6885               488.6362
 Red. masses --      2.8613                 2.6791                 3.6040
 Frc consts  --      0.2691                 0.2728                 0.5070
 IR Inten    --      4.0697                11.4393                 2.0560

                     10                     11                     12
                      A                      A                      A
 Frequencies --    508.6449               593.9137               774.2716
 Red. masses --      4.6444                 3.6804                 2.7552
 Frc consts  --      0.7080                 0.7649                 0.9732
 IR Inten    --      9.8692                 2.7484                 0.5727

                     13                     14                     15
                      A                      A                      A
 Frequencies --    819.2958               822.7335               845.3462
 Red. masses --      2.2876                 2.0222                 2.3487
 Frc consts  --      0.9047                 0.8065                 0.9889
 IR Inten    --      7.5490                13.5312                13.1921

                     16                     17                     18
                      A                      A                      A
 Frequencies --    875.9170               903.4083               934.2954
 Red. masses --      2.4771                 2.2938                 2.8973
 Frc consts  --      1.1197                 1.1030                 1.4901
 IR Inten    --     14.6794                 3.3453                 9.9382

                     19                     20                     21
                      A                      A                      A
 Frequencies --    977.7739               993.6457              1015.0706
 Red. masses --      1.5910                 1.5992                 1.8710
 Frc consts  --      0.8962                 0.9303                 1.1359
 IR Inten    --     11.9418                23.6349                23.0676

                     22                     23                     24
                      A                      A                      A
 Frequencies --   1038.9403              1072.9566              1077.0895
 Red. masses --      2.2324                 1.6179                 1.9735
 Frc consts  --      1.4197                 1.0974                 1.3489
 IR Inten    --     43.7142                16.7924                31.9720

                     25                     26                     27
                      A                      A                      A
 Frequencies --   1084.8699              1110.4412              1127.4365
 Red. masses --      1.7766                 2.1880                 2.3435
 Frc consts  --      1.2320                 1.5896                 1.7551
 IR Inten    --      5.5195                 2.1089                 4.6301

                     28                     29                     30
                      A                      A                      A
 Frequencies --   1172.1157              1191.5886              1230.1726
 Red. masses --      1.9683                 1.6956                 1.4763
 Frc consts  --      1.5932                 1.4185                 1.3163
 IR Inten    --     26.5462                 5.5142                 7.4390

                     31                     32                     33
                      A                      A                      A
 Frequencies --   1252.6237              1284.4800              1295.5131
 Red. masses --      1.7993                 1.2679                 2.0681
 Frc consts  --      1.6634                 1.2325                 2.0451
 IR Inten    --     28.5229                29.8068                53.3781

                     34                     35                     36
                      A                      A                      A
 Frequencies --   1315.2848              1342.2569              1387.2550
 Red. masses --      2.1345                 1.6091                 1.6411
 Frc consts  --      2.1756                 1.7081                 1.8608
 IR Inten    --     17.2365                27.4968                27.1348

                     37                     38                     39
                      A                      A                      A
 Frequencies --   1396.2887              1406.8164              1482.8971
 Red. masses --      1.5564                 1.4670                 1.0549
 Frc consts  --      1.7878                 1.7106                 1.3667
 IR Inten    --     10.7564                14.8858                 2.7829

                     40                     41                     42
                      A                      A                      A
 Frequencies --   1492.0167              1492.6532              3030.0537
 Red. masses --      1.2996                 1.1156                 1.0573
 Frc consts  --      1.7046                 1.4645                 5.7193
 IR Inten    --     13.3385                 0.7454                20.8773

                     43                     44                     45
                      A                      A                      A
 Frequencies --   3032.0910              3064.8668              3081.7234
 Red. masses --      1.0616                 1.0865                 1.0901
 Frc consts  --      5.7503                 6.0130                 6.0997
 IR Inten    --     26.6066                49.8125                40.7805

                     46                     47                     48
                      A                      A                      A
 Frequencies --   3101.3416              3103.7548              3112.1811
 Red. masses --      1.0579                 1.1006                 1.1021
 Frc consts  --      5.9952                 6.2469                 6.2892
 IR Inten    --     21.8727                23.3527                27.1014

                     49                     50                     51
                      A                      A                      A
 Frequencies --   3195.7584              3203.9270              3793.4716
 Red. masses --      1.1017                 1.1034                 1.0662
 Frc consts  --      6.6294                 6.6735                 9.0395
 IR Inten    --      3.6824                11.9572                24.5439

 - Thermochemistry -
 -------------------
 Temperature   298.150 Kelvin.  Pressure   1.00000 Atm.
 Atom     1 has atomic number  6 and mass  12.00000

 Molecular mass:   126.06808 amu.
 Principal axes and moments of inertia in atomic units:
                           1         2         3
     Eigenvalues --   566.915111283.334731553.82306
           X            0.99931   0.03671   0.00550
           Y           -0.03668   0.99931  -0.00570
           Z           -0.00571   0.00550   0.99997
 This molecule is an asymmetric top.
 Rotational symmetry number  1.
 Warning -- assumption of classical behavior for rotation
           may cause significant error
 Rotational temperatures (Kelvin)      0.15278     0.06749     0.05574
 Rotational constants (GHZ):           3.18344     1.40629     1.16148
 Zero-point vibrational energy     416767.0 (Joules/Mol)
                                   99.60970 (Kcal/Mol)
 Warning -- explicit consideration of  11 degrees of freedom as
           vibrations may cause significant error
 Vibrational temperatures:    162.47   246.26   328.73   347.22   373.14
          (Kelvin)            465.79   574.82   598.08   703.04   731.83
                              854.51  1114.00  1178.78  1183.73  1216.26
                             1260.25  1299.80  1344.24  1406.80  1429.63
                             1460.46  1494.80  1543.74  1549.69  1560.88
                             1597.68  1622.13  1686.41  1714.43  1769.94
                             1802.24  1848.08  1863.95  1892.40  1931.21
                             1995.95  2008.95  2024.09  2133.56  2146.68
                             2147.59  4359.57  4362.50  4409.65  4433.91
                             4462.13  4465.61  4477.73  4597.98  4609.73
                             5457.95

 Zero-point correction=                           0.158738 (Hartree/Particle)
 Thermal correction to Energy=                    0.166863
 Thermal correction to Enthalpy=                  0.167807
 Thermal correction to Gibbs Free Energy=         0.126422
 Sum of electronic and zero-point Energies=           -422.977149
 Sum of electronic and thermal Energies=              -422.969024
 Sum of electronic and thermal Enthalpies=            -422.968080
 Sum of electronic and thermal Free Energies=         -423.009465

                     E (Thermal)             CV                S
                      KCal/Mol        Cal/Mol-Kelvin    Cal/Mol-Kelvin
 Total                  104.708             32.010             87.101
 Electronic               0.000              0.000              0.000
 Translational            0.889              2.981             40.409
 Rotational               0.889              2.981             28.515
 Vibrational            102.930             26.049             18.177
 Vibration     1          0.607              1.939              3.218
 Vibration     2          0.626              1.878              2.423
 Vibration     3          0.651              1.798              1.891
 Vibration     4          0.658              1.777              1.793
 Vibration     5          0.668              1.747              1.666
 Vibration     6          0.708              1.628              1.291
 Vibration     7          0.766              1.471              0.964
 Vibration     8          0.779              1.436              0.907
 Vibration     9          0.845              1.275              0.687
 Vibration    10          0.864              1.231              0.637
 Vibration    11          0.952              1.045              0.460

 Normal termination of Gaussian 09 at Tue Jan 28 03:49:51 2020.
