 Gaussian 09, Revision D.01,
 Gaussian 09:  ES64L-G09RevD.01 24-Apr-2013

 -----------------------------
 # b3lyp 6-31G(2df,p) opt Freq
 -----------------------------

 -----
 titel
 -----
 Symbolic Z-matrix:
 Charge =  0 Multiplicity = 1

 SCF Done:  E(RB3LYP) =  -423.160943315     A.U. after   14 cycles
 Optimization completed.
    -- Stationary point found.
 Normal termination of Gaussian 09 at Tue Jan 28 13:30:34 2020.

 ----------------------------------------------------------------------
 #N Geom=AllCheck Guess=TCheck SCRF=Check GenChk RB3LYP/6-31G(2df,p) Fr
 eq
 ----------------------------------------------------------------------

 Structure from the checkpoint file:  "/scratch/puck/g09_f9fe40b5-7e9b-4635-b14f-0218600169b7/Gau-8105.chk"
 -----
 titel
 -----
 Charge =  0 Multiplicity = 1

                         Standard orientation:
 ---------------------------------------------------------------------
 Center     Atomic      Atomic             Coordinates (Angstroms)
 Number     Number       Type             X           Y           Z
 ---------------------------------------------------------------------
      1          6           0       -3.223221   -0.180784   -0.657206
      2          6           0       -2.021417   -0.835934    0.031790
      3          6           0       -1.029286    0.172678    0.605080
      4          6           0        0.275878   -0.457816    1.211237
      5          6           0        1.088336    0.270186    0.140889
      6          8           0        0.811171    1.677967    0.238058
      7          6           0       -0.144644    0.886011   -0.439729
      8          6           0        2.309895   -0.137976   -0.572668
      9          8           0        2.855187   -1.203456   -0.414723
     10          1           0       -3.909816   -0.935301   -1.052235
     11          1           0       -3.784098    0.448152    0.042380
     12          1           0       -2.913707    0.453689   -1.494755
     13          1           0       -2.370413   -1.481700    0.846839
     14          1           0       -1.500046   -1.495067   -0.675276
     15          1           0       -1.537994    0.882467    1.265377
     16          1           0        0.528118   -0.195825    2.240377
     17          1           0        0.312038   -1.541837    1.085031
     18          1           0       -0.368404    1.145852   -1.469540
     19          1           0        2.680205    0.625300   -1.291229
 ---------------------------------------------------------------------

 SCF Done:  E(RB3LYP) =  -423.160943315     A.U. after    1 cycles

 The electronic state is 1-A.
 Alpha  occ. eigenvalues --  -19.17459 -19.14240 -10.27562 -10.25788 -10.25349
 Alpha  occ. eigenvalues --  -10.20695 -10.19809 -10.19557 -10.18535  -1.10204
 Alpha  occ. eigenvalues --   -1.04802  -0.83284  -0.76458  -0.70755  -0.66355
 Alpha  occ. eigenvalues --   -0.64090  -0.57968  -0.55909  -0.51350  -0.48227
 Alpha  occ. eigenvalues --   -0.46517  -0.45622  -0.43136  -0.42919  -0.41691
 Alpha  occ. eigenvalues --   -0.39523  -0.37952  -0.37004  -0.35666  -0.34158
 Alpha  occ. eigenvalues --   -0.33670  -0.30406  -0.27079  -0.25813
 Alpha virt. eigenvalues --   -0.03794   0.07950   0.09347   0.10379   0.11679
 Alpha virt. eigenvalues --    0.11778   0.12691   0.13599   0.15188   0.15844
 Alpha virt. eigenvalues --    0.16654   0.18062   0.18824   0.19587   0.20507

 Mulliken charges:
               1
     1  C   -0.386564
     2  C   -0.197031
     3  C    0.004128
     4  C   -0.340763
     5  C    0.323105
     6  O   -0.273373
     7  C   -0.039010
     8  C    0.063161
     9  O   -0.260091
    10  H    0.120178
    11  H    0.121304
    12  H    0.117672
    13  H    0.107605
    14  H    0.101857
    15  H    0.087896
    16  H    0.116360
    17  H    0.131435
    18  H    0.115593
    19  H    0.086537
 Sum of Mulliken charges =   0.00000

 Dipole moment (field-independent basis, Debye):
    X=             -2.8383    Y=              0.3955    Z=             -0.4057  Tot=              2.8943
 Quadrupole moment (field-independent basis, Debye-Ang):
   XX=            -58.3604   YY=            -58.3862   ZZ=            -50.8018
   XY=              4.2391   XZ=              0.0448   YZ=             -2.1801

  Exact polarizability:  94.859  -5.123  71.303  -1.730  -3.927  67.317
 Approx polarizability: 124.611 -15.931 121.540  -0.249  -4.874  99.709

                      1                      2                      3
                      A                      A                      A
 Frequencies --     68.2639               105.8794               159.4731
 Red. masses --      4.8562                 2.1231                 2.2538
 Frc consts  --      0.0133                 0.0140                 0.0338
 IR Inten    --      1.5182                 1.3854                 4.9816

                      4                      5                      6
                      A                      A                      A
 Frequencies --    187.4360               194.5585               243.7032
 Red. masses --      2.6134                 3.5835                 1.4056
 Frc consts  --      0.0541                 0.0799                 0.0492
 IR Inten    --      1.4572                 8.8878                 1.0293

                      7                      8                      9
                      A                      A                      A
 Frequencies --    324.4016               395.3473               405.9530
 Red. masses --      2.3192                 2.6132                 2.5912
 Frc consts  --      0.1438                 0.2406                 0.2516
 IR Inten    --      2.2843                 3.5225                 2.2687

                     10                     11                     12
                      A                      A                      A
 Frequencies --    499.8196               511.4410               687.8377
 Red. masses --      6.9108                 4.3245                 3.5028
 Frc consts  --      1.0172                 0.6665                 0.9764
 IR Inten    --      2.4247                11.2282                25.2087

                     13                     14                     15
                      A                      A                      A
 Frequencies --    750.1076               785.0190               816.1600
 Red. masses --      2.1014                 1.8291                 2.2272
 Frc consts  --      0.6966                 0.6641                 0.8741
 IR Inten    --      1.6740                 9.6375                12.3748

                     16                     17                     18
                      A                      A                      A
 Frequencies --    866.1909               922.1662               933.1628
 Red. masses --      3.1372                 2.0440                 3.1583
 Frc consts  --      1.3868                 1.0241                 1.6204
 IR Inten    --     21.4098                 8.4282                 6.3082

                     19                     20                     21
                      A                      A                      A
 Frequencies --    962.1312               987.9900               999.6749
 Red. masses --      1.7055                 2.3367                 1.6835
 Frc consts  --      0.9302                 1.3439                 0.9912
 IR Inten    --      1.8366                 1.9815                 2.2807

                     22                     23                     24
                      A                      A                      A
 Frequencies --   1035.2104              1074.1340              1102.5139
 Red. masses --      1.6213                 2.1380                 1.6092
 Frc consts  --      1.0237                 1.4534                 1.1525
 IR Inten    --      5.0508                 0.9398                13.9631

                     25                     26                     27
                      A                      A                      A
 Frequencies --   1122.1629              1182.5373              1214.5145
 Red. masses --      1.6376                 1.7894                 1.6306
 Frc consts  --      1.2150                 1.4743                 1.4171
 IR Inten    --      4.8211                10.1616                 4.4137

                     28                     29                     30
                      A                      A                      A
 Frequencies --   1225.7651              1255.1232              1281.7985
 Red. masses --      1.4722                 1.3977                 1.6933
 Frc consts  --      1.3032                 1.2973                 1.6392
 IR Inten    --      3.4853                 1.1730                 7.2458

                     31                     32                     33
                      A                      A                      A
 Frequencies --   1305.9132              1340.6472              1368.1289
 Red. masses --      1.9883                 1.3798                 1.7194
 Frc consts  --      1.9979                 1.4611                 1.8962
 IR Inten    --      8.4565                15.2941                 3.1176

                     34                     35                     36
                      A                      A                      A
 Frequencies --   1388.2480              1415.1750              1432.7763
 Red. masses --      1.5594                 1.2293                 2.1741
 Frc consts  --      1.7707                 1.4506                 2.6296
 IR Inten    --      0.7042                 2.1555                30.4473

                     37                     38                     39
                      A                      A                      A
 Frequencies --   1475.1599              1485.9186              1500.4800
 Red. masses --      1.1394                 1.0628                 1.0395
 Frc consts  --      1.4609                 1.3826                 1.3789
 IR Inten    --      7.6051                 0.5073                 5.6565

                     40                     41                     42
                      A                      A                      A
 Frequencies --   1505.1717              1807.3040              2901.5125
 Red. masses --      1.0707                10.5408                 1.0839
 Frc consts  --      1.4291                20.2855                 5.3765
 IR Inten    --      3.8340               217.7985                92.4140

                     43                     44                     45
                      A                      A                      A
 Frequencies --   3018.8756              3034.6399              3049.8193
 Red. masses --      1.0615                 1.0359                 1.0929
 Frc consts  --      5.6998                 5.6208                 5.9894
 IR Inten    --     15.3243                21.3770                 9.3379

                     46                     47                     48
                      A                      A                      A
 Frequencies --   3064.0365              3077.9506              3100.7694
 Red. masses --      1.0911                 1.0586                 1.1016
 Frc consts  --      6.0355                 5.9090                 6.2405
 IR Inten    --     27.8281                16.4064                43.2890

                     49                     50                     51
                      A                      A                      A
 Frequencies --   3108.3405              3137.5004              3172.4076
 Red. masses --      1.1011                 1.1085                 1.0929
 Frc consts  --      6.2681                 6.4293                 6.4804
 IR Inten    --     29.0247                12.5980                13.0381

 - Thermochemistry -
 -------------------
 Temperature   298.150 Kelvin.  Pressure   1.00000 Atm.
 Atom     1 has atomic number  6 and mass  12.00000

 Molecular mass:   126.06808 amu.
 Principal axes and moments of inertia in atomic units:
                           1         2         3
     Eigenvalues --   551.766381840.494422011.28850
           X            0.99982   0.01697   0.00874
           Y           -0.01632   0.99746  -0.06935
           Z           -0.00989   0.06920   0.99755
 This molecule is an asymmetric top.
 Rotational symmetry number  1.
 Warning -- assumption of classical behavior for rotation
           may cause significant error
 Rotational temperatures (Kelvin)      0.15698     0.04706     0.04306
 Rotational constants (GHZ):           3.27084     0.98057     0.89731
 Zero-point vibrational energy     412659.3 (Joules/Mol)
                                   98.62795 (Kcal/Mol)
 Warning -- explicit consideration of  11 degrees of freedom as
           vibrations may cause significant error
 Vibrational temperatures:     98.22   152.34   229.45   269.68   279.93
          (Kelvin)            350.63   466.74   568.82   584.08   719.13
                              735.85   989.64  1079.24  1129.47  1174.27
                             1246.25  1326.79  1342.61  1384.29  1421.50
                             1438.31  1489.43  1545.44  1586.27  1614.54
                             1701.41  1747.41  1763.60  1805.84  1844.22
                             1878.92  1928.89  1968.43  1997.38  2036.12
                             2061.44  2122.42  2137.90  2158.85  2165.60
                             2600.30  4174.62  4343.48  4366.16  4388.00
                             4408.46  4428.48  4461.31  4472.20  4514.16
                             4564.38

 Zero-point correction=                           0.157174 (Hartree/Particle)
 Thermal correction to Energy=                    0.166146
 Thermal correction to Enthalpy=                  0.167090
 Thermal correction to Gibbs Free Energy=         0.123070
 Sum of electronic and zero-point Energies=           -423.003770
 Sum of electronic and thermal Energies=              -422.994797
 Sum of electronic and thermal Enthalpies=            -422.993853
 Sum of electronic and thermal Free Energies=         -423.037873

                     E (Thermal)             CV                S
                      KCal/Mol        Cal/Mol-Kelvin    Cal/Mol-Kelvin
 Total                  104.258             32.982             92.647
 Electronic               0.000              0.000              0.000
 Translational            0.889              2.981             40.409
 Rotational               0.889              2.981             29.103
 Vibrational            102.481             27.020             23.136
 Vibration     1          0.598              1.969              4.203
 Vibration     2          0.605              1.945              3.343
 Vibration     3          0.621              1.892              2.556
 Vibration     4          0.632              1.857              2.253
 Vibration     5          0.635              1.847              2.184
 Vibration     6          0.659              1.773              1.776
 Vibration     7          0.709              1.627              1.288
 Vibration     8          0.762              1.480              0.980
 Vibration     9          0.771              1.457              0.941
 Vibration    10          0.855              1.250              0.659
 Vibration    11          0.867              1.225              0.630

 Optimization completed.
    -- Stationary point found.
 Normal termination of Gaussian 09 at Tue Jan 28 14:17:23 2020.
