 Gaussian 09, Revision D.01,
 Gaussian 09:  ES64L-G09RevD.01 24-Apr-2013

 -----------------------------
 # b3lyp 6-31G(2df,p) opt Freq
 -----------------------------

 -----
 titel
 -----
 Symbolic Z-matrix:
 Charge =  0 Multiplicity = 1

 SCF Done:  E(RB3LYP) =  -423.160856907     A.U. after   14 cycles
 Optimization completed.
    -- Stationary point found.
 Normal termination of Gaussian 09 at Tue Jan 28 09:25:11 2020.

 ----------------------------------------------------------------------
 #N Geom=AllCheck Guess=TCheck SCRF=Check GenChk RB3LYP/6-31G(2df,p) Fr
 eq
 ----------------------------------------------------------------------

 Structure from the checkpoint file:  "/scratch/puck/g09_1ed9331d-b314-4726-b1ea-318374dcaaef/Gau-82696.chk"
 -----
 titel
 -----
 Charge =  0 Multiplicity = 1

                         Standard orientation:
 ---------------------------------------------------------------------
 Center     Atomic      Atomic             Coordinates (Angstroms)
 Number     Number       Type             X           Y           Z
 ---------------------------------------------------------------------
      1          6           0        3.060235   -0.727934    0.211877
      2          6           0        1.867722   -0.546593   -0.738001
      3          6           0        0.711001    0.137030   -0.079796
      4          6           0       -0.241221   -0.404931    1.004299
      5          6           0       -1.346167    0.563067    0.476333
      6          6           0       -2.546622   -0.103205   -0.146147
      7          8           0       -2.668476   -1.288952   -0.325885
      8          6           0       -0.319152    1.060672   -0.582836
      9          8           0        0.801926    1.562635    0.139542
     10          1           0        3.891206   -1.223250   -0.298171
     11          1           0        3.412662    0.240498    0.578705
     12          1           0        2.788515   -1.338727    1.079022
     13          1           0        2.168896    0.045146   -1.609503
     14          1           0        1.532675   -1.522272   -1.110551
     15          1           0       -0.532451   -1.444598    0.841242
     16          1           0        0.084819   -0.253489    2.034923
     17          1           0       -1.677195    1.364751    1.144369
     18          1           0       -3.341746    0.604781   -0.473945
     19          1           0       -0.509752    1.469065   -1.569716
 ---------------------------------------------------------------------

 SCF Done:  E(RB3LYP) =  -423.160856907     A.U. after    1 cycles

 The electronic state is 1-A.
 Alpha  occ. eigenvalues --  -19.15453 -19.14717 -10.27732 -10.24755 -10.24480
 Alpha  occ. eigenvalues --  -10.20712 -10.19404 -10.19140 -10.18033  -1.08249
 Alpha  occ. eigenvalues --   -1.05291  -0.81810  -0.78177  -0.69599  -0.65351
 Alpha  occ. eigenvalues --   -0.63581  -0.56796  -0.54720  -0.50534  -0.48964
 Alpha  occ. eigenvalues --   -0.47231  -0.44849  -0.44130  -0.41338  -0.40071
 Alpha  occ. eigenvalues --   -0.39112  -0.37962  -0.37229  -0.35253  -0.34681
 Alpha  occ. eigenvalues --   -0.32845  -0.29584  -0.26442  -0.25304
 Alpha virt. eigenvalues --   -0.03121   0.07661   0.09763   0.10798   0.12545
 Alpha virt. eigenvalues --    0.13001   0.13312   0.14498   0.14928   0.15703
 Alpha virt. eigenvalues --    0.16606   0.17140   0.18877   0.19587   0.19931

 Mulliken charges:
               1
     1  C   -0.381220
     2  C   -0.300537
     3  C    0.446272
     4  C   -0.317341
     5  C   -0.113576
     6  C    0.129933
     7  O   -0.236199
     8  C   -0.070800
     9  O   -0.288912
    10  H    0.116933
    11  H    0.134813
    12  H    0.121959
    13  H    0.111588
    14  H    0.112074
    15  H    0.135785
    16  H    0.109967
    17  H    0.099145
    18  H    0.081485
    19  H    0.108631
 Sum of Mulliken charges =   0.00000

 Dipole moment (field-independent basis, Debye):
    X=              0.4024    Y=              0.6477    Z=             -0.2493  Tot=              0.8022
 Quadrupole moment (field-independent basis, Debye-Ang):
   XX=            -54.3058   YY=            -57.8530   ZZ=            -51.2299
   XY=             -8.7286   XZ=             -1.7629   YZ=             -2.0063

  Exact polarizability:  91.426  -4.002  72.961   2.061  -2.289  64.825
 Approx polarizability: 115.133   0.921 122.971   4.666  -1.084  97.179

                      1                      2                      3
                      A                      A                      A
 Frequencies --     59.6705                70.1360               119.0557
 Red. masses --      3.7682                 3.2334                 2.8148
 Frc consts  --      0.0079                 0.0094                 0.0235
 IR Inten    --      1.5172                 4.3323                 4.6774

                      4                      5                      6
                      A                      A                      A
 Frequencies --    190.2101               208.7892               258.1154
 Red. masses --      2.5654                 1.2767                 2.9026
 Frc consts  --      0.0547                 0.0328                 0.1139
 IR Inten    --      2.2372                 1.2132                 5.6217

                      7                      8                      9
                      A                      A                      A
 Frequencies --    333.8386               356.1204               431.2825
 Red. masses --      2.3299                 2.5152                 2.7974
 Frc consts  --      0.1530                 0.1879                 0.3066
 IR Inten    --      1.6529                 0.8097                 2.2632

                     10                     11                     12
                      A                      A                      A
 Frequencies --    476.4067               631.9592               694.7202
 Red. masses --      4.5925                 3.2124                 3.4033
 Frc consts  --      0.6141                 0.7559                 0.9678
 IR Inten    --     12.2981                 5.5970                18.7379

                     13                     14                     15
                      A                      A                      A
 Frequencies --    723.4579               774.6962               810.0011
 Red. masses --      3.6542                 1.4484                 2.2027
 Frc consts  --      1.1268                 0.5122                 0.8515
 IR Inten    --      3.7633                 2.0944                10.0516

                     16                     17                     18
                      A                      A                      A
 Frequencies --    863.9435               909.0677               932.2172
 Red. masses --      2.5903                 2.9451                 2.4138
 Frc consts  --      1.1391                 1.4340                 1.2359
 IR Inten    --      4.5540                17.7299                10.6259

                     19                     20                     21
                      A                      A                      A
 Frequencies --    956.6757               994.4046              1012.1735
 Red. masses --      2.1667                 1.6371                 1.8103
 Frc consts  --      1.1684                 0.9538                 1.0928
 IR Inten    --      8.6105                 8.9548                 1.5620

                     22                     23                     24
                      A                      A                      A
 Frequencies --   1037.5912              1065.7659              1078.9145
 Red. masses --      1.8585                 2.3849                 2.2391
 Frc consts  --      1.1789                 1.5960                 1.5357
 IR Inten    --     25.3648                15.6858                10.9088

                     25                     26                     27
                      A                      A                      A
 Frequencies --   1099.7640              1163.8560              1188.7234
 Red. masses --      1.8033                 1.3507                 1.5434
 Frc consts  --      1.2851                 1.0780                 1.2850
 IR Inten    --      5.7903                 5.9302                13.1091

                     28                     29                     30
                      A                      A                      A
 Frequencies --   1210.2723              1239.9661              1252.5164
 Red. masses --      1.5379                 1.3647                 1.7211
 Frc consts  --      1.3272                 1.2363                 1.5908
 IR Inten    --      2.3251                17.8730                 9.5940

                     31                     32                     33
                      A                      A                      A
 Frequencies --   1314.3356              1335.7722              1352.8362
 Red. masses --      1.3995                 1.6442                 1.6063
 Frc consts  --      1.4244                 1.7285                 1.7321
 IR Inten    --      4.0114                17.9120                11.4963

                     34                     35                     36
                      A                      A                      A
 Frequencies --   1407.9985              1421.8998              1447.6080
 Red. masses --      1.2392                 1.2052                 1.6734
 Frc consts  --      1.4474                 1.4356                 2.0661
 IR Inten    --      2.2049                 8.4090                14.9544

                     37                     38                     39
                      A                      A                      A
 Frequencies --   1471.4080              1482.4368              1498.0671
 Red. masses --      1.0816                 1.6977                 1.0397
 Frc consts  --      1.3797                 2.1981                 1.3747
 IR Inten    --      1.8959                 3.1749                 5.0274

                     40                     41                     42
                      A                      A                      A
 Frequencies --   1510.1618              1821.8575              2871.8860
 Red. masses --      1.1740                10.2383                 1.0827
 Frc consts  --      1.5774                20.0219                 5.2612
 IR Inten    --      7.1897               136.6150               134.9718

                     43                     44                     45
                      A                      A                      A
 Frequencies --   3033.4233              3040.2018              3064.0845
 Red. masses --      1.0600                 1.0354                 1.0833
 Frc consts  --      5.7465                 5.6387                 5.9924
 IR Inten    --     16.0209                23.3959                22.3651

                     46                     47                     48
                      A                      A                      A
 Frequencies --   3073.8010              3076.5739              3109.9513
 Red. masses --      1.1011                 1.0591                 1.1015
 Frc consts  --      6.1293                 5.9063                 6.2766
 IR Inten    --      6.3337                16.5771                33.4934

                     49                     50                     51
                      A                      A                      A
 Frequencies --   3118.8280              3140.2659              3174.2396
 Red. masses --      1.1026                 1.1087                 1.0933
 Frc consts  --      6.3189                 6.4416                 6.4906
 IR Inten    --     23.8071                 7.2641                14.5088

 - Thermochemistry -
 -------------------
 Temperature   298.150 Kelvin.  Pressure   1.00000 Atm.
 Atom     1 has atomic number  6 and mass  12.00000

 Molecular mass:   126.06808 amu.
 Principal axes and moments of inertia in atomic units:
                           1         2         3
     Eigenvalues --   534.042401733.094181962.74193
           X            0.99910  -0.04244  -0.00170
           Y            0.04237   0.99860  -0.03161
           Z            0.00304   0.03151   0.99950
 This molecule is an asymmetric top.
 Rotational symmetry number  1.
 Warning -- assumption of classical behavior for rotation
           may cause significant error
 Rotational temperatures (Kelvin)      0.16219     0.04998     0.04413
 Rotational constants (GHZ):           3.37940     1.04134     0.91950
 Zero-point vibrational energy     412185.0 (Joules/Mol)
                                   98.51458 (Kcal/Mol)
 Warning -- explicit consideration of  10 degrees of freedom as
           vibrations may cause significant error
 Vibrational temperatures:     85.85   100.91   171.29   273.67   300.40
          (Kelvin)            371.37   480.32   512.38   620.52   685.44
                              909.25   999.55  1040.89  1114.61  1165.41
                             1243.02  1307.94  1341.25  1376.44  1430.72
                             1456.29  1492.86  1533.40  1552.32  1582.31
                             1674.53  1710.31  1741.31  1784.03  1802.09
                             1891.03  1921.88  1946.43  2025.79  2045.79
                             2082.78  2117.03  2132.89  2155.38  2172.78
                             2621.24  4132.00  4364.41  4374.17  4408.53
                             4422.51  4426.50  4474.52  4487.29  4518.14
                             4567.02

 Zero-point correction=                           0.156993 (Hartree/Particle)
 Thermal correction to Energy=                    0.166053
 Thermal correction to Enthalpy=                  0.166997
 Thermal correction to Gibbs Free Energy=         0.122418
 Sum of electronic and zero-point Energies=           -423.003864
 Sum of electronic and thermal Energies=              -422.994804
 Sum of electronic and thermal Enthalpies=            -422.993860
 Sum of electronic and thermal Free Energies=         -423.038438

                     E (Thermal)             CV                S
                      KCal/Mol        Cal/Mol-Kelvin    Cal/Mol-Kelvin
 Total                  104.200             32.973             93.824
 Electronic               0.000              0.000              0.000
 Translational            0.889              2.981             40.409
 Rotational               0.889              2.981             28.987
 Vibrational            102.422             27.012             24.429
 Vibration     1          0.597              1.974              4.468
 Vibration     2          0.598              1.968              4.150
 Vibration     3          0.609              1.933              3.116
 Vibration     4          0.634              1.853              2.226
 Vibration     5          0.642              1.827              2.054
 Vibration     6          0.667              1.749              1.674
 Vibration     7          0.715              1.608              1.241
 Vibration     8          0.732              1.563              1.139
 Vibration     9          0.792              1.402              0.854
 Vibration    10          0.833              1.302              0.720

 Normal termination of Gaussian 09 at Tue Jan 28 10:18:43 2020.
