 Gaussian 09, Revision D.01,
 Gaussian 09:  ES64L-G09RevD.01 24-Apr-2013

 -----------------------------
 # b3lyp 6-31G(2df,p) opt Freq
 -----------------------------

 -----
 titel
 -----
 Symbolic Z-matrix:
 Charge =  0 Multiplicity = 1

 SCF Done:  E(RB3LYP) =  -423.154967399     A.U. after   13 cycles
 Optimization completed.
    -- Stationary point found.
 Normal termination of Gaussian 09 at Mon Jan 27 11:16:02 2020.

 ----------------------------------------------------------------------
 #N Geom=AllCheck Guess=TCheck SCRF=Check GenChk RB3LYP/6-31G(2df,p) Fr
 eq
 ----------------------------------------------------------------------

 Structure from the checkpoint file:  "/scratch/puck/g09_a24ead8a-1cbf-4281-99a7-10794d71e016/Gau-68811.chk"
 -----
 titel
 -----
 Charge =  0 Multiplicity = 1

                         Standard orientation:
 ---------------------------------------------------------------------
 Center     Atomic      Atomic             Coordinates (Angstroms)
 Number     Number       Type             X           Y           Z
 ---------------------------------------------------------------------
      1          6           0        2.089326   -0.489798    0.172318
      2          6           0        1.152610    0.429742   -0.616598
      3          6           0        0.465504    1.721498   -0.251291
      4          8           0       -0.963652    1.490372   -0.210212
      5          6           0       -1.370329    0.252760    0.394758
      6          6           0       -1.408148   -0.943996   -0.614618
      7          8           0       -0.152071   -1.658352   -0.462464
      8          6           0        0.625617   -0.710507    0.224603
      9          6           0       -0.278836   -0.240489    1.350011
     10          1           0        2.703865   -1.139384   -0.440719
     11          1           0        2.571691   -0.147739    1.083414
     12          1           0        1.149570    0.203017   -1.678667
     13          1           0        0.817579    2.125306    0.707474
     14          1           0        0.599789    2.502560   -1.003425
     15          1           0       -2.352248    0.442833    0.833611
     16          1           0       -2.221470   -1.642246   -0.394815
     17          1           0       -1.512926   -0.567900   -1.638177
     18          1           0       -0.604604   -1.087305    1.959814
     19          1           0        0.120079    0.539441    1.997804
 ---------------------------------------------------------------------

 SCF Done:  E(RB3LYP) =  -423.154967399     A.U. after    1 cycles

 The electronic state is 1-A.
 Alpha  occ. eigenvalues --  -19.14081 -19.13266 -10.23749 -10.23609 -10.23074
 Alpha  occ. eigenvalues --  -10.22411 -10.20227 -10.18667 -10.18423  -1.04770
 Alpha  occ. eigenvalues --   -1.01190  -0.85969  -0.77600  -0.70341  -0.69433
 Alpha  occ. eigenvalues --   -0.60788  -0.56973  -0.53982  -0.51586  -0.50465
 Alpha  occ. eigenvalues --   -0.47011  -0.46331  -0.43138  -0.42226  -0.39908
 Alpha  occ. eigenvalues --   -0.39071  -0.36943  -0.36562  -0.34199  -0.33409
 Alpha  occ. eigenvalues --   -0.30188  -0.28264  -0.24777  -0.23168
 Alpha virt. eigenvalues --    0.08535   0.08812   0.10325   0.11020   0.12869
 Alpha virt. eigenvalues --    0.13531   0.14530   0.15480   0.16475   0.17069
 Alpha virt. eigenvalues --    0.18298   0.19389   0.19617   0.20474   0.22412

 Mulliken charges:
               1
     1  C   -0.418960
     2  C   -0.073756
     3  C   -0.112631
     4  O   -0.291204
     5  C    0.092839
     6  C   -0.097959
     7  O   -0.311816
     8  C    0.438784
     9  C   -0.303073
    10  H    0.131936
    11  H    0.119674
    12  H    0.103204
    13  H    0.095472
    14  H    0.111081
    15  H    0.082347
    16  H    0.106757
    17  H    0.108708
    18  H    0.108330
    19  H    0.110266
 Sum of Mulliken charges =   0.00000

 Dipole moment (field-independent basis, Debye):
    X=              0.5648    Y=              0.2905    Z=              0.8695  Tot=              1.0768
 Quadrupole moment (field-independent basis, Debye-Ang):
   XX=            -50.2307   YY=            -58.0775   ZZ=            -51.0916
   XY=              2.9652   XZ=             -0.3930   YZ=             -0.3587

  Exact polarizability:  82.003   2.746  71.507   0.418  -1.268  67.738
 Approx polarizability: 115.027   2.006 108.488   1.463  -3.286 102.678

                      1                      2                      3
                      A                      A                      A
 Frequencies --    197.0099               272.8982               352.9257
 Red. masses --      2.9470                 2.4200                 2.4031
 Frc consts  --      0.0674                 0.1062                 0.1764
 IR Inten    --      6.1130                 0.5672                 0.8547

                      4                      5                      6
                      A                      A                      A
 Frequencies --    384.6837               414.3562               466.4098
 Red. masses --      2.5865                 3.4245                 3.6277
 Frc consts  --      0.2255                 0.3464                 0.4650
 IR Inten    --      4.3945                 4.3760                 1.7663

                      7                      8                      9
                      A                      A                      A
 Frequencies --    497.3036               566.0239               586.1413
 Red. masses --      2.4636                 3.0055                 4.1516
 Frc consts  --      0.3590                 0.5673                 0.8404
 IR Inten    --      2.4065                 6.1040                 6.0194

                     10                     11                     12
                      A                      A                      A
 Frequencies --    734.7174               787.9020               813.3674
 Red. masses --      3.5046                 3.2015                 3.3193
 Frc consts  --      1.1146                 1.1710                 1.2938
 IR Inten    --      3.9691                 5.8233                 7.9082

                     13                     14                     15
                      A                      A                      A
 Frequencies --    838.7541               858.9154               878.8294
 Red. masses --      2.0673                 2.9963                 2.5230
 Frc consts  --      0.8569                 1.3024                 1.1481
 IR Inten    --     13.6704                 1.8196                17.1869

                     16                     17                     18
                      A                      A                      A
 Frequencies --    896.3607               934.6139               947.4511
 Red. masses --      1.9913                 1.9601                 1.9158
 Frc consts  --      0.9426                 1.0088                 1.0132
 IR Inten    --      2.3058                19.8278                41.7237

                     19                     20                     21
                      A                      A                      A
 Frequencies --    971.9881              1011.4870              1029.1901
 Red. masses --      3.2848                 2.7700                 1.6399
 Frc consts  --      1.8285                 1.6698                 1.0235
 IR Inten    --     14.6557                68.5404                 5.1029

                     22                     23                     24
                      A                      A                      A
 Frequencies --   1052.1201              1080.9680              1094.1810
 Red. masses --      2.0681                 1.4582                 1.9032
 Frc consts  --      1.3488                 1.0039                 1.3425
 IR Inten    --      4.7099                 9.6687                 7.0865

                     25                     26                     27
                      A                      A                      A
 Frequencies --   1116.1764              1146.1265              1173.3772
 Red. masses --      2.3264                 1.4760                 2.0234
 Frc consts  --      1.7077                 1.1423                 1.6414
 IR Inten    --     15.3796                30.0330                 3.9971

                     28                     29                     30
                      A                      A                      A
 Frequencies --   1212.1589              1231.1259              1246.6232
 Red. masses --      1.3460                 1.7113                 1.3968
 Frc consts  --      1.1653                 1.5282                 1.2789
 IR Inten    --      7.8507                34.5298                 4.1735

                     31                     32                     33
                      A                      A                      A
 Frequencies --   1264.5167              1292.7214              1338.9559
 Red. masses --      1.4014                 1.4823                 1.3971
 Frc consts  --      1.3202                 1.4595                 1.4757
 IR Inten    --      4.7778                14.6902                 1.6781

                     34                     35                     36
                      A                      A                      A
 Frequencies --   1354.0361              1364.8872              1385.2594
 Red. masses --      1.2982                 1.5511                 1.4070
 Frc consts  --      1.4023                 1.7024                 1.5907
 IR Inten    --      3.9025                 1.1062                10.3613

                     37                     38                     39
                      A                      A                      A
 Frequencies --   1423.2202              1478.3531              1484.2652
 Red. masses --      1.6256                 1.1112                 1.4027
 Frc consts  --      1.9400                 1.4309                 1.8207
 IR Inten    --      6.8755                 4.3611                 9.5065

                     40                     41                     42
                      A                      A                      A
 Frequencies --   1503.0006              1524.1719              3009.4856
 Red. masses --      1.2995                 1.0871                 1.0704
 Frc consts  --      1.7296                 1.4880                 5.7121
 IR Inten    --      6.3267                 4.1133                52.4108

                     43                     44                     45
                      A                      A                      A
 Frequencies --   3039.5904              3071.9813              3087.2028
 Red. masses --      1.0574                 1.0646                 1.0947
 Frc consts  --      5.7560                 5.9192                 6.1474
 IR Inten    --     40.8103                14.1221                16.8665

                     46                     47                     48
                      A                      A                      A
 Frequencies --   3092.6507              3099.1034              3126.9715
 Red. masses --      1.0940                 1.1013                 1.0570
 Frc consts  --      6.1651                 6.2319                 6.0893
 IR Inten    --     37.7124                54.1562                12.2619

                     49                     50                     51
                      A                      A                      A
 Frequencies --   3140.7077              3154.5086              3217.6330
 Red. masses --      1.1016                 1.0883                 1.1147
 Frc consts  --      6.4022                 6.3804                 6.7996
 IR Inten    --     15.8212                 8.2882                 4.7452

 - Thermochemistry -
 -------------------
 Temperature   298.150 Kelvin.  Pressure   1.00000 Atm.
 Atom     1 has atomic number  6 and mass  12.00000

 Molecular mass:   126.06808 amu.
 Principal axes and moments of inertia in atomic units:
                           1         2         3
     Eigenvalues --   749.64679 803.022671153.70874
           X            0.95646   0.29187   0.00091
           Y           -0.29187   0.95646  -0.00091
           Z           -0.00114   0.00061   1.00000
 This molecule is an asymmetric top.
 Rotational symmetry number  1.
 Warning -- assumption of classical behavior for rotation
           may cause significant error
 Rotational temperatures (Kelvin)      0.11554     0.10786     0.07507
 Rotational constants (GHZ):           2.40746     2.24743     1.56430
 Zero-point vibrational energy     426154.1 (Joules/Mol)
                                  101.85328 (Kcal/Mol)
 Warning -- explicit consideration of   9 degrees of freedom as
           vibrations may cause significant error
 Vibrational temperatures:    283.45   392.64   507.78   553.47   596.17
          (Kelvin)            671.06   715.51   814.38   843.33  1057.09
                             1133.61  1170.25  1206.78  1235.79  1264.44
                             1289.66  1344.70  1363.17  1398.47  1455.30
                             1480.77  1513.76  1555.27  1574.28  1605.93
                             1649.02  1688.23  1744.02  1771.31  1793.61
                             1819.36  1859.94  1926.46  1948.15  1963.77
                             1993.08  2047.69  2127.02  2135.52  2162.48
                             2192.94  4329.97  4373.29  4419.89  4441.79
                             4449.63  4458.91  4499.01  4518.77  4538.63
                             4629.45

 Zero-point correction=                           0.162314 (Hartree/Particle)
 Thermal correction to Energy=                    0.168947
 Thermal correction to Enthalpy=                  0.169891
 Thermal correction to Gibbs Free Energy=         0.131797
 Sum of electronic and zero-point Energies=           -422.992654
 Sum of electronic and thermal Energies=              -422.986021
 Sum of electronic and thermal Enthalpies=            -422.985077
 Sum of electronic and thermal Free Energies=         -423.023171

                     E (Thermal)             CV                S
                      KCal/Mol        Cal/Mol-Kelvin    Cal/Mol-Kelvin
 Total                  106.016             28.446             80.176
 Electronic               0.000              0.000              0.000
 Translational            0.889              2.981             40.409
 Rotational               0.889              2.981             28.031
 Vibrational            104.238             22.485             11.736
 Vibration     1          0.636              1.844              2.161
 Vibration     2          0.676              1.723              1.578
 Vibration     3          0.729              1.569              1.153
 Vibration     4          0.754              1.503              1.021
 Vibration     5          0.778              1.439              0.911
 Vibration     6          0.824              1.325              0.748
 Vibration     7          0.853              1.256              0.665
 Vibration     8          0.922              1.105              0.512
 Vibration     9          0.943              1.061              0.474

 Optimization completed.
    -- Stationary point found.
 Normal termination of Gaussian 09 at Mon Jan 27 12:07:05 2020.
