 Gaussian 09, Revision D.01,
 Gaussian 09:  ES64L-G09RevD.01 24-Apr-2013

 -----------------------------
 # b3lyp 6-31G(2df,p) opt Freq
 -----------------------------

 -----
 titel
 -----
 Symbolic Z-matrix:
 Charge =  0 Multiplicity = 1

 SCF Done:  E(RB3LYP) =  -423.165372221     A.U. after   14 cycles
 Optimization completed.
    -- Stationary point found.
 Normal termination of Gaussian 09 at Mon Jan 27 15:32:43 2020.

 ----------------------------------------------------------------------
 #N Geom=AllCheck Guess=TCheck SCRF=Check GenChk RB3LYP/6-31G(2df,p) Fr
 eq
 ----------------------------------------------------------------------

 Structure from the checkpoint file:  "/scratch/puck/g09_4a677e7d-ccd8-4833-9964-b4d186470830/Gau-108034.chk"
 -----
 titel
 -----
 Charge =  0 Multiplicity = 1

                         Standard orientation:
 ---------------------------------------------------------------------
 Center     Atomic      Atomic             Coordinates (Angstroms)
 Number     Number       Type             X           Y           Z
 ---------------------------------------------------------------------
      1          6           0        3.395099    1.277005    0.060438
      2          6           0        2.520395    0.040146    0.260310
      3          8           0        2.795048   -0.956396   -0.722845
      4          6           0        1.031870    0.362587    0.142246
      5          6           0        0.148125   -0.883764    0.348232
      6          6           0       -1.273553   -0.607089    0.226096
      7          6           0       -2.447448   -0.341186    0.114351
      8          6           0       -3.855642   -0.074876   -0.002031
      9          8           0       -4.331791    0.973465   -0.376028
     10          1           0        3.178244    2.040104    0.814854
     11          1           0        4.457066    1.019451    0.145267
     12          1           0        3.226830    1.707541   -0.931608
     13          1           0        2.709440   -0.370193    1.267948
     14          1           0        3.728881   -1.182126   -0.670819
     15          1           0        0.768031    1.128759    0.878144
     16          1           0        0.835445    0.783153   -0.849976
     17          1           0        0.435955   -1.647700   -0.382728
     18          1           0        0.343572   -1.323217    1.336100
     19          1           0       -4.502603   -0.929255    0.285953
 ---------------------------------------------------------------------

 SCF Done:  E(RB3LYP) =  -423.165372221     A.U. after    1 cycles

 The electronic state is 1-A.
 Alpha  occ. eigenvalues --  -19.14489 -19.13609 -10.28218 -10.24452 -10.21685
 Alpha  occ. eigenvalues --  -10.20661 -10.19594 -10.18625 -10.18495  -1.04173
 Alpha  occ. eigenvalues --   -1.02725  -0.82075  -0.77499  -0.73976  -0.67670
 Alpha  occ. eigenvalues --   -0.63590  -0.59337  -0.52777  -0.51120  -0.48230
 Alpha  occ. eigenvalues --   -0.45589  -0.45319  -0.43953  -0.43401  -0.39725
 Alpha  occ. eigenvalues --   -0.39340  -0.37761  -0.37236  -0.36612  -0.33410
 Alpha  occ. eigenvalues --   -0.28222  -0.27637  -0.27237  -0.25943
 Alpha virt. eigenvalues --   -0.05373   0.03656   0.06140   0.10261   0.11024
 Alpha virt. eigenvalues --    0.11660   0.13024   0.13435   0.14166   0.16112
 Alpha virt. eigenvalues --    0.16709   0.17324   0.20527   0.20612   0.22318

 Mulliken charges:
               1
     1  C   -0.408781
     2  C    0.128779
     3  O   -0.434189
     4  C   -0.161808
     5  C   -0.372977
     6  C    0.076839
     7  C    0.048965
     8  C    0.021573
     9  O   -0.234038
    10  H    0.120598
    11  H    0.107463
    12  H    0.129635
    13  H    0.065209
    14  H    0.285008
    15  H    0.111962
    16  H    0.122168
    17  H    0.165036
    18  H    0.134156
    19  H    0.094402
 Sum of Mulliken charges =   0.00000

 Dipole moment (field-independent basis, Debye):
    X=              4.4046    Y=             -1.5896    Z=              1.5512  Tot=              4.9329
 Quadrupole moment (field-independent basis, Debye-Ang):
   XX=            -55.1333   YY=            -54.4606   ZZ=            -53.5896
   XY=              7.1904   XZ=             -1.3443   YZ=              0.1142

  Exact polarizability: 127.688  -6.718  69.915   3.354  -2.603  57.960
 Approx polarizability: 171.462 -26.155 108.451   9.726  -6.118  90.004

                      1                      2                      3
                      A                      A                      A
 Frequencies --     23.0102                51.0422                57.5750
 Red. masses --      3.7519                 3.1228                 5.0884
 Frc consts  --      0.0012                 0.0048                 0.0099
 IR Inten    --      5.7748                 2.0058                 2.3070

                      4                      5                      6
                      A                      A                      A
 Frequencies --    113.5560               161.5033               182.9386
 Red. masses --      2.3354                 4.7608                 2.9172
 Frc consts  --      0.0177                 0.0732                 0.0575
 IR Inten    --      3.5140                 0.4955                 5.2941

                      7                      8                      9
                      A                      A                      A
 Frequencies --    240.3805               246.8485               283.5375
 Red. masses --      1.1888                 3.0051                 1.1125
 Frc consts  --      0.0405                 0.1079                 0.0527
 IR Inten    --      0.9269                 5.4256                97.9182

                     10                     11                     12
                      A                      A                      A
 Frequencies --    327.5868               401.7844               448.6216
 Red. masses --      3.5138                 3.9110                 3.5996
 Frc consts  --      0.2222                 0.3720                 0.4268
 IR Inten    --      0.5732                 1.4070                10.5794

                     13                     14                     15
                      A                      A                      A
 Frequencies --    454.5628               500.9571               626.0943
 Red. masses --      2.9651                 2.7132                 7.1195
 Frc consts  --      0.3610                 0.4012                 1.6443
 IR Inten    --      7.9288                 3.2534                 1.7196

                     16                     17                     18
                      A                      A                      A
 Frequencies --    762.0839               826.9550               863.3490
 Red. masses --      1.3051                 4.2635                 2.5106
 Frc consts  --      0.4466                 1.7178                 1.1025
 IR Inten    --      1.7984                51.5801                32.1986

                     19                     20                     21
                      A                      A                      A
 Frequencies --    940.6367               960.5303              1023.1570
 Red. masses --      1.8709                 1.5513                 1.8268
 Frc consts  --      0.9753                 0.8433                 1.1267
 IR Inten    --     14.8916                 7.0355                 2.5318

                     22                     23                     24
                      A                      A                      A
 Frequencies --   1025.1139              1073.3901              1120.0500
 Red. masses --      3.6318                 1.8601                 1.9183
 Frc consts  --      2.2486                 1.2627                 1.4179
 IR Inten    --     14.3273                 6.7380                 5.1836

                     25                     26                     27
                      A                      A                      A
 Frequencies --   1132.7700              1160.8452              1185.1702
 Red. masses --      2.1705                 3.4351                 1.3186
 Frc consts  --      1.6410                 2.7274                 1.0912
 IR Inten    --     70.5923                51.1039                 0.5536

                     28                     29                     30
                      A                      A                      A
 Frequencies --   1275.4637              1286.9509              1319.6586
 Red. masses --      1.3262                 1.2488                 1.1037
 Frc consts  --      1.2712                 1.2186                 1.1325
 IR Inten    --     22.8762                27.5329                11.0214

                     31                     32                     33
                      A                      A                      A
 Frequencies --   1362.3244              1386.7824              1406.2822
 Red. masses --      1.3952                 1.3314                 1.2763
 Frc consts  --      1.5257                 1.5086                 1.4871
 IR Inten    --     15.5723                 4.0577                 9.3075

                     34                     35                     36
                      A                      A                      A
 Frequencies --   1423.7024              1428.2599              1459.7006
 Red. masses --      1.2029                 1.5144                 1.0790
 Frc consts  --      1.4365                 1.8202                 1.3546
 IR Inten    --     21.6462                12.9303                 2.1062

                     37                     38                     39
                      A                      A                      A
 Frequencies --   1479.9880              1492.2305              1499.3715
 Red. masses --      1.0997                 1.0530                 1.0939
 Frc consts  --      1.4191                 1.3815                 1.4490
 IR Inten    --      5.0244                 4.2616                 3.3323

                     40                     41                     42
                      A                      A                      A
 Frequencies --   1765.7059              2327.4816              2911.0280
 Red. masses --     10.5253                11.9276                 1.0812
 Frc consts  --     19.3339                38.0693                 5.3980
 IR Inten    --    253.0294               212.4616               110.5049

                     43                     44                     45
                      A                      A                      A
 Frequencies --   2944.6863              3019.2359              3029.2976
 Red. masses --      1.0820                 1.0656                 1.0361
 Frc consts  --      5.5280                 5.7234                 5.6018
 IR Inten    --     54.2465                 8.2694                18.8843

                     46                     47                     48
                      A                      A                      A
 Frequencies --   3050.1588              3069.4469              3096.0511
 Red. masses --      1.0598                 1.0917                 1.1006
 Frc consts  --      5.8092                 6.0599                 6.2158
 IR Inten    --     17.1638                 1.8099                27.3053

                     49                     50                     51
                      A                      A                      A
 Frequencies --   3099.0804              3115.1698              3823.4972
 Red. masses --      1.1035                 1.1022                 1.0663
 Frc consts  --      6.2444                 6.3019                 9.1841
 IR Inten    --     14.2949                30.4324                19.0455

 - Thermochemistry -
 -------------------
 Temperature   298.150 Kelvin.  Pressure   1.00000 Atm.
 Atom     1 has atomic number  6 and mass  12.00000

 Molecular mass:   126.06808 amu.
 Principal axes and moments of inertia in atomic units:
                           1         2         3
     Eigenvalues --   371.482623664.332963885.21862
           X            0.99986   0.01697   0.00023
           Y           -0.01697   0.99982  -0.00816
           Z           -0.00037   0.00815   0.99997
 This molecule is an asymmetric top.
 Rotational symmetry number  1.
 Rotational temperatures (Kelvin)      0.23316     0.02364     0.02229
 Rotational constants (GHZ):           4.85821     0.49252     0.46451
 Zero-point vibrational energy     408319.0 (Joules/Mol)
                                   97.59058 (Kcal/Mol)
 Warning -- explicit consideration of  14 degrees of freedom as
           vibrations may cause significant error
 Vibrational temperatures:     33.11    73.44    82.84   163.38   232.37
          (Kelvin)            263.21   345.85   355.16   407.95   471.32
                              578.08   645.47   654.01   720.76   900.81
                             1096.47  1189.80  1242.17  1353.36  1381.99
                             1472.09  1474.91  1544.37  1611.50  1629.80
                             1670.20  1705.19  1835.11  1851.63  1898.69
                             1960.08  1995.27  2023.32  2048.39  2054.94
                             2100.18  2129.37  2146.98  2157.26  2540.45
                             3348.72  4188.31  4236.74  4344.00  4358.48
                             4388.49  4416.24  4454.52  4458.88  4482.03
                             5501.15

 Zero-point correction=                           0.155520 (Hartree/Particle)
 Thermal correction to Energy=                    0.166423
 Thermal correction to Enthalpy=                  0.167367
 Thermal correction to Gibbs Free Energy=         0.117197
 Sum of electronic and zero-point Energies=           -423.009852
 Sum of electronic and thermal Energies=              -422.998949
 Sum of electronic and thermal Enthalpies=            -422.998005
 Sum of electronic and thermal Free Energies=         -423.048176

                     E (Thermal)             CV                S
                      KCal/Mol        Cal/Mol-Kelvin    Cal/Mol-Kelvin
 Total                  104.432             36.914            105.593
 Electronic               0.000              0.000              0.000
 Translational            0.889              2.981             40.409
 Rotational               0.889              2.981             30.049
 Vibrational            102.655             30.952             35.136
 Vibration     1          0.593              1.985              6.356
 Vibration     2          0.595              1.977              4.777
 Vibration     3          0.596              1.974              4.539
 Vibration     4          0.607              1.938              3.207
 Vibration     5          0.622              1.890              2.532
 Vibration     6          0.630              1.863              2.298
 Vibration     7          0.657              1.779              1.800
 Vibration     8          0.661              1.768              1.753
 Vibration     9          0.682              1.704              1.512
 Vibration    10          0.711              1.620              1.272
 Vibration    11          0.767              1.466              0.956
 Vibration    12          0.808              1.364              0.800
 Vibration    13          0.813              1.351              0.782
 Vibration    14          0.856              1.248              0.656

 Optimization completed.
    -- Stationary point found.
 Normal termination of Gaussian 09 at Mon Jan 27 16:02:13 2020.
