 Gaussian 09, Revision D.01,
 Gaussian 09:  ES64L-G09RevD.01 24-Apr-2013

 -----------------------------
 # b3lyp 6-31G(2df,p) opt Freq
 -----------------------------

 -----
 titel
 -----
 Symbolic Z-matrix:
 Charge =  0 Multiplicity = 1

 SCF Done:  E(RB3LYP) =  -423.173053143     A.U. after   14 cycles
 Optimization completed.
    -- Stationary point found.
 Normal termination of Gaussian 09 at Mon Jan 27 16:01:32 2020.

 ----------------------------------------------------------------------
 #N Geom=AllCheck Guess=TCheck SCRF=Check GenChk RB3LYP/6-31G(2df,p) Fr
 eq
 ----------------------------------------------------------------------

 Structure from the checkpoint file:  "/scratch/puck/g09_54552098-b8e8-4752-8981-77be131bcea7/Gau-175362.chk"
 -----
 titel
 -----
 Charge =  0 Multiplicity = 1

                         Standard orientation:
 ---------------------------------------------------------------------
 Center     Atomic      Atomic             Coordinates (Angstroms)
 Number     Number       Type             X           Y           Z
 ---------------------------------------------------------------------
      1          6           0       -2.335123   -0.351875    0.225932
      2          6           0       -0.857602   -0.484023   -0.071717
      3          8           0       -0.540508   -1.537894   -0.940583
      4          6           0        0.118077   -0.226341    1.071687
      5          6           0        1.492559   -0.790554    0.965669
      6          6           0        2.157377   -0.284052   -0.073976
      7          6           0        1.329328    0.723722   -0.838252
      8          6           0       -0.002283    0.768146   -0.076103
      9          8           0       -0.583827    2.018971    0.160176
     10          1           0       -2.716536   -1.282632    0.656761
     11          1           0       -2.528781    0.469893    0.918016
     12          1           0       -2.902496   -0.153294   -0.693460
     13          1           0       -0.924816   -1.336083   -1.801030
     14          1           0       -0.321031   -0.017525    2.041978
     15          1           0        1.870451   -1.538866    1.652174
     16          1           0        3.159136   -0.564487   -0.378363
     17          1           0        1.782233    1.723412   -0.843206
     18          1           0        1.199912    0.422266   -1.886407
     19          1           0       -1.037391    2.298569   -0.642659
 ---------------------------------------------------------------------

 SCF Done:  E(RB3LYP) =  -423.173053143     A.U. after    1 cycles

 The electronic state is 1-A.
 Alpha  occ. eigenvalues --  -19.14496 -19.14022 -10.23654 -10.23001 -10.18174
 Alpha  occ. eigenvalues --  -10.18170 -10.17779 -10.17372 -10.17220  -1.03474
 Alpha  occ. eigenvalues --   -1.02034  -0.86443  -0.77113  -0.70244  -0.69609
 Alpha  occ. eigenvalues --   -0.58577  -0.56860  -0.53783  -0.52016  -0.49696
 Alpha  occ. eigenvalues --   -0.44878  -0.42473  -0.42078  -0.40675  -0.40365
 Alpha  occ. eigenvalues --   -0.37837  -0.37090  -0.36109  -0.35168  -0.32183
 Alpha  occ. eigenvalues --   -0.29852  -0.27690  -0.23821  -0.22103
 Alpha virt. eigenvalues --    0.02528   0.06240   0.08380   0.12343   0.13220
 Alpha virt. eigenvalues --    0.13789   0.14500   0.16456   0.17240   0.17442
 Alpha virt. eigenvalues --    0.17989   0.19170   0.19929   0.22718   0.23771

 Mulliken charges:
               1
     1  C   -0.462730
     2  C    0.323807
     3  O   -0.448971
     4  C   -0.189224
     5  C   -0.060027
     6  C   -0.062958
     7  C   -0.335147
     8  C    0.293560
     9  O   -0.462093
    10  H    0.127127
    11  H    0.135341
    12  H    0.098038
    13  H    0.277602
    14  H    0.092723
    15  H    0.094049
    16  H    0.092108
    17  H    0.110380
    18  H    0.095686
    19  H    0.280728
 Sum of Mulliken charges =   0.00000

 Dipole moment (field-independent basis, Debye):
    X=             -1.0605    Y=              0.5333    Z=             -1.7983  Tot=              2.1548
 Quadrupole moment (field-independent basis, Debye-Ang):
   XX=            -50.0601   YY=            -56.9547   ZZ=            -48.1044
   XY=             -1.1123   XZ=              1.9818   YZ=             -3.9254

  Exact polarizability:  87.238  -0.571  69.130  -3.018  -7.171  72.717
 Approx polarizability: 116.191   1.160 105.935  -7.484 -12.800 118.967

                      1                      2                      3
                      A                      A                      A
 Frequencies --    187.6903               189.6898               199.9796
 Red. masses --      1.8802                 2.0630                 2.6735
 Frc consts  --      0.0390                 0.0437                 0.0630
 IR Inten    --      1.1701                 0.4489                 0.4517

                      4                      5                      6
                      A                      A                      A
 Frequencies --    210.5835               238.5596               261.9722
 Red. masses --      1.6591                 1.2525                 1.1832
 Frc consts  --      0.0433                 0.0420                 0.0478
 IR Inten    --      2.7958                53.8670               125.2022

                      7                      8                      9
                      A                      A                      A
 Frequencies --    299.8693               362.7964               381.5297
 Red. masses --      2.6630                 3.0993                 2.9211
 Frc consts  --      0.1411                 0.2404                 0.2505
 IR Inten    --     17.2313                 1.4363                 5.6947

                     10                     11                     12
                      A                      A                      A
 Frequencies --    419.9031               489.1548               574.9703
 Red. masses --      3.3234                 3.4908                 3.2125
 Frc consts  --      0.3452                 0.4921                 0.6257
 IR Inten    --      7.7201                 6.9389                 4.7041

                     13                     14                     15
                      A                      A                      A
 Frequencies --    626.8944               674.4776               724.2831
 Red. masses --      3.7921                 2.6202                 3.2664
 Frc consts  --      0.8780                 0.7023                 1.0096
 IR Inten    --      2.6526                 7.2678                 7.7355

                     16                     17                     18
                      A                      A                      A
 Frequencies --    763.3646               810.7721               909.9198
 Red. masses --      1.7571                 4.5029                 3.0032
 Frc consts  --      0.6033                 1.7440                 1.4650
 IR Inten    --     33.7759                 5.5194                 3.5963

                     19                     20                     21
                      A                      A                      A
 Frequencies --    943.2353               945.9995               960.5690
 Red. masses --      1.9716                 1.6629                 1.3803
 Frc consts  --      1.0335                 0.8768                 0.7504
 IR Inten    --     27.1331                10.8108                 3.9772

                     22                     23                     24
                      A                      A                      A
 Frequencies --    988.7955               993.0907              1051.0226
 Red. masses --      1.8883                 1.9868                 1.7440
 Frc consts  --      1.0877                 1.1544                 1.1351
 IR Inten    --      3.3263                12.9022                 0.9815

                     25                     26                     27
                      A                      A                      A
 Frequencies --   1077.2173              1112.3994              1132.0192
 Red. masses --      1.6426                 2.0971                 1.2009
 Frc consts  --      1.1231                 1.5289                 0.9067
 IR Inten    --     13.6154                34.8452                 4.7018

                     28                     29                     30
                      A                      A                      A
 Frequencies --   1153.4698              1195.5636              1243.6194
 Red. masses --      1.5816                 2.1783                 2.0605
 Frc consts  --      1.2398                 1.8345                 1.8776
 IR Inten    --     25.9212                84.5765                12.6456

                     31                     32                     33
                      A                      A                      A
 Frequencies --   1267.3820              1294.5315              1312.2218
 Red. masses --      2.0418                 1.6988                 1.4862
 Frc consts  --      1.9323                 1.6774                 1.5078
 IR Inten    --     20.5869                54.5288                 0.9652

                     34                     35                     36
                      A                      A                      A
 Frequencies --   1342.6119              1371.9128              1407.2905
 Red. masses --      1.6863                 1.8256                 1.3252
 Frc consts  --      1.7910                 2.0245                 1.5464
 IR Inten    --     11.3182                15.5487                 4.9404

                     37                     38                     39
                      A                      A                      A
 Frequencies --   1430.6431              1467.0703              1490.0715
 Red. masses --      2.4583                 1.1474                 1.0574
 Frc consts  --      2.9645                 1.4551                 1.3832
 IR Inten    --     15.6160                 1.8497                 4.7528

                     40                     41                     42
                      A                      A                      A
 Frequencies --   1501.4909              1673.6748              3014.1035
 Red. masses --      1.1417                 6.1945                 1.0588
 Frc consts  --      1.5166                10.2235                 5.6675
 IR Inten    --      6.5369                 2.4180                38.0916

                     43                     44                     45
                      A                      A                      A
 Frequencies --   3017.0565              3047.7097              3086.3249
 Red. masses --      1.0467                 1.1012                 1.0902
 Frc consts  --      5.6133                 6.0264                 6.1184
 IR Inten    --     42.4144                19.8380                20.4915

                     46                     47                     48
                      A                      A                      A
 Frequencies --   3135.8153              3163.0830              3189.0886
 Red. masses --      1.0997                 1.0895                 1.0849
 Frc consts  --      6.3714                 6.4224                 6.5008
 IR Inten    --     10.2539                11.5743                 7.0231

                     49                     50                     51
                      A                      A                      A
 Frequencies --   3213.7943              3791.0845              3792.7117
 Red. masses --      1.1042                 1.0663                 1.0660
 Frc consts  --      6.7196                 9.0292                 9.0343
 IR Inten    --     25.2135                 6.3455                21.9384

 - Thermochemistry -
 -------------------
 Temperature   298.150 Kelvin.  Pressure   1.00000 Atm.
 Atom     1 has atomic number  6 and mass  12.00000

 Molecular mass:   126.06808 amu.
 Principal axes and moments of inertia in atomic units:
                           1         2         3
     Eigenvalues --   750.898341058.397141342.24375
           X            0.99990   0.00459  -0.01372
           Y           -0.00527   0.99874  -0.04984
           Z            0.01347   0.04991   0.99866
 This molecule is an asymmetric top.
 Rotational symmetry number  1.
 Warning -- assumption of classical behavior for rotation
           may cause significant error
 Rotational temperatures (Kelvin)      0.11535     0.08183     0.06453
 Rotational constants (GHZ):           2.40344     1.70516     1.34457
 Zero-point vibrational energy     413507.7 (Joules/Mol)
                                   98.83071 (Kcal/Mol)
 Warning -- explicit consideration of  12 degrees of freedom as
           vibrations may cause significant error
 Vibrational temperatures:    270.04   272.92   287.73   302.98   343.23
          (Kelvin)            376.92   431.44   521.98   548.94   604.15
                              703.78   827.25   901.96   970.42  1042.08
                             1098.31  1166.52  1309.17  1357.10  1361.08
                             1382.04  1422.65  1428.83  1512.19  1549.87
                             1600.49  1628.72  1659.58  1720.15  1789.29
                             1823.48  1862.54  1887.99  1931.72  1973.87
                             2024.77  2058.37  2110.78  2143.88  2160.31
                             2408.04  4336.62  4340.87  4384.97  4440.53
                             4511.73  4550.97  4588.38  4623.93  5454.52
                             5456.86

 Zero-point correction=                           0.157497 (Hartree/Particle)
 Thermal correction to Energy=                    0.166396
 Thermal correction to Enthalpy=                  0.167340
 Thermal correction to Gibbs Free Energy=         0.124893
 Sum of electronic and zero-point Energies=           -423.015556
 Sum of electronic and thermal Energies=              -423.006658
 Sum of electronic and thermal Enthalpies=            -423.005713
 Sum of electronic and thermal Free Energies=         -423.048160

                     E (Thermal)             CV                S
                      KCal/Mol        Cal/Mol-Kelvin    Cal/Mol-Kelvin
 Total                  104.415             34.881             89.337
 Electronic               0.000              0.000              0.000
 Translational            0.889              2.981             40.409
 Rotational               0.889              2.981             28.458
 Vibrational            102.637             28.919             20.471
 Vibration     1          0.632              1.857              2.251
 Vibration     2          0.633              1.854              2.231
 Vibration     3          0.638              1.840              2.133
 Vibration     4          0.643              1.825              2.039
 Vibration     5          0.657              1.782              1.814
 Vibration     6          0.669              1.742              1.649
 Vibration     7          0.692              1.674              1.418
 Vibration     8          0.737              1.549              1.110
 Vibration     9          0.751              1.510              1.033
 Vibration    10          0.783              1.427              0.892
 Vibration    11          0.845              1.274              0.686
 Vibration    12          0.931              1.085              0.495

 Normal termination of Gaussian 09 at Mon Jan 27 16:48:36 2020.
