 Gaussian 09, Revision D.01,
 Gaussian 09:  ES64L-G09RevD.01 24-Apr-2013

 -----------------------------
 # b3lyp 6-31G(2df,p) opt Freq
 -----------------------------

 -----
 titel
 -----
 Symbolic Z-matrix:
 Charge =  0 Multiplicity = 1

 SCF Done:  E(RB3LYP) =  -423.133948256     A.U. after   13 cycles
 Optimization completed.
    -- Stationary point found.
 Normal termination of Gaussian 09 at Tue Jan 28 01:52:56 2020.

 ----------------------------------------------------------------------
 #N Geom=AllCheck Guess=TCheck SCRF=Check GenChk RB3LYP/6-31G(2df,p) Fr
 eq
 ----------------------------------------------------------------------

 Structure from the checkpoint file:  "/scratch/puck/g09_99a41f01-abda-40dc-a34f-a77e4ea195c1/Gau-190725.chk"
 -----
 titel
 -----
 Charge =  0 Multiplicity = 1

                         Standard orientation:
 ---------------------------------------------------------------------
 Center     Atomic      Atomic             Coordinates (Angstroms)
 Number     Number       Type             X           Y           Z
 ---------------------------------------------------------------------
      1          6           0       -2.750712   -0.900629   -0.502366
      2          6           0       -1.904376    0.340965   -0.393120
      3          8           0       -1.533500    0.756701    0.935658
      4          6           0       -0.509124    0.326306    0.047283
      5          6           0        0.662262    1.217744   -0.418959
      6          6           0        1.591621    0.023185   -0.137486
      7          8           0        2.617964   -0.371447   -0.974345
      8          6           0        1.488280   -0.410106    1.293887
      9          6           0        0.412457   -0.840231    0.308885
     10          1           0       -3.785641   -0.684856   -0.216899
     11          1           0       -2.757061   -1.271990   -1.533045
     12          1           0       -2.374198   -1.689700    0.153143
     13          1           0       -2.211744    1.168617   -1.036763
     14          1           0        0.607420    1.453872   -1.484894
     15          1           0        0.837200    2.133265    0.154929
     16          1           0        3.427339    0.065858   -0.687793
     17          1           0        2.171356   -1.207845    1.568189
     18          1           0        1.257780    0.293035    2.090290
     19          1           0        0.209385   -1.885696    0.113596
 ---------------------------------------------------------------------

 SCF Done:  E(RB3LYP) =  -423.133948256     A.U. after    1 cycles

 The electronic state is 1-A.
 Alpha  occ. eigenvalues --  -19.15142 -19.13869 -10.24544 -10.23793 -10.23193
 Alpha  occ. eigenvalues --  -10.19153 -10.18908 -10.18396 -10.18050  -1.06121
 Alpha  occ. eigenvalues --   -1.03788  -0.88748  -0.74208  -0.72566  -0.63939
 Alpha  occ. eigenvalues --   -0.60657  -0.59326  -0.52995  -0.52595  -0.47912
 Alpha  occ. eigenvalues --   -0.47446  -0.43927  -0.42636  -0.41807  -0.40757
 Alpha  occ. eigenvalues --   -0.39361  -0.37746  -0.36269  -0.33958  -0.32781
 Alpha  occ. eigenvalues --   -0.29544  -0.26169  -0.25851  -0.24966
 Alpha virt. eigenvalues --    0.07620   0.08755   0.10868   0.11550   0.12568
 Alpha virt. eigenvalues --    0.12789   0.13939   0.14010   0.15914   0.16988
 Alpha virt. eigenvalues --    0.17415   0.18182   0.19608   0.20416   0.22528

 Mulliken charges:
               1
     1  C   -0.416614
     2  C   -0.031238
     3  O   -0.302641
     4  C    0.465281
     5  C   -0.401872
     6  C    0.398142
     7  O   -0.460594
     8  C   -0.343233
     9  C   -0.208155
    10  H    0.129252
    11  H    0.121682
    12  H    0.127538
    13  H    0.086469
    14  H    0.114416
    15  H    0.103113
    16  H    0.287767
    17  H    0.115094
    18  H    0.118574
    19  H    0.097018
 Sum of Mulliken charges =   0.00000

 Dipole moment (field-independent basis, Debye):
    X=              1.0690    Y=             -0.0317    Z=             -0.6644  Tot=              1.2591
 Quadrupole moment (field-independent basis, Debye-Ang):
   XX=            -47.0212   YY=            -52.5572   ZZ=            -55.8023
   XY=              3.7537   XZ=              5.7254   YZ=             -2.5152

  Exact polarizability:  93.202   1.887  69.122   5.060  -2.346  67.151
 Approx polarizability: 120.736   1.477 101.792   2.538  -0.127 105.727

                      1                      2                      3
                      A                      A                      A
 Frequencies --     89.3644               160.6039               188.5400
 Red. masses --      3.8822                 2.5062                 1.1643
 Frc consts  --      0.0183                 0.0381                 0.0244
 IR Inten    --      3.0710                 2.2548                 0.3418

                      4                      5                      6
                      A                      A                      A
 Frequencies --    207.4612               253.8610               314.7506
 Red. masses --      3.1096                 1.1694                 2.6286
 Frc consts  --      0.0789                 0.0444                 0.1534
 IR Inten    --      4.2315                86.4600                 1.4736

                      7                      8                      9
                      A                      A                      A
 Frequencies --    383.4780               400.3205               441.4654
 Red. masses --      3.9926                 2.3114                 3.0506
 Frc consts  --      0.3459                 0.2182                 0.3503
 IR Inten    --     13.0435                 5.7172                 2.4568

                     10                     11                     12
                      A                      A                      A
 Frequencies --    463.3416               513.9450               550.4266
 Red. masses --      3.1429                 3.2005                 3.0164
 Frc consts  --      0.3975                 0.4981                 0.5384
 IR Inten    --      3.2367                 3.3259                 7.8571

                     13                     14                     15
                      A                      A                      A
 Frequencies --    670.8865               760.1675               785.6607
 Red. masses --      2.8503                 3.4293                 2.8892
 Frc consts  --      0.7558                 1.1676                 1.0507
 IR Inten    --      2.7853                17.2488                25.1444

                     16                     17                     18
                      A                      A                      A
 Frequencies --    841.9399               893.7927               929.1828
 Red. masses --      3.4299                 2.2813                 1.6307
 Frc consts  --      1.4325                 1.0738                 0.8295
 IR Inten    --     16.2161                17.2586                 6.5742

                     19                     20                     21
                      A                      A                      A
 Frequencies --    954.9367               970.0210              1002.6223
 Red. masses --      1.8124                 1.2989                 1.3848
 Frc consts  --      0.9738                 0.7201                 0.8202
 IR Inten    --     16.4806                 3.0007                 5.4190

                     22                     23                     24
                      A                      A                      A
 Frequencies --   1017.2553              1028.8927              1069.8644
 Red. masses --      2.4011                 2.3109                 1.3361
 Frc consts  --      1.4639                 1.4414                 0.9011
 IR Inten    --     21.3458                12.1033                 7.0184

                     25                     26                     27
                      A                      A                      A
 Frequencies --   1090.5860              1116.9744              1127.4848
 Red. masses --      2.0908                 2.2832                 1.7620
 Frc consts  --      1.4651                 1.6783                 1.3197
 IR Inten    --      3.5338                 8.5246                18.5937

                     28                     29                     30
                      A                      A                      A
 Frequencies --   1144.0162              1180.9143              1219.9101
 Red. masses --      1.9181                 1.5710                 1.5256
 Frc consts  --      1.4791                 1.2908                 1.3376
 IR Inten    --     33.8634                 7.0819                 3.0374

                     31                     32                     33
                      A                      A                      A
 Frequencies --   1239.3856              1266.3161              1303.2415
 Red. masses --      1.7810                 3.5867                 1.4608
 Frc consts  --      1.6118                 3.3887                 1.4618
 IR Inten    --     37.9204                23.0002                60.0593

                     34                     35                     36
                      A                      A                      A
 Frequencies --   1364.9029              1404.9693              1408.5099
 Red. masses --      1.3884                 2.0987                 1.2780
 Frc consts  --      1.5240                 2.4408                 1.4939
 IR Inten    --     26.4442                49.0752                 4.6872

                     37                     38                     39
                      A                      A                      A
 Frequencies --   1467.7345              1475.5031              1490.4392
 Red. masses --      1.1571                 1.1906                 1.1232
 Frc consts  --      1.4687                 1.5271                 1.4701
 IR Inten    --      1.4295                 6.4830                14.8804

                     40                     41                     42
                      A                      A                      A
 Frequencies --   1499.5458              1531.2631              3036.2589
 Red. masses --      1.3330                 3.0422                 1.0362
 Frc consts  --      1.7661                 4.2027                 5.6284
 IR Inten    --     12.0213                 9.0017                19.6694

                     43                     44                     45
                      A                      A                      A
 Frequencies --   3048.4126              3078.7550              3099.3610
 Red. masses --      1.0588                 1.0866                 1.1006
 Frc consts  --      5.7973                 6.0682                 6.2293
 IR Inten    --     29.8506                25.9618                17.5885

                     46                     47                     48
                      A                      A                      A
 Frequencies --   3108.9727              3111.7432              3126.6610
 Red. masses --      1.1065                 1.0552                 1.1008
 Frc consts  --      6.3013                 6.0200                 6.3405
 IR Inten    --     13.9560                16.7199                26.0519

                     49                     50                     51
                      A                      A                      A
 Frequencies --   3193.3350              3207.5394              3795.1016
 Red. masses --      1.0958                 1.1126                 1.0661
 Frc consts  --      6.5839                 6.7445                 9.0471
 IR Inten    --      4.8795                 9.6215                25.7352

 - Thermochemistry -
 -------------------
 Temperature   298.150 Kelvin.  Pressure   1.00000 Atm.
 Atom     1 has atomic number  6 and mass  12.00000

 Molecular mass:   126.06808 amu.
 Principal axes and moments of inertia in atomic units:
                           1         2         3
     Eigenvalues --   502.038341675.566781693.28485
           X            0.99927   0.03797  -0.00283
           Y           -0.02358   0.67552   0.73696
           Z           -0.02989   0.73636  -0.67593
 This molecule is an asymmetric top.
 Rotational symmetry number  1.
 Warning -- assumption of classical behavior for rotation
           may cause significant error
 Rotational temperatures (Kelvin)      0.17252     0.05169     0.05115
 Rotational constants (GHZ):           3.59483     1.07709     1.06582
 Zero-point vibrational energy     412894.8 (Joules/Mol)
                                   98.68422 (Kcal/Mol)
 Warning -- explicit consideration of  12 degrees of freedom as
           vibrations may cause significant error
 Vibrational temperatures:    128.58   231.07   271.27   298.49   365.25
          (Kelvin)            452.86   551.74   575.97   635.17   666.64
                              739.45   791.94   965.25  1093.71  1130.39
                             1211.36  1285.97  1336.89  1373.94  1395.64
                             1442.55  1463.60  1480.35  1539.29  1569.11
                             1607.07  1622.20  1645.98  1699.07  1755.18
                             1783.20  1821.94  1875.07  1963.79  2021.43
                             2026.53  2111.74  2122.92  2144.41  2157.51
                             2203.14  4368.49  4385.98  4429.64  4459.28
                             4473.11  4477.10  4498.56  4594.49  4614.93
                             5460.30

 Zero-point correction=                           0.157263 (Hartree/Particle)
 Thermal correction to Energy=                    0.165948
 Thermal correction to Enthalpy=                  0.166892
 Thermal correction to Gibbs Free Energy=         0.124238
 Sum of electronic and zero-point Energies=           -422.976685
 Sum of electronic and thermal Energies=              -422.968000
 Sum of electronic and thermal Enthalpies=            -422.967056
 Sum of electronic and thermal Free Energies=         -423.009710

                     E (Thermal)             CV                S
                      KCal/Mol        Cal/Mol-Kelvin    Cal/Mol-Kelvin
 Total                  104.134             33.670             89.774
 Electronic               0.000              0.000              0.000
 Translational            0.889              2.981             40.409
 Rotational               0.889              2.981             28.745
 Vibrational            102.357             27.708             20.621
 Vibration     1          0.602              1.957              3.674
 Vibration     2          0.622              1.891              2.543
 Vibration     3          0.633              1.856              2.242
 Vibration     4          0.641              1.829              2.066
 Vibration     5          0.665              1.756              1.704
 Vibration     6          0.702              1.646              1.337
 Vibration     7          0.753              1.505              1.025
 Vibration     8          0.766              1.469              0.961
 Vibration     9          0.801              1.380              0.822
 Vibration    10          0.821              1.331              0.756
 Vibration    11          0.869              1.219              0.624
 Vibration    12          0.906              1.139              0.543

 Optimization completed.
    -- Stationary point found.
 Normal termination of Gaussian 09 at Tue Jan 28 02:40:24 2020.
