 Gaussian 09, Revision D.01,
 Gaussian 09:  ES64L-G09RevD.01 24-Apr-2013

 -----------------------------
 # b3lyp 6-31G(2df,p) opt Freq
 -----------------------------

 -----
 titel
 -----
 Symbolic Z-matrix:
 Charge =  0 Multiplicity = 1

 SCF Done:  E(RB3LYP) =  -423.104779081     A.U. after   14 cycles
 Optimization completed.
    -- Stationary point found.
 Normal termination of Gaussian 09 at Tue Jan 28 09:24:59 2020.

 ----------------------------------------------------------------------
 #N Geom=AllCheck Guess=TCheck SCRF=Check GenChk RB3LYP/6-31G(2df,p) Fr
 eq
 ----------------------------------------------------------------------

 Structure from the checkpoint file:  "/scratch/puck/g09_99261aff-2526-4d29-929a-e617e299b3a1/Gau-189000.chk"
 -----
 titel
 -----
 Charge =  0 Multiplicity = 1

                         Standard orientation:
 ---------------------------------------------------------------------
 Center     Atomic      Atomic             Coordinates (Angstroms)
 Number     Number       Type             X           Y           Z
 ---------------------------------------------------------------------
      1          6           0        3.001989    0.557784   -0.157857
      2          6           0        1.970043   -0.458841   -0.665951
      3          6           0        0.616138   -0.245667   -0.066642
      4          8           0        0.395112   -0.653800    1.301525
      5          6           0       -0.488340   -1.136935    0.275845
      6          6           0       -1.534306   -0.019649   -0.073997
      7          8           0       -2.734576   -0.265988   -0.707536
      8          6           0       -1.322416    1.206715    0.744083
      9          6           0       -0.378061    0.918606   -0.413639
     10          1           0        2.696255    1.582752   -0.391511
     11          1           0        3.115197    0.481045    0.927324
     12          1           0        3.979264    0.384724   -0.617558
     13          1           0        1.885676   -0.393035   -1.758335
     14          1           0        2.295997   -1.477798   -0.429765
     15          1           0       -0.622805   -2.210055    0.181776
     16          1           0       -2.553928   -0.678144   -1.559978
     17          1           0       -2.039827    1.991961    0.527203
     18          1           0       -0.975827    1.151092    1.768303
     19          1           0       -0.254560    1.593682   -1.250425
 ---------------------------------------------------------------------

 SCF Done:  E(RB3LYP) =  -423.104779081     A.U. after    1 cycles

 The electronic state is 1-A.
 Alpha  occ. eigenvalues --  -19.15557 -19.14901 -10.24276 -10.24034 -10.23200
 Alpha  occ. eigenvalues --  -10.19283 -10.18895 -10.18395 -10.17795  -1.07504
 Alpha  occ. eigenvalues --   -1.03800  -0.85823  -0.78039  -0.69194  -0.65296
 Alpha  occ. eigenvalues --   -0.61730  -0.57124  -0.54345  -0.52824  -0.49009
 Alpha  occ. eigenvalues --   -0.46703  -0.44472  -0.43010  -0.40220  -0.39314
 Alpha  occ. eigenvalues --   -0.38147  -0.37148  -0.35829  -0.34689  -0.33328
 Alpha  occ. eigenvalues --   -0.32233  -0.28620  -0.24784  -0.22136
 Alpha virt. eigenvalues --    0.06210   0.07075   0.09883   0.11179   0.11752
 Alpha virt. eigenvalues --    0.13929   0.14625   0.15318   0.15830   0.16888
 Alpha virt. eigenvalues --    0.17533   0.18587   0.19059   0.21012   0.22055

 Mulliken charges:
               1
     1  C   -0.378865
     2  C   -0.303609
     3  C    0.453415
     4  O   -0.284336
     5  C   -0.175302
     6  C    0.370644
     7  O   -0.447925
     8  C   -0.312136
     9  C   -0.240667
    10  H    0.122530
    11  H    0.135699
    12  H    0.113939
    13  H    0.101591
    14  H    0.111809
    15  H    0.101792
    16  H    0.286558
    17  H    0.117556
    18  H    0.134884
    19  H    0.092421
 Sum of Mulliken charges =   0.00000

 Dipole moment (field-independent basis, Debye):
    X=              0.8214    Y=             -0.3614    Z=             -2.5584  Tot=              2.7112
 Quadrupole moment (field-independent basis, Debye-Ang):
   XX=            -56.0885   YY=            -50.5890   ZZ=            -52.1653
   XY=              0.6981   XZ=              0.7377   YZ=              2.1412

  Exact polarizability:  86.768   0.187  72.262  -1.544   1.356  65.603
 Approx polarizability: 114.986   4.263 107.614  -0.702  -0.579 106.047

                      1                      2                      3
                      A                      A                      A
 Frequencies --     77.3484               123.4012               191.8127
 Red. masses --      2.7146                 3.3990                 1.3458
 Frc consts  --      0.0096                 0.0305                 0.0292
 IR Inten    --      0.4460                 0.3889                 0.0485

                      4                      5                      6
                      A                      A                      A
 Frequencies --    237.3733               300.0812               324.8247
 Red. masses --      2.2250                 1.3695                 2.3304
 Frc consts  --      0.0739                 0.0727                 0.1449
 IR Inten    --      1.5240                34.7188                 1.1657

                      7                      8                      9
                      A                      A                      A
 Frequencies --    350.5856               406.6531               433.2975
 Red. masses --      2.7945                 3.0202                 2.8110
 Frc consts  --      0.2024                 0.2943                 0.3109
 IR Inten    --     60.2910                10.6261                 6.6750

                     10                     11                     12
                      A                      A                      A
 Frequencies --    479.5510               535.2730               629.3737
 Red. masses --      2.9454                 4.2517                 3.2027
 Frc consts  --      0.3991                 0.7177                 0.7474
 IR Inten    --      3.2288                 6.8488                 7.6622

                     13                     14                     15
                      A                      A                      A
 Frequencies --    651.2968               737.6059               806.6593
 Red. masses --      3.5562                 2.4313                 1.4909
 Frc consts  --      0.8888                 0.7793                 0.5716
 IR Inten    --      7.9064                 2.8611                 4.8138

                     16                     17                     18
                      A                      A                      A
 Frequencies --    828.7336               848.2035               899.6393
 Red. masses --      3.3830                 3.5642                 1.5258
 Frc consts  --      1.3689                 1.5108                 0.7276
 IR Inten    --      6.6863                 4.5120                 2.6209

                     19                     20                     21
                      A                      A                      A
 Frequencies --    920.0935               947.1643               963.2920
 Red. masses --      2.6774                 2.0317                 2.1449
 Frc consts  --      1.3355                 1.0739                 1.1727
 IR Inten    --     16.6316                12.7153                21.2700

                     22                     23                     24
                      A                      A                      A
 Frequencies --    989.6270              1005.3376              1023.6155
 Red. masses --      1.5256                 1.8142                 1.9279
 Frc consts  --      0.8803                 1.0803                 1.1902
 IR Inten    --      5.8798                 9.7931                 9.0906

                     25                     26                     27
                      A                      A                      A
 Frequencies --   1066.4202              1103.0358              1111.6190
 Red. masses --      2.4667                 1.3276                 1.9398
 Frc consts  --      1.6528                 0.9517                 1.4123
 IR Inten    --      6.5061                 3.0201                 3.0620

                     28                     29                     30
                      A                      A                      A
 Frequencies --   1167.2231              1169.8883              1215.8442
 Red. masses --      1.5910                 1.6854                 2.0274
 Frc consts  --      1.2771                 1.3591                 1.7658
 IR Inten    --      1.4343                32.5909                 3.8696

                     31                     32                     33
                      A                      A                      A
 Frequencies --   1251.6629              1299.6118              1323.4296
 Red. masses --      1.8134                 1.3915                 1.7235
 Frc consts  --      1.6738                 1.3847                 1.7785
 IR Inten    --     44.2503               100.7686                49.9084

                     34                     35                     36
                      A                      A                      A
 Frequencies --   1346.3657              1403.9722              1408.8158
 Red. masses --      1.5335                 1.6052                 1.2343
 Frc consts  --      1.6378                 1.8642                 1.4434
 IR Inten    --     11.9270                 8.9076                 1.2382

                     37                     38                     39
                      A                      A                      A
 Frequencies --   1460.7433              1473.3408              1490.2361
 Red. masses --      1.7961                 1.2863                 2.1280
 Frc consts  --      2.2581                 1.6451                 2.7844
 IR Inten    --      6.5885                11.5478                16.3397

                     40                     41                     42
                      A                      A                      A
 Frequencies --   1497.7555              1511.0799              3026.5695
 Red. masses --      1.0440                 1.2538                 1.0621
 Frc consts  --      1.3798                 1.6867                 5.7321
 IR Inten    --      5.0183                 5.5345                22.2718

                     43                     44                     45
                      A                      A                      A
 Frequencies --   3040.5794              3071.2869              3110.3330
 Red. masses --      1.0350                 1.0991                 1.1015
 Frc consts  --      5.6375                 6.1084                 6.2786
 IR Inten    --     22.2057                 9.3213                34.4049

                     46                     47                     48
                      A                      A                      A
 Frequencies --   3118.9673              3140.0250              3166.2123
 Red. masses --      1.1025                 1.0533                 1.0945
 Frc consts  --      6.3192                 6.1189                 6.4648
 IR Inten    --     23.6680                11.9743                17.6984

                     49                     50                     51
                      A                      A                      A
 Frequencies --   3201.6538              3234.2780              3787.6388
 Red. masses --      1.0937                 1.1158                 1.0661
 Frc consts  --      6.6053                 6.8766                 9.0110
 IR Inten    --      5.2397                 2.8013                18.0408

 - Thermochemistry -
 -------------------
 Temperature   298.150 Kelvin.  Pressure   1.00000 Atm.
 Atom     1 has atomic number  6 and mass  12.00000

 Molecular mass:   126.06808 amu.
 Principal axes and moments of inertia in atomic units:
                           1         2         3
     Eigenvalues --   496.820381610.673051663.97715
           X            0.99993   0.00464  -0.01056
           Y           -0.00271   0.98445   0.17567
           Z            0.01121  -0.17563   0.98439
 This molecule is an asymmetric top.
 Rotational symmetry number  1.
 Warning -- assumption of classical behavior for rotation
           may cause significant error
 Rotational temperatures (Kelvin)      0.17434     0.05377     0.05205
 Rotational constants (GHZ):           3.63258     1.12049     1.08459
 Zero-point vibrational energy     412169.9 (Joules/Mol)
                                   98.51098 (Kcal/Mol)
 Warning -- explicit consideration of  11 degrees of freedom as
           vibrations may cause significant error
 Vibrational temperatures:    111.29   177.55   275.98   341.53   431.75
          (Kelvin)            467.35   504.41   585.08   623.42   689.97
                              770.14   905.53   937.07  1061.25  1160.60
                             1192.36  1220.37  1294.38  1323.81  1362.76
                             1385.96  1423.85  1446.45  1472.75  1534.34
                             1587.02  1599.37  1679.37  1683.21  1749.33
                             1800.86  1869.85  1904.12  1937.12  2020.00
                             2026.97  2101.68  2119.81  2144.11  2154.93
                             2174.10  4354.55  4374.71  4418.89  4475.07
                             4487.49  4517.79  4555.47  4606.46  4653.40
                             5449.56

 Zero-point correction=                           0.156987 (Hartree/Particle)
 Thermal correction to Energy=                    0.165663
 Thermal correction to Enthalpy=                  0.166607
 Thermal correction to Gibbs Free Energy=         0.123867
 Sum of electronic and zero-point Energies=           -422.947792
 Sum of electronic and thermal Energies=              -422.939116
 Sum of electronic and thermal Enthalpies=            -422.938172
 Sum of electronic and thermal Free Energies=         -422.980912

                     E (Thermal)             CV                S
                      KCal/Mol        Cal/Mol-Kelvin    Cal/Mol-Kelvin
 Total                  103.955             33.793             89.954
 Electronic               0.000              0.000              0.000
 Translational            0.889              2.981             40.409
 Rotational               0.889              2.981             28.678
 Vibrational            102.178             27.832             20.867
 Vibration     1          0.599              1.964              3.957
 Vibration     2          0.610              1.930              3.046
 Vibration     3          0.634              1.851              2.210
 Vibration     4          0.656              1.783              1.822
 Vibration     5          0.693              1.674              1.416
 Vibration     6          0.709              1.626              1.286
 Vibration     7          0.727              1.574              1.164
 Vibration     8          0.771              1.456              0.939
 Vibration     9          0.794              1.398              0.848
 Vibration    10          0.836              1.295              0.711
 Vibration    11          0.890              1.172              0.576

 Optimization completed.
    -- Stationary point found.
 Normal termination of Gaussian 09 at Tue Jan 28 09:59:30 2020.
