 Gaussian 09, Revision D.01,
 Gaussian 09:  ES64L-G09RevD.01 24-Apr-2013

 -----------------------------
 # b3lyp 6-31G(2df,p) opt Freq
 -----------------------------

 -----
 titel
 -----
 Symbolic Z-matrix:
 Charge =  0 Multiplicity = 1

 SCF Done:  E(RB3LYP) =  -423.121609739     A.U. after   13 cycles
 Optimization completed.
    -- Stationary point found.
 Normal termination of Gaussian 09 at Mon Jan 27 18:43:18 2020.

 ----------------------------------------------------------------------
 #N Geom=AllCheck Guess=TCheck SCRF=Check GenChk RB3LYP/6-31G(2df,p) Fr
 eq
 ----------------------------------------------------------------------

 Structure from the checkpoint file:  "/scratch/puck/g09_6379b4d7-1def-4f7f-b7ca-9b068b2f86a9/Gau-76522.chk"
 -----
 titel
 -----
 Charge =  0 Multiplicity = 1

                         Standard orientation:
 ---------------------------------------------------------------------
 Center     Atomic      Atomic             Coordinates (Angstroms)
 Number     Number       Type             X           Y           Z
 ---------------------------------------------------------------------
      1          8           0       -0.938463    1.986054   -0.182108
      2          6           0       -0.837681    0.606628   -0.152680
      3          6           0       -1.837665   -0.354827   -0.805218
      4          6           0       -1.699999   -1.292947    0.441382
      5          6           0       -0.729452   -0.291110    1.082403
      6          6           0        0.449483   -0.084845    0.176738
      7          6           0        1.339817   -1.047748   -0.608181
      8          8           0        2.505891   -0.260455   -0.275062
      9          6           0        1.734454    0.653527    0.535340
     10          1           0       -0.462930    2.313073   -0.954808
     11          1           0       -2.833516    0.088128   -0.873272
     12          1           0       -1.564608   -0.766869   -1.782583
     13          1           0       -2.637581   -1.395097    0.990659
     14          1           0       -1.294369   -2.292000    0.254441
     15          1           0       -0.685030   -0.025809    2.132700
     16          1           0        1.407984   -2.068490   -0.208397
     17          1           0        1.174832   -1.099105   -1.692708
     18          1           0        2.032057    0.619102    1.591747
     19          1           0        1.809993    1.690209    0.180874
 ---------------------------------------------------------------------

 SCF Done:  E(RB3LYP) =  -423.121609739     A.U. after    1 cycles

 The electronic state is 1-A.
 Alpha  occ. eigenvalues --  -19.15421 -19.13084 -10.24249 -10.22984 -10.22854
 Alpha  occ. eigenvalues --  -10.19857 -10.19273 -10.19164 -10.18771  -1.04163
 Alpha  occ. eigenvalues --   -1.03281  -0.89147  -0.74615  -0.69177  -0.66213
 Alpha  occ. eigenvalues --   -0.65422  -0.56270  -0.54169  -0.52325  -0.48680
 Alpha  occ. eigenvalues --   -0.47986  -0.45499  -0.43326  -0.42334  -0.40331
 Alpha  occ. eigenvalues --   -0.38237  -0.36146  -0.35430  -0.33647  -0.32172
 Alpha  occ. eigenvalues --   -0.31144  -0.26494  -0.25074  -0.24051
 Alpha virt. eigenvalues --    0.06522   0.07516   0.09231   0.10012   0.11084
 Alpha virt. eigenvalues --    0.13186   0.14068   0.15189   0.15800   0.16747
 Alpha virt. eigenvalues --    0.16892   0.19442   0.19675   0.21309   0.22937

 Mulliken charges:
               1
     1  O   -0.454589
     2  C    0.324370
     3  C   -0.301847
     4  C   -0.228464
     5  C   -0.198419
     6  C    0.240114
     7  C   -0.150620
     8  O   -0.277059
     9  C   -0.153058
    10  H    0.287891
    11  H    0.114941
    12  H    0.093204
    13  H    0.110708
    14  H    0.101087
    15  H    0.094434
    16  H    0.101298
    17  H    0.098221
    18  H    0.103368
    19  H    0.094423
 Sum of Mulliken charges =   0.00000

 Dipole moment (field-independent basis, Debye):
    X=             -1.2847    Y=             -0.2479    Z=             -0.5110  Tot=              1.4047
 Quadrupole moment (field-independent basis, Debye-Ang):
   XX=            -60.2443   YY=            -52.2658   ZZ=            -50.1460
   XY=              3.3451   XZ=              1.4319   YZ=             -2.1928

  Exact polarizability:  80.563   3.852  75.385   1.232   0.315  69.710
 Approx polarizability: 108.957   2.123 110.292  -0.519  -0.991 106.177

                      1                      2                      3
                      A                      A                      A
 Frequencies --     92.3709               162.8751               170.9336
 Red. masses --      4.0559                 3.3289                 2.4607
 Frc consts  --      0.0204                 0.0520                 0.0424
 IR Inten    --      4.3672                 0.9834                 3.6284

                      4                      5                      6
                      A                      A                      A
 Frequencies --    216.0311               247.5259               285.8929
 Red. masses --      1.9082                 1.5893                 1.6559
 Frc consts  --      0.0525                 0.0574                 0.0797
 IR Inten    --     28.6651                17.6114                64.9698

                      7                      8                      9
                      A                      A                      A
 Frequencies --    377.4623               424.8660               511.6919
 Red. masses --      3.3902                 2.5558                 3.2318
 Frc consts  --      0.2846                 0.2718                 0.4985
 IR Inten    --      0.9074                 3.3244                 2.9872

                     10                     11                     12
                      A                      A                      A
 Frequencies --    550.8963               664.4336               707.8032
 Red. masses --      4.1223                 3.8968                 2.9980
 Frc consts  --      0.7371                 1.0136                 0.8849
 IR Inten    --      8.8872                 0.7673                 3.8651

                     13                     14                     15
                      A                      A                      A
 Frequencies --    797.3698               857.8678               909.6009
 Red. masses --      1.2390                 4.1151                 2.1088
 Frc consts  --      0.4641                 1.7843                 1.0280
 IR Inten    --      4.3281                12.4990                 9.3271

                     16                     17                     18
                      A                      A                      A
 Frequencies --    926.8793               948.1462               966.2934
 Red. masses --      1.6283                 2.8845                 2.2090
 Frc consts  --      0.8242                 1.5278                 1.2153
 IR Inten    --      0.7625                 7.8489                 8.1872

                     19                     20                     21
                      A                      A                      A
 Frequencies --    977.5783               989.2840              1027.9610
 Red. masses --      1.6783                 1.9924                11.3140
 Frc consts  --      0.9450                 1.1489                 7.0440
 IR Inten    --      2.5537                 5.9599                78.7714

                     22                     23                     24
                      A                      A                      A
 Frequencies --   1040.5502              1080.5986              1108.5663
 Red. masses --      2.1134                 2.4082                 2.1787
 Frc consts  --      1.3482                 1.6568                 1.5775
 IR Inten    --     22.4798                 1.1531                 4.2236

                     25                     26                     27
                      A                      A                      A
 Frequencies --   1138.4672              1149.4002              1161.2847
 Red. masses --      1.4379                 1.1456                 1.7493
 Frc consts  --      1.0980                 0.8917                 1.3899
 IR Inten    --      3.8455                 0.5940                11.3789

                     28                     29                     30
                      A                      A                      A
 Frequencies --   1178.0602              1210.8944              1215.5402
 Red. masses --      2.1234                 1.5551                 1.2498
 Frc consts  --      1.7363                 1.3435                 1.0880
 IR Inten    --      6.4234                 0.5307                 5.8189

                     31                     32                     33
                      A                      A                      A
 Frequencies --   1251.5046              1252.0627              1296.0705
 Red. masses --      1.6241                 1.6843                 1.7599
 Frc consts  --      1.4987                 1.5557                 1.7418
 IR Inten    --     38.5654                16.3972                79.4926

                     34                     35                     36
                      A                      A                      A
 Frequencies --   1303.9975              1337.3201              1371.6688
 Red. masses --      1.3203                 1.8670                 1.6377
 Frc consts  --      1.3227                 1.9673                 1.8154
 IR Inten    --      1.8297                 2.1345                15.5977

                     37                     38                     39
                      A                      A                      A
 Frequencies --   1468.1105              1480.3485              1510.2060
 Red. masses --      3.1517                 1.1014                 1.3490
 Frc consts  --      4.0023                 1.4221                 1.8127
 IR Inten    --     17.1449                 0.2757                 9.5979

                     40                     41                     42
                      A                      A                      A
 Frequencies --   1512.0291              1537.2239              2994.0047
 Red. masses --      1.0820                 1.1103                 1.0519
 Frc consts  --      1.4575                 1.5459                 5.5554
 IR Inten    --      1.5799                 0.3093               121.5330

                     43                     44                     45
                      A                      A                      A
 Frequencies --   3005.4809              3037.6153              3038.6714
 Red. masses --      1.0568                 1.1063                 1.1106
 Frc consts  --      5.6242                 6.0146                 6.0422
 IR Inten    --     11.3780                10.9422                49.5417

                     46                     47                     48
                      A                      A                      A
 Frequencies --   3043.6781              3056.2694              3104.0321
 Red. masses --      1.0661                 1.0629                 1.1031
 Frc consts  --      5.8190                 5.8494                 6.2619
 IR Inten    --     67.3823                50.4975                 1.2143

                     49                     50                     51
                      A                      A                      A
 Frequencies --   3121.2985              3177.0907              3781.5211
 Red. masses --      1.1030                 1.0927                 1.0661
 Frc consts  --      6.3314                 6.4984                 8.9822
 IR Inten    --     36.3710                12.5336                18.4143

 - Thermochemistry -
 -------------------
 Temperature   298.150 Kelvin.  Pressure   1.00000 Atm.
 Atom     1 has atomic number  8 and mass  15.99491

 Molecular mass:   126.06808 amu.
 Principal axes and moments of inertia in atomic units:
                           1         2         3
     Eigenvalues --   649.007711235.904991524.50568
           X            0.99912   0.04043   0.01073
           Y           -0.04052   0.99914   0.00884
           Z           -0.01036  -0.00927   0.99990
 This molecule is an asymmetric top.
 Rotational symmetry number  1.
 Warning -- assumption of classical behavior for rotation
           may cause significant error
 Rotational temperatures (Kelvin)      0.13346     0.07008     0.05681
 Rotational constants (GHZ):           2.78077     1.46026     1.18382
 Zero-point vibrational energy     417361.1 (Joules/Mol)
                                   99.75170 (Kcal/Mol)
 Warning -- explicit consideration of  10 degrees of freedom as
           vibrations may cause significant error
 Vibrational temperatures:    132.90   234.34   245.93   310.82   356.13
          (Kelvin)            411.34   543.08   611.29   736.21   792.62
                              955.97  1018.37  1147.24  1234.28  1308.71
                             1333.57  1364.17  1390.28  1406.52  1423.36
                             1479.00  1497.12  1554.74  1594.98  1638.00
                             1653.73  1670.83  1694.96  1742.20  1748.89
                             1800.63  1801.44  1864.75  1876.16  1924.10
                             1973.52  2112.28  2129.89  2172.85  2175.47
                             2211.72  4307.70  4324.21  4370.45  4371.96
                             4379.17  4397.28  4466.00  4490.85  4571.12
                             5440.76

 Zero-point correction=                           0.158964 (Hartree/Particle)
 Thermal correction to Energy=                    0.167227
 Thermal correction to Enthalpy=                  0.168172
 Thermal correction to Gibbs Free Energy=         0.126178
 Sum of electronic and zero-point Energies=           -422.962645
 Sum of electronic and thermal Energies=              -422.954382
 Sum of electronic and thermal Enthalpies=            -422.953438
 Sum of electronic and thermal Free Energies=         -422.995432

                     E (Thermal)             CV                S
                      KCal/Mol        Cal/Mol-Kelvin    Cal/Mol-Kelvin
 Total                  104.937             31.637             88.383
 Electronic               0.000              0.000              0.000
 Translational            0.889              2.981             40.409
 Rotational               0.889              2.981             28.593
 Vibrational            103.159             25.675             19.381
 Vibration     1          0.602              1.955              3.609
 Vibration     2          0.623              1.888              2.516
 Vibration     3          0.626              1.878              2.425
 Vibration     4          0.645              1.817              1.992
 Vibration     5          0.661              1.767              1.748
 Vibration     6          0.684              1.700              1.498
 Vibration     7          0.748              1.518              1.049
 Vibration     8          0.787              1.416              0.876
 Vibration     9          0.867              1.224              0.630
 Vibration    10          0.906              1.138              0.542

 Normal termination of Gaussian 09 at Mon Jan 27 19:40:11 2020.
