 Gaussian 09, Revision D.01,
 Gaussian 09:  ES64L-G09RevD.01 24-Apr-2013

 -----------------------------
 # b3lyp 6-31G(2df,p) opt Freq
 -----------------------------

 -----
 titel
 -----
 Symbolic Z-matrix:
 Charge =  0 Multiplicity = 1

 SCF Done:  E(RB3LYP) =  -423.171664285     A.U. after   14 cycles
 Optimization completed.
    -- Stationary point found.
 Normal termination of Gaussian 09 at Tue Jan 28 12:09:07 2020.

 ----------------------------------------------------------------------
 #N Geom=AllCheck Guess=TCheck SCRF=Check GenChk RB3LYP/6-31G(2df,p) Fr
 eq
 ----------------------------------------------------------------------

 Structure from the checkpoint file:  "/scratch/puck/g09_754eb50f-2972-433a-b8ef-9cfcb85eb14e/Gau-85238.chk"
 -----
 titel
 -----
 Charge =  0 Multiplicity = 1

                         Standard orientation:
 ---------------------------------------------------------------------
 Center     Atomic      Atomic             Coordinates (Angstroms)
 Number     Number       Type             X           Y           Z
 ---------------------------------------------------------------------
      1          8           0       -2.359451   -1.101681   -0.175596
      2          6           0       -1.343263   -0.803186    0.770702
      3          6           0       -0.073091   -0.309752    0.111657
      4          6           0        0.911120   -1.308097   -0.506531
      5          6           0        2.262820   -0.656347   -0.300281
      6          6           0        2.178442    0.480207    0.398088
      7          6           0        0.765305    0.828520    0.709944
      8          6           0       -0.110515    1.053144   -0.514764
      9          8           0       -1.337775    1.717881   -0.385854
     10          1           0       -2.588346   -0.260475   -0.587905
     11          1           0       -1.694053   -0.067026    1.506073
     12          1           0       -1.143261   -1.737119    1.307472
     13          1           0        0.855336   -2.283561   -0.002224
     14          1           0        0.695609   -1.500269   -1.564695
     15          1           0        3.180516   -1.086312   -0.685505
     16          1           0        3.015685    1.109203    0.678681
     17          1           0        0.482414    1.315897    1.637561
     18          1           0        0.402061    1.207668   -1.465174
     19          1           0       -1.173061    2.665465   -0.345574
 ---------------------------------------------------------------------

 SCF Done:  E(RB3LYP) =  -423.171664285     A.U. after    1 cycles

 The electronic state is 1-A.
 Alpha  occ. eigenvalues --  -19.15708 -19.11796 -10.23788 -10.21847 -10.19113
 Alpha  occ. eigenvalues --  -10.19082 -10.18486 -10.18277 -10.18044  -1.04030
 Alpha  occ. eigenvalues --   -0.99954  -0.88355  -0.76338  -0.71654  -0.66672
 Alpha  occ. eigenvalues --   -0.60894  -0.55090  -0.54184  -0.53454  -0.48499
 Alpha  occ. eigenvalues --   -0.47231  -0.45624  -0.42905  -0.40744  -0.40031
 Alpha  occ. eigenvalues --   -0.37708  -0.37375  -0.34615  -0.34329  -0.31753
 Alpha  occ. eigenvalues --   -0.28903  -0.27018  -0.25568  -0.22477
 Alpha virt. eigenvalues --    0.01738   0.06564   0.10781   0.11234   0.11956
 Alpha virt. eigenvalues --    0.13936   0.14451   0.15573   0.16694   0.16949
 Alpha virt. eigenvalues --    0.18132   0.18909   0.20507   0.22185   0.22563

 Mulliken charges:
               1
     1  O   -0.429917
     2  C   -0.154581
     3  C    0.293227
     4  C   -0.331391
     5  C   -0.085564
     6  C   -0.078224
     7  C   -0.202408
     8  C    0.053647
     9  O   -0.433382
    10  H    0.292469
    11  H    0.091238
    12  H    0.101363
    13  H    0.107616
    14  H    0.116139
    15  H    0.094706
    16  H    0.095401
    17  H    0.088908
    18  H    0.087865
    19  H    0.292889
 Sum of Mulliken charges =   0.00000

 Dipole moment (field-independent basis, Debye):
    X=              1.6411    Y=              2.2957    Z=              0.0746  Tot=              2.8229
 Quadrupole moment (field-independent basis, Debye-Ang):
   XX=            -56.7519   YY=            -48.4944   ZZ=            -52.1860
   XY=             -4.4893   XZ=             -0.6563   YZ=             -0.2046

  Exact polarizability:  84.296  -2.512  81.291  -0.280   5.712  62.993
 Approx polarizability: 113.514  -3.567 128.708   2.519  13.808 100.634

                      1                      2                      3
                      A                      A                      A
 Frequencies --     73.2938               147.7469               221.8641
 Red. masses --      3.9007                 3.7714                 3.6221
 Frc consts  --      0.0123                 0.0485                 0.1050
 IR Inten    --      2.1269                 0.2965                 0.1623

                      4                      5                      6
                      A                      A                      A
 Frequencies --    253.4406               288.1136               310.7991
 Red. masses --      2.3616                 1.7464                 1.7924
 Frc consts  --      0.0894                 0.0854                 0.1020
 IR Inten    --     21.3293                14.4533                77.6117

                      7                      8                      9
                      A                      A                      A
 Frequencies --    373.7984               403.1046               434.0980
 Red. masses --      2.1891                 3.1327                 2.5697
 Frc consts  --      0.1802                 0.2999                 0.2853
 IR Inten    --      1.8376                13.7861                10.1363

                     10                     11                     12
                      A                      A                      A
 Frequencies --    471.7416               506.3954               711.9996
 Red. masses --      1.2059                 3.9752                 3.2979
 Frc consts  --      0.1581                 0.6006                 0.9850
 IR Inten    --     80.4097                12.9768                 5.7622

                     13                     14                     15
                      A                      A                      A
 Frequencies --    732.9713               752.4740               794.8818
 Red. masses --      1.7090                 2.8429                 4.1514
 Frc consts  --      0.5410                 0.9484                 1.5454
 IR Inten    --     34.3197                 9.9060                 0.3476

                     16                     17                     18
                      A                      A                      A
 Frequencies --    878.2504               914.7241               949.8884
 Red. masses --      3.8470                 1.9428                 1.6366
 Frc consts  --      1.7483                 0.9578                 0.8700
 IR Inten    --      5.6854                10.5030                15.4315

                     19                     20                     21
                      A                      A                      A
 Frequencies --    956.4995               973.8574               994.7082
 Red. masses --      1.3608                 1.4970                 2.1686
 Frc consts  --      0.7335                 0.8365                 1.2642
 IR Inten    --      2.5833                 0.9059                 0.4618

                     22                     23                     24
                      A                      A                      A
 Frequencies --    998.4791              1029.6688              1059.6262
 Red. masses --      2.5946                 2.2819                 1.9411
 Frc consts  --      1.5240                 1.4254                 1.2841
 IR Inten    --      1.3413                17.9435                40.8820

                     25                     26                     27
                      A                      A                      A
 Frequencies --   1073.7465              1130.6004              1141.5066
 Red. masses --      1.9712                 1.6747                 2.0339
 Frc consts  --      1.3390                 1.2612                 1.5615
 IR Inten    --     44.7650                26.2870                42.7367

                     28                     29                     30
                      A                      A                      A
 Frequencies --   1164.1922              1194.7801              1229.7262
 Red. masses --      1.2021                 1.4115                 1.7056
 Frc consts  --      0.9599                 1.1872                 1.5196
 IR Inten    --      3.3623                49.6856                 3.6824

                     31                     32                     33
                      A                      A                      A
 Frequencies --   1265.9236              1278.3267              1301.0471
 Red. masses --      1.3751                 1.3086                 1.7449
 Frc consts  --      1.2984                 1.2600                 1.7403
 IR Inten    --     61.2892                37.9482                 5.5394

                     34                     35                     36
                      A                      A                      A
 Frequencies --   1351.9635              1371.2333              1394.3641
 Red. masses --      1.7017                 1.8637                 1.3064
 Frc consts  --      1.8326                 2.0647                 1.4965
 IR Inten    --      1.9364                 4.3328                 2.1024

                     37                     38                     39
                      A                      A                      A
 Frequencies --   1428.7488              1445.0410              1479.9735
 Red. masses --      1.2271                 2.3078                 1.1232
 Frc consts  --      1.4758                 2.8393                 1.4495
 IR Inten    --     78.5601                 8.1441                 1.9963

                     40                     41                     42
                      A                      A                      A
 Frequencies --   1495.4820              1663.4607              3005.5610
 Red. masses --      1.0933                 6.0966                 1.0671
 Frc consts  --      1.4406                 9.9395                 5.6796
 IR Inten    --      2.5875                 2.5305                37.5758

                     43                     44                     45
                      A                      A                      A
 Frequencies --   3010.5785              3048.1203              3068.2338
 Red. masses --      1.0639                 1.0935                 1.0998
 Frc consts  --      5.6813                 5.9859                 6.1000
 IR Inten    --     42.3273                16.7801                36.3128

                     46                     47                     48
                      A                      A                      A
 Frequencies --   3089.9896              3163.3786              3185.4444
 Red. masses --      1.0881                 1.0893                 1.0851
 Frc consts  --      6.1212                 6.4222                 6.4870
 IR Inten    --     26.3252                14.1487                 7.8516

                     49                     50                     51
                      A                      A                      A
 Frequencies --   3209.7276              3798.4386              3810.6775
 Red. masses --      1.1038                 1.0657                 1.0664
 Frc consts  --      6.6997                 9.0590                 9.1237
 IR Inten    --     25.2436                30.5985                31.1256

 - Thermochemistry -
 -------------------
 Temperature   298.150 Kelvin.  Pressure   1.00000 Atm.
 Atom     1 has atomic number  8 and mass  15.99491

 Molecular mass:   126.06808 amu.
 Principal axes and moments of inertia in atomic units:
                           1         2         3
     Eigenvalues --   668.092771237.107301632.77835
           X            0.99983  -0.01443  -0.01158
           Y            0.01454   0.99984   0.01001
           Z            0.01144  -0.01017   0.99988
 This molecule is an asymmetric top.
 Rotational symmetry number  1.
 Warning -- assumption of classical behavior for rotation
           may cause significant error
 Rotational temperatures (Kelvin)      0.12964     0.07001     0.05305
 Rotational constants (GHZ):           2.70133     1.45884     1.10532
 Zero-point vibrational energy     418888.5 (Joules/Mol)
                                  100.11676 (Kcal/Mol)
 Warning -- explicit consideration of  11 degrees of freedom as
           vibrations may cause significant error
 Vibrational temperatures:    105.45   212.57   319.21   364.64   414.53
          (Kelvin)            447.17   537.81   579.98   624.57   678.73
                              728.59  1024.41  1054.58  1082.64  1143.66
                             1263.60  1316.08  1366.68  1376.19  1401.16
                             1431.16  1436.59  1481.46  1524.56  1544.88
                             1626.68  1642.37  1675.01  1719.02  1769.30
                             1821.38  1839.22  1871.91  1945.17  1972.90
                             2006.18  2055.65  2079.09  2129.35  2151.66
                             2393.35  4324.33  4331.55  4385.56  4414.50
                             4445.80  4551.39  4583.14  4618.08  5465.10
                             5482.71

 Zero-point correction=                           0.159546 (Hartree/Particle)
 Thermal correction to Energy=                    0.168015
 Thermal correction to Enthalpy=                  0.168959
 Thermal correction to Gibbs Free Energy=         0.126629
 Sum of electronic and zero-point Energies=           -423.012118
 Sum of electronic and thermal Energies=              -423.003650
 Sum of electronic and thermal Enthalpies=            -423.002705
 Sum of electronic and thermal Free Energies=         -423.045035

                     E (Thermal)             CV                S
                      KCal/Mol        Cal/Mol-Kelvin    Cal/Mol-Kelvin
 Total                  105.431             32.986             89.090
 Electronic               0.000              0.000              0.000
 Translational            0.889              2.981             40.409
 Rotational               0.889              2.981             28.691
 Vibrational            103.653             27.024             19.990
 Vibration     1          0.599              1.967              4.063
 Vibration     2          0.617              1.905              2.701
 Vibration     3          0.648              1.808              1.944
 Vibration     4          0.665              1.757              1.707
 Vibration     5          0.685              1.696              1.485
 Vibration     6          0.700              1.653              1.358
 Vibration     7          0.745              1.526              1.064
 Vibration     8          0.769              1.463              0.951
 Vibration     9          0.795              1.396              0.845
 Vibration    10          0.829              1.313              0.733
 Vibration    11          0.862              1.236              0.642

 Optimization completed.
    -- Stationary point found.
 Normal termination of Gaussian 09 at Tue Jan 28 12:56:57 2020.
