 Gaussian 09, Revision D.01,
 Gaussian 09:  ES64L-G09RevD.01 24-Apr-2013

 -----------------------------
 # b3lyp 6-31G(2df,p) opt Freq
 -----------------------------

 -----
 titel
 -----
 Symbolic Z-matrix:
 Charge =  0 Multiplicity = 1

 SCF Done:  E(RB3LYP) =  -423.154628499     A.U. after   14 cycles
 SCF Done:  E(RB3LYP) =  -423.154627662     A.U. after    7 cycles
 SCF Done:  E(RB3LYP) =  -423.154628451     A.U. after    7 cycles
 SCF Done:  E(RB3LYP) =  -423.154628531     A.U. after    6 cycles
 Optimization completed.
    -- Stationary point found.
 Normal termination of Gaussian 09 at Tue Jan 28 14:53:14 2020.

 ----------------------------------------------------------------------
 #N Geom=AllCheck Guess=TCheck SCRF=Check GenChk RB3LYP/6-31G(2df,p) Fr
 eq
 ----------------------------------------------------------------------

 Structure from the checkpoint file:  "/scratch/puck/g09_d5ade4eb-294b-49ae-9cb5-f8c27a390f16/Gau-97053.chk"
 -----
 titel
 -----
 Charge =  0 Multiplicity = 1

                         Standard orientation:
 ---------------------------------------------------------------------
 Center     Atomic      Atomic             Coordinates (Angstroms)
 Number     Number       Type             X           Y           Z
 ---------------------------------------------------------------------
      1          6           0       -4.110451   -0.645297   -0.000138
      2          6           0       -2.968463    0.356348    0.000090
      3          8           0       -1.745378   -0.353336   -0.000007
      4          6           0       -0.616050    0.490410    0.000109
      5          6           0        0.620320   -0.397364    0.000071
      6          6           0        1.913849    0.390358    0.000094
      7          8           0        1.954973    1.602552   -0.000161
      8          6           0        3.129306   -0.409835    0.000013
      9          6           0        4.123733   -1.088004   -0.000045
     10          1           0       -4.060722   -1.284681    0.885870
     11          1           0       -5.073179   -0.125611   -0.000028
     12          1           0       -4.060714   -1.284295   -0.886423
     13          1           0       -3.026535    1.011410   -0.885717
     14          1           0       -3.026591    1.011071    0.886143
     15          1           0       -0.612364    1.148085   -0.883082
     16          1           0       -0.612428    1.147925    0.883423
     17          1           0        0.614760   -1.063279    0.872526
     18          1           0        0.614752   -1.063166   -0.872476
     19          1           0        5.012792   -1.670893   -0.000053
 ---------------------------------------------------------------------

 SCF Done:  E(RB3LYP) =  -423.154628531     A.U. after    1 cycles

 The electronic state is 1-A.
 Alpha  occ. eigenvalues --  -19.14402 -19.13926 -10.29654 -10.23045 -10.22825
 Alpha  occ. eigenvalues --  -10.20929 -10.20210 -10.19922 -10.17609  -1.05424
 Alpha  occ. eigenvalues --   -1.03385  -0.79961  -0.77347  -0.74146  -0.66961
 Alpha  occ. eigenvalues --   -0.61109  -0.59887  -0.53658  -0.50993  -0.49486
 Alpha  occ. eigenvalues --   -0.46732  -0.45810  -0.44942  -0.41928  -0.40951
 Alpha  occ. eigenvalues --   -0.38232  -0.36932  -0.36050  -0.34602  -0.31987
 Alpha  occ. eigenvalues --   -0.29982  -0.29727  -0.26686  -0.25572
 Alpha virt. eigenvalues --   -0.05846   0.03247   0.08928   0.09038   0.10618
 Alpha virt. eigenvalues --    0.11004   0.12008   0.14264   0.15471   0.16811
 Alpha virt. eigenvalues --    0.16840   0.18524   0.19638   0.20768   0.21230

 Mulliken charges:
               1
     1  C   -0.385606
     2  C   -0.030731
     3  O   -0.250578
     4  C   -0.061697
     5  C   -0.316895
     6  C    0.227219
     7  O   -0.291471
     8  C    0.243117
     9  C   -0.381547
    10  H    0.126121
    11  H    0.115610
    12  H    0.126120
    13  H    0.087512
    14  H    0.087511
    15  H    0.102673
    16  H    0.102660
    17  H    0.142566
    18  H    0.142584
    19  H    0.214831
 Sum of Mulliken charges =   0.00000

 Dipole moment (field-independent basis, Debye):
    X=             -0.2532    Y=             -1.8126    Z=              0.0004  Tot=              1.8302
 Quadrupole moment (field-independent basis, Debye-Ang):
   XX=            -44.2425   YY=            -56.4425   ZZ=            -52.5995
   XY=            -10.4415   XZ=              0.0004   YZ=              0.0006

  Exact polarizability: 110.553 -12.627  75.960  -0.001   0.000  56.457
 Approx polarizability: 133.722 -26.667 130.034  -0.001  -0.002  85.310

                      1                      2                      3
                      A                      A                      A
 Frequencies --     46.0707                48.7155                79.9533
 Red. masses --      2.4348                 2.9242                 4.1240
 Frc consts  --      0.0030                 0.0041                 0.0155
 IR Inten    --      2.4779                 0.2132                 2.5676

                      4                      5                      6
                      A                      A                      A
 Frequencies --    112.3729               137.4094               163.8533
 Red. masses --      1.8557                 3.2123                 4.3175
 Frc consts  --      0.0138                 0.0357                 0.0683
 IR Inten    --      1.2483                 5.0226                 1.6149

                      7                      8                      9
                      A                      A                      A
 Frequencies --    230.0191               242.8739               248.9019
 Red. masses --      4.8872                 3.7621                 1.2261
 Frc consts  --      0.1523                 0.1308                 0.0448
 IR Inten    --      5.3672                 1.1226                 1.4553

                     10                     11                     12
                      A                      A                      A
 Frequencies --    358.7123               429.5642               525.5935
 Red. masses --      5.2415                 3.7060                 3.8571
 Frc consts  --      0.3974                 0.4029                 0.6278
 IR Inten    --      2.9132                 0.0050                 0.6404

                     13                     14                     15
                      A                      A                      A
 Frequencies --    571.4352               611.5797               647.1824
 Red. masses --      2.2200                 7.8332                 1.2355
 Frc consts  --      0.4271                 1.7262                 0.3049
 IR Inten    --      1.4492                 9.2306                43.7487

                     16                     17                     18
                      A                      A                      A
 Frequencies --    705.0286               806.7012               822.2359
 Red. masses --      1.2600                 1.3497                 1.1105
 Frc consts  --      0.3690                 0.5175                 0.4423
 IR Inten    --     29.9790                 3.7972                 1.6247

                     19                     20                     21
                      A                      A                      A
 Frequencies --    833.1289               909.9245              1036.6837
 Red. masses --      4.6400                 2.1255                 3.9019
 Frc consts  --      1.8975                 1.0369                 2.4707
 IR Inten    --      5.2566                12.4421                41.8911

                     22                     23                     24
                      A                      A                      A
 Frequencies --   1058.4598              1072.8370              1102.5306
 Red. masses --      3.5041                 1.7989                 2.3224
 Frc consts  --      2.3130                 1.2199                 1.6633
 IR Inten    --     51.8810                 3.6734               173.0640

                     25                     26                     27
                      A                      A                      A
 Frequencies --   1162.7764              1170.3533              1184.2477
 Red. masses --      2.9239                 5.9093                 1.4335
 Frc consts  --      2.3292                 4.7689                 1.1845
 IR Inten    --     40.9049               151.6463                 2.4043

                     28                     29                     30
                      A                      A                      A
 Frequencies --   1219.4815              1293.3778              1297.3356
 Red. masses --      1.3391                 1.0855                 1.1023
 Frc consts  --      1.1733                 1.0699                 1.0931
 IR Inten    --      7.4159                 0.1532                 2.3973

                     31                     32                     33
                      A                      A                      A
 Frequencies --   1330.1543              1391.3227              1409.4223
 Red. masses --      1.7420                 1.2951                 1.3206
 Frc consts  --      1.8160                 1.4771                 1.5456
 IR Inten    --     15.0532                68.8596                47.9738

                     34                     35                     36
                      A                      A                      A
 Frequencies --   1445.3000              1460.8880              1483.9576
 Red. masses --      1.1970                 1.3604                 1.0404
 Frc consts  --      1.4732                 1.7106                 1.3499
 IR Inten    --      3.6276                10.7181                 4.1198

                     37                     38                     39
                      A                      A                      A
 Frequencies --   1499.2220              1514.8726              1535.7497
 Red. masses --      1.0481                 1.0833                 1.0930
 Frc consts  --      1.3879                 1.4647                 1.5189
 IR Inten    --      2.6008                 2.1257                 2.3459

                     40                     41                     42
                      A                      A                      A
 Frequencies --   1764.5278              2212.2108              2954.4983
 Red. masses --     11.8246                 5.9060                 1.0546
 Frc consts  --     21.6916                17.0293                 5.4238
 IR Inten    --    152.0805                63.7153                40.4564

                     43                     44                     45
                      A                      A                      A
 Frequencies --   2979.9417              2981.1070              3007.2146
 Red. masses --      1.1054                 1.0552                 1.1051
 Frc consts  --      5.7833                 5.5249                 5.8882
 IR Inten    --     60.0063                46.2616                33.5007

                     46                     47                     48
                      A                      A                      A
 Frequencies --   3035.7706              3044.9065              3069.3160
 Red. masses --      1.0604                 1.0347                 1.0998
 Frc consts  --      5.7577                 5.6521                 6.1044
 IR Inten    --     12.0183                17.5114                10.7015

                     49                     50                     51
                      A                      A                      A
 Frequencies --   3119.6699              3120.7501              3494.0185
 Red. masses --      1.1015                 1.1027                 1.1621
 Frc consts  --      6.3160                 6.3271                 8.3590
 IR Inten    --     25.0486                26.7862                54.9987

 - Thermochemistry -
 -------------------
 Temperature   298.150 Kelvin.  Pressure   1.00000 Atm.
 Atom     1 has atomic number  6 and mass  12.00000

 Molecular mass:   126.06808 amu.
 Principal axes and moments of inertia in atomic units:
                           1         2         3
     Eigenvalues --   327.716253222.031653504.95433
           X            0.99997  -0.00720   0.00000
           Y            0.00720   0.99997   0.00001
           Z            0.00000  -0.00001   1.00000
 This molecule is an asymmetric top.
 Rotational symmetry number  1.
 Rotational temperatures (Kelvin)      0.26430     0.02688     0.02471
 Rotational constants (GHZ):           5.50702     0.56013     0.51491
 Zero-point vibrational energy     406635.6 (Joules/Mol)
                                   97.18824 (Kcal/Mol)
 Warning -- explicit consideration of  14 degrees of freedom as
           vibrations may cause significant error
 Vibrational temperatures:     66.29    70.09   115.03   161.68   197.70
          (Kelvin)            235.75   330.95   349.44   358.11   516.11
                              618.05   756.21   822.17   879.93   931.15
                             1014.38  1160.66  1183.01  1198.69  1309.18
                             1491.55  1522.89  1543.57  1586.29  1672.97
                             1683.88  1703.87  1754.56  1860.88  1866.57
                             1913.79  2001.80  2027.84  2079.46  2101.89
                             2135.08  2157.04  2179.56  2209.60  2538.76
                             3182.87  4250.86  4287.47  4289.14  4326.71
                             4367.79  4380.94  4416.06  4488.50  4490.06
                             5027.11

 Zero-point correction=                           0.154879 (Hartree/Particle)
 Thermal correction to Energy=                    0.165614
 Thermal correction to Enthalpy=                  0.166558
 Thermal correction to Gibbs Free Energy=         0.117443
 Sum of electronic and zero-point Energies=           -422.999749
 Sum of electronic and thermal Energies=              -422.989014
 Sum of electronic and thermal Enthalpies=            -422.988070
 Sum of electronic and thermal Free Energies=         -423.037185

                     E (Thermal)             CV                S
                      KCal/Mol        Cal/Mol-Kelvin    Cal/Mol-Kelvin
 Total                  103.924             36.558            103.371
 Electronic               0.000              0.000              0.000
 Translational            0.889              2.981             40.409
 Rotational               0.889              2.981             29.694
 Vibrational            102.147             30.597             33.269
 Vibration     1          0.595              1.979              4.979
 Vibration     2          0.595              1.978              4.869
 Vibration     3          0.600              1.963              3.892
 Vibration     4          0.607              1.939              3.228
 Vibration     5          0.614              1.916              2.840
 Vibration     6          0.623              1.887              2.505
 Vibration     7          0.652              1.795              1.879
 Vibration     8          0.659              1.775              1.782
 Vibration     9          0.662              1.765              1.738
 Vibration    10          0.734              1.557              1.128
 Vibration    11          0.791              1.406              0.860
 Vibration    12          0.881              1.193              0.597
 Vibration    13          0.928              1.093              0.501
 Vibration    14          0.971              1.007              0.430

 Optimization completed.
    -- Stationary point found.
 Normal termination of Gaussian 09 at Tue Jan 28 15:27:06 2020.
