 Gaussian 09, Revision D.01,
 Gaussian 09:  ES64L-G09RevD.01 24-Apr-2013

 -----------------------------
 # b3lyp 6-31G(2df,p) opt Freq
 -----------------------------

 -----
 titel
 -----
 Symbolic Z-matrix:
 Charge =  0 Multiplicity = 1

 SCF Done:  E(RB3LYP) =  -423.125064392     A.U. after   13 cycles
 Optimization completed.
    -- Stationary point found.
 Normal termination of Gaussian 09 at Mon Jan 27 17:46:42 2020.

 ----------------------------------------------------------------------
 #N Geom=AllCheck Guess=TCheck SCRF=Check GenChk RB3LYP/6-31G(2df,p) Fr
 eq
 ----------------------------------------------------------------------

 Structure from the checkpoint file:  "/scratch/puck/g09_1668b944-e613-4204-86e0-6ee4149ed613/Gau-15763.chk"
 -----
 titel
 -----
 Charge =  0 Multiplicity = 1

                         Standard orientation:
 ---------------------------------------------------------------------
 Center     Atomic      Atomic             Coordinates (Angstroms)
 Number     Number       Type             X           Y           Z
 ---------------------------------------------------------------------
      1          6           0        0.306101    2.120140    0.204812
      2          6           0        0.333869    0.633032   -0.032020
      3          8           0        1.332949    0.224085   -1.012713
      4          6           0        1.924334   -0.716785   -0.079850
      5          6           0        0.833982   -0.428974    0.973259
      6          6           0       -0.517662   -1.163326    0.872845
      7          6           0       -0.872787   -1.501776   -0.564349
      8          6           0       -1.038374   -0.096327   -0.120105
      9          8           0       -2.263743    0.525412   -0.263452
     10          1           0       -0.359645    2.375329    1.037643
     11          1           0        1.306600    2.491511    0.441626
     12          1           0       -0.053758    2.640672   -0.689019
     13          1           0        1.975454   -1.733078   -0.486666
     14          1           0        2.930693   -0.397005    0.216398
     15          1           0        1.149431   -0.157506    1.980414
     16          1           0       -1.014268   -1.659814    1.697568
     17          1           0       -0.122935   -1.771683   -1.300163
     18          1           0       -1.815329   -2.031336   -0.660297
     19          1           0       -2.366681    1.171024    0.444261
 ---------------------------------------------------------------------

 SCF Done:  E(RB3LYP) =  -423.125064392     A.U. after    1 cycles

 The electronic state is 1-A.
 Alpha  occ. eigenvalues --  -19.15288 -19.12785 -10.23722 -10.23623 -10.22553
 Alpha  occ. eigenvalues --  -10.19306 -10.19080 -10.18388 -10.18330  -1.04214
 Alpha  occ. eigenvalues --   -1.02796  -0.87331  -0.75527  -0.72751  -0.65558
 Alpha  occ. eigenvalues --   -0.60731  -0.57413  -0.55086  -0.49685  -0.49182
 Alpha  occ. eigenvalues --   -0.47246  -0.45664  -0.42071  -0.40799  -0.40010
 Alpha  occ. eigenvalues --   -0.39313  -0.37844  -0.36694  -0.34984  -0.30490
 Alpha  occ. eigenvalues --   -0.29911  -0.28093  -0.24478  -0.22960
 Alpha virt. eigenvalues --    0.06166   0.07517   0.09876   0.11041   0.12472
 Alpha virt. eigenvalues --    0.13768   0.14181   0.15754   0.15998   0.17124
 Alpha virt. eigenvalues --    0.17966   0.18625   0.18987   0.22035   0.23480

 Mulliken charges:
               1
     1  C   -0.488694
     2  C    0.371345
     3  O   -0.334996
     4  C   -0.116405
     5  C   -0.115306
     6  C   -0.169729
     7  C   -0.324746
     8  C    0.353975
     9  O   -0.450417
    10  H    0.105515
    11  H    0.128061
    12  H    0.140636
    13  H    0.102977
    14  H    0.100357
    15  H    0.075560
    16  H    0.090597
    17  H    0.128806
    18  H    0.117809
    19  H    0.284654
 Sum of Mulliken charges =   0.00000

 Dipole moment (field-independent basis, Debye):
    X=              0.0628    Y=              0.3176    Z=              2.5769  Tot=              2.5972
 Quadrupole moment (field-independent basis, Debye-Ang):
   XX=            -54.0116   YY=            -49.8551   ZZ=            -54.3134
   XY=             -1.7966   XZ=             -0.7049   YZ=              2.2494

  Exact polarizability:  79.684  -1.139  78.488   0.929   1.859  64.495
 Approx polarizability: 111.950  -4.600 109.944   1.511  -0.370 104.868

                      1                      2                      3
                      A                      A                      A
 Frequencies --    145.5934               204.0313               233.1501
 Red. masses --      2.8313                 1.2428                 2.3356
 Frc consts  --      0.0354                 0.0305                 0.0748
 IR Inten    --      0.4606                 0.0384                 2.6759

                      4                      5                      6
                      A                      A                      A
 Frequencies --    271.1651               299.7177               330.8035
 Red. masses --      2.2665                 3.2084                 1.9366
 Frc consts  --      0.0982                 0.1698                 0.1249
 IR Inten    --      6.3003                 7.3938                36.8050

                      7                      8                      9
                      A                      A                      A
 Frequencies --    357.7119               423.8895               485.4693
 Red. masses --      1.7350                 3.2253                 2.6377
 Frc consts  --      0.1308                 0.3415                 0.3663
 IR Inten    --     56.7145                 3.8538                17.3769

                     10                     11                     12
                      A                      A                      A
 Frequencies --    499.4692               610.2428               631.6827
 Red. masses --      2.5347                 3.5531                 4.2057
 Frc consts  --      0.3726                 0.7796                 0.9888
 IR Inten    --      1.9069                 4.2598                15.9253

                     13                     14                     15
                      A                      A                      A
 Frequencies --    763.8069               815.4667               827.1647
 Red. masses --      3.2913                 2.5245                 2.4878
 Frc consts  --      1.1313                 0.9891                 1.0029
 IR Inten    --      0.1197                 7.0340                 2.8686

                     16                     17                     18
                      A                      A                      A
 Frequencies --    873.3274               889.7198               898.9671
 Red. masses --      2.3128                 2.4758                 1.9421
 Frc consts  --      1.0393                 1.1547                 0.9247
 IR Inten    --     29.1553                 2.6787                 1.5481

                     19                     20                     21
                      A                      A                      A
 Frequencies --    946.0032               974.2342               982.7594
 Red. masses --      2.0271                 1.4505                 5.5499
 Frc consts  --      1.0688                 0.8111                 3.1581
 IR Inten    --     15.4746                11.4133                70.3697

                     22                     23                     24
                      A                      A                      A
 Frequencies --   1001.6171              1047.7806              1074.9233
 Red. masses --      1.4037                 1.7164                 2.2143
 Frc consts  --      0.8297                 1.1103                 1.5074
 IR Inten    --      9.4752                 1.8688                 1.1651

                     25                     26                     27
                      A                      A                      A
 Frequencies --   1092.8685              1102.5613              1148.4651
 Red. masses --      1.4455                 1.9180                 1.9140
 Frc consts  --      1.0172                 1.3737                 1.4874
 IR Inten    --      2.5267                11.9238                30.5423

                     28                     29                     30
                      A                      A                      A
 Frequencies --   1155.7708              1166.1505              1213.7585
 Red. masses --      1.9491                 1.1815                 2.2079
 Frc consts  --      1.5340                 0.9467                 1.9165
 IR Inten    --      5.6871                 0.5446                56.3682

                     31                     32                     33
                      A                      A                      A
 Frequencies --   1257.1757              1280.3672              1308.8685
 Red. masses --      2.1039                 1.8361                 1.8509
 Frc consts  --      1.9592                 1.7734                 1.8682
 IR Inten    --     14.5637                50.2463                11.2670

                     34                     35                     36
                      A                      A                      A
 Frequencies --   1328.9664              1343.9729              1399.4841
 Red. masses --      2.2090                 1.7600                 1.4502
 Frc consts  --      2.2987                 1.8730                 1.6735
 IR Inten    --     83.8045                16.8179                10.4356

                     37                     38                     39
                      A                      A                      A
 Frequencies --   1417.4760              1479.1937              1489.6021
 Red. masses --      1.6799                 1.0652                 1.0588
 Frc consts  --      1.9887                 1.3733                 1.3842
 IR Inten    --      1.6127                 4.0588                 4.1113

                     40                     41                     42
                      A                      A                      A
 Frequencies --   1499.1079              1522.0024              3019.6423
 Red. masses --      1.4711                 1.0953                 1.0558
 Frc consts  --      1.9479                 1.4949                 5.6722
 IR Inten    --     12.7323                 0.5883                77.0714

                     43                     44                     45
                      A                      A                      A
 Frequencies --   3029.9894              3065.0005              3095.8076
 Red. masses --      1.0370                 1.1096                 1.0986
 Frc consts  --      5.6096                 6.1417                 6.2034
 IR Inten    --     13.6723                31.6894                18.5720

                     46                     47                     48
                      A                      A                      A
 Frequencies --   3113.2098              3117.7914              3131.5940
 Red. masses --      1.0892                 1.1014                 1.0535
 Frc consts  --      6.2198                 6.3079                 6.0874
 IR Inten    --     29.6030                14.7699                11.7526

                     49                     50                     51
                      A                      A                      A
 Frequencies --   3185.2951              3216.8959              3796.4656
 Red. masses --      1.0938                 1.1153                 1.0659
 Frc consts  --      6.5389                 6.8003                 9.0514
 IR Inten    --     14.5079                 5.9747                16.8128

 - Thermochemistry -
 -------------------
 Temperature   298.150 Kelvin.  Pressure   1.00000 Atm.
 Atom     1 has atomic number  6 and mass  12.00000

 Molecular mass:   126.06808 amu.
 Principal axes and moments of inertia in atomic units:
                           1         2         3
     Eigenvalues --   725.66081 965.505191307.87856
           X            0.99998   0.00422   0.00497
           Y           -0.00440   0.99931   0.03684
           Z           -0.00481  -0.03686   0.99931
 This molecule is an asymmetric top.
 Rotational symmetry number  1.
 Warning -- assumption of classical behavior for rotation
           may cause significant error
 Rotational temperatures (Kelvin)      0.11936     0.08971     0.06622
 Rotational constants (GHZ):           2.48703     1.86922     1.37990
 Zero-point vibrational energy     416098.2 (Joules/Mol)
                                   99.44985 (Kcal/Mol)
 Warning -- explicit consideration of  11 degrees of freedom as
           vibrations may cause significant error
 Vibrational temperatures:    209.48   293.56   335.45   390.15   431.23
          (Kelvin)            475.95   514.67   609.88   698.48   718.62
                              878.00   908.85  1098.95  1173.27  1190.10
                             1256.52  1280.11  1293.41  1361.09  1401.70
                             1413.97  1441.10  1507.52  1546.57  1572.39
                             1586.34  1652.38  1662.89  1677.83  1746.33
                             1808.79  1842.16  1883.17  1912.08  1933.67
                             2013.54  2039.43  2128.23  2143.20  2156.88
                             2189.82  4344.59  4359.47  4409.85  4454.17
                             4479.21  4485.80  4505.66  4582.92  4628.39
                             5462.26

 Zero-point correction=                           0.158483 (Hartree/Particle)
 Thermal correction to Energy=                    0.166530
 Thermal correction to Enthalpy=                  0.167475
 Thermal correction to Gibbs Free Energy=         0.126610
 Sum of electronic and zero-point Energies=           -422.966581
 Sum of electronic and thermal Energies=              -422.958534
 Sum of electronic and thermal Enthalpies=            -422.957590
 Sum of electronic and thermal Free Energies=         -422.998454

                     E (Thermal)             CV                S
                      KCal/Mol        Cal/Mol-Kelvin    Cal/Mol-Kelvin
 Total                  104.499             32.450             86.007
 Electronic               0.000              0.000              0.000
 Translational            0.889              2.981             40.409
 Rotational               0.889              2.981             28.307
 Vibrational            102.722             26.488             17.292
 Vibration     1          0.617              1.907              2.729
 Vibration     2          0.640              1.834              2.096
 Vibration     3          0.654              1.790              1.855
 Vibration     4          0.675              1.726              1.589
 Vibration     5          0.692              1.674              1.418
 Vibration     6          0.713              1.614              1.256
 Vibration     7          0.733              1.559              1.132
 Vibration     8          0.786              1.418              0.879
 Vibration     9          0.842              1.282              0.695
 Vibration    10          0.855              1.251              0.659
 Vibration    11          0.969              1.010              0.432

 Normal termination of Gaussian 09 at Mon Jan 27 19:47:46 2020.
