 Gaussian 09, Revision D.01,
 Gaussian 09:  ES64L-G09RevD.01 24-Apr-2013

 -----------------------------
 # b3lyp 6-31G(2df,p) opt Freq
 -----------------------------

 -----
 titel
 -----
 Symbolic Z-matrix:
 Charge =  0 Multiplicity = 1

 SCF Done:  E(RB3LYP) =  -423.138768246     A.U. after   12 cycles
 Optimization completed.
    -- Stationary point found.
 Normal termination of Gaussian 09 at Mon Jan 27 12:05:55 2020.

 ----------------------------------------------------------------------
 #N Geom=AllCheck Guess=TCheck SCRF=Check GenChk RB3LYP/6-31G(2df,p) Fr
 eq
 ----------------------------------------------------------------------

 Structure from the checkpoint file:  "/scratch/puck/g09_79b8fa09-3967-4689-9ae6-acb88c823fe7/Gau-165424.chk"
 -----
 titel
 -----
 Charge =  0 Multiplicity = 1

                         Standard orientation:
 ---------------------------------------------------------------------
 Center     Atomic      Atomic             Coordinates (Angstroms)
 Number     Number       Type             X           Y           Z
 ---------------------------------------------------------------------
      1          6           0        2.821525   -0.754327   -0.325694
      2          6           0        2.821106    0.755068   -0.323728
      3          6           0        1.732021   -0.000887    0.398293
      4          6           0        0.330887   -0.000544   -0.124488
      5          6           0       -0.743763   -0.746484    0.653730
      6          8           0       -1.910582   -1.147378   -0.023435
      7          6           0       -2.407983    0.000233   -0.688740
      8          8           0       -1.909826    1.147774   -0.023899
      9          6           0       -0.743268    0.746382    0.653459
     10          1           0        2.555478   -1.260492   -1.247685
     11          1           0        3.570258   -1.272116    0.263565
     12          1           0        3.569559    1.271726    0.266879
     13          1           0        2.554769    1.263482   -1.244395
     14          1           0        1.800885   -0.002284    1.483901
     15          1           0        0.245014   -0.000694   -1.208267
     16          1           0       -0.508093   -1.384302    1.496827
     17          1           0       -2.078357   -0.000095   -1.740764
     18          1           0       -3.502179    0.000600   -0.644717
     19          1           0       -0.507220    1.384358    1.496330
 ---------------------------------------------------------------------

 SCF Done:  E(RB3LYP) =  -423.138768246     A.U. after    1 cycles

 The electronic state is 1-A.
 Alpha  occ. eigenvalues --  -19.15274 -19.15273 -10.27704 -10.23594 -10.23565
 Alpha  occ. eigenvalues --  -10.19942 -10.19455 -10.18687 -10.18662  -1.09543
 Alpha  occ. eigenvalues --   -0.99944  -0.87063  -0.83261  -0.69187  -0.61744
 Alpha  occ. eigenvalues --   -0.61545  -0.60025  -0.57487  -0.52607  -0.49672
 Alpha  occ. eigenvalues --   -0.48541  -0.45471  -0.45282  -0.43442  -0.41362
 Alpha  occ. eigenvalues --   -0.38975  -0.36599  -0.35916  -0.33689  -0.32474
 Alpha  occ. eigenvalues --   -0.31099  -0.29882  -0.23884  -0.22790
 Alpha virt. eigenvalues --    0.07972   0.09329   0.10873   0.11041   0.12563
 Alpha virt. eigenvalues --    0.13834   0.14081   0.14203   0.16377   0.16397
 Alpha virt. eigenvalues --    0.18193   0.18303   0.19975   0.21301   0.22385

 Mulliken charges:
               1
     1  C   -0.269559
     2  C   -0.269514
     3  C    0.009651
     4  C   -0.125961
     5  C    0.047504
     6  O   -0.260580
     7  C    0.016697
     8  O   -0.260586
     9  C    0.047543
    10  H    0.114284
    11  H    0.112702
    12  H    0.112693
    13  H    0.114294
    14  H    0.079008
    15  H    0.093428
    16  H    0.111295
    17  H    0.095226
    18  H    0.120578
    19  H    0.111295
 Sum of Mulliken charges =   0.00000

 Dipole moment (field-independent basis, Debye):
    X=              1.2454    Y=             -0.0004    Z=              0.1509  Tot=              1.2545
 Quadrupole moment (field-independent basis, Debye-Ang):
   XX=            -53.0956   YY=            -57.1734   ZZ=            -49.4473
   XY=             -0.0025   XZ=              2.7907   YZ=             -0.0006

  Exact polarizability:  94.306  -0.001  65.806   2.233   0.001  66.701
 Approx polarizability: 116.281   0.001 104.107   1.548   0.000 100.737

                      1                      2                      3
                      A                      A                      A
 Frequencies --     59.3532               136.6789               137.2087
 Red. masses --      3.1295                 2.9537                 2.8656
 Frc consts  --      0.0065                 0.0325                 0.0318
 IR Inten    --      0.0616                 0.3614                 0.0867

                      4                      5                      6
                      A                      A                      A
 Frequencies --    214.7667               321.0462               322.9607
 Red. masses --      2.6745                 3.8292                 4.1298
 Frc consts  --      0.0727                 0.2325                 0.2538
 IR Inten    --      9.8483                 0.2362                 0.0320

                      7                      8                      9
                      A                      A                      A
 Frequencies --    407.4908               444.0653               735.6847
 Red. masses --      2.5886                 3.4168                 5.4115
 Frc consts  --      0.2533                 0.3970                 1.7257
 IR Inten    --      0.1851                 8.3922                15.2415

                     10                     11                     12
                      A                      A                      A
 Frequencies --    744.6428               773.8239               817.3884
 Red. masses --      6.5689                 1.0941                 1.2742
 Frc consts  --      2.1461                 0.3860                 0.5016
 IR Inten    --      0.4089                 0.6154                 4.0480

                     13                     14                     15
                      A                      A                      A
 Frequencies --    837.7724               877.9904               880.9455
 Red. masses --      1.5437                 2.2203                 4.8574
 Frc consts  --      0.6384                 1.0084                 2.2210
 IR Inten    --     16.1036                10.0236                23.8942

                     16                     17                     18
                      A                      A                      A
 Frequencies --    942.2062               944.0352               977.6918
 Red. masses --      2.5897                 3.6195                 3.5241
 Frc consts  --      1.3545                 1.9006                 1.9847
 IR Inten    --     13.5666                41.3465                13.8310

                     19                     20                     21
                      A                      A                      A
 Frequencies --    991.2175              1011.2042              1042.8832
 Red. masses --      1.9825                 4.1278                 1.8833
 Frc consts  --      1.1476                 2.4868                 1.2068
 IR Inten    --      4.5189                14.6135                 5.6148

                     22                     23                     24
                      A                      A                      A
 Frequencies --   1060.4083              1076.7235              1080.9918
 Red. masses --      1.3693                 1.3647                 1.4064
 Frc consts  --      0.9072                 0.9321                 0.9683
 IR Inten    --      3.3286                 0.3107                 3.1181

                     25                     26                     27
                      A                      A                      A
 Frequencies --   1123.4902              1124.2005              1136.6388
 Red. masses --      3.4267                 2.0280                 1.2089
 Frc consts  --      2.5484                 1.5101                 0.9202
 IR Inten    --    113.7532                 0.0457                 0.0840

                     28                     29                     30
                      A                      A                      A
 Frequencies --   1155.6067              1186.2918              1197.3195
 Red. masses --      1.5838                 2.0469                 1.3861
 Frc consts  --      1.2461                 1.6972                 1.1707
 IR Inten    --      9.9781               119.4061                 0.1858

                     31                     32                     33
                      A                      A                      A
 Frequencies --   1212.5987              1216.1916              1236.1847
 Red. masses --      2.3850                 1.0955                 1.8922
 Frc consts  --      2.0662                 0.9547                 1.7037
 IR Inten    --      3.4693                 0.0174                 3.1486

                     34                     35                     36
                      A                      A                      A
 Frequencies --   1273.4730              1300.5202              1383.2506
 Red. masses --      1.2818                 1.2589                 1.7863
 Frc consts  --      1.2247                 1.2545                 2.0137
 IR Inten    --      8.1072                 6.0971                14.3140

                     37                     38                     39
                      A                      A                      A
 Frequencies --   1434.2792              1453.0342              1469.0712
 Red. masses --      1.2736                 1.9679                 1.0862
 Frc consts  --      1.5437                 2.4480                 1.3812
 IR Inten    --      6.6372                26.4537                 1.0850

                     40                     41                     42
                      A                      A                      A
 Frequencies --   1506.8135              1551.1421              2960.7978
 Red. masses --      1.4611                 1.0972                 1.0703
 Frc consts  --      1.9546                 1.5554                 5.5281
 IR Inten    --      3.4467                 4.7651                84.1833

                     43                     44                     45
                      A                      A                      A
 Frequencies --   3067.7389              3124.9158              3130.5664
 Red. masses --      1.0956                 1.0843                 1.0504
 Frc consts  --      6.0749                 6.2382                 6.0654
 IR Inten    --     60.3944                 7.9156                20.2960

                     46                     47                     48
                      A                      A                      A
 Frequencies --   3135.6280              3143.8612              3184.9668
 Red. masses --      1.0624                 1.0877                 1.0893
 Frc consts  --      6.1544                 6.3344                 6.5106
 IR Inten    --      7.9848                 9.8177                 7.6357

                     49                     50                     51
                      A                      A                      A
 Frequencies --   3193.9853              3208.9150              3224.0945
 Red. masses --      1.0954                 1.1181                 1.1155
 Frc consts  --      6.5841                 6.7832                 6.8317
 IR Inten    --     14.9879                 0.2253                21.2387

 - Thermochemistry -
 -------------------
 Temperature   298.150 Kelvin.  Pressure   1.00000 Atm.
 Atom     1 has atomic number  6 and mass  12.00000

 Molecular mass:   126.06808 amu.
 Principal axes and moments of inertia in atomic units:
                           1         2         3
     Eigenvalues --   410.730551865.511712022.60695
           X            0.99999   0.00000   0.00482
           Y            0.00000   1.00000   0.00003
           Z           -0.00482  -0.00003   0.99999
 This molecule is an asymmetric top.
 Rotational symmetry number  1.
 Rotational temperatures (Kelvin)      0.21088     0.04643     0.04282
 Rotational constants (GHZ):           4.39398     0.96742     0.89228
 Zero-point vibrational energy     419738.3 (Joules/Mol)
                                  100.31985 (Kcal/Mol)
 Warning -- explicit consideration of   8 degrees of freedom as
           vibrations may cause significant error
 Vibrational temperatures:     85.40   196.65   197.41   309.00   461.91
          (Kelvin)            464.67   586.29   638.91  1058.48  1071.37
                             1113.36  1176.04  1205.37  1263.23  1267.48
                             1355.62  1358.25  1406.68  1426.14  1454.90
                             1500.47  1525.69  1549.16  1555.30  1616.45
                             1617.47  1635.37  1662.66  1706.81  1722.67
                             1744.66  1749.83  1778.59  1832.24  1871.16
                             1990.19  2063.61  2090.59  2113.66  2167.97
                             2231.74  4259.92  4413.79  4496.05  4504.18
                             4511.46  4523.31  4582.45  4595.43  4616.91
                             4638.75

 Zero-point correction=                           0.159870 (Hartree/Particle)
 Thermal correction to Energy=                    0.167832
 Thermal correction to Enthalpy=                  0.168776
 Thermal correction to Gibbs Free Energy=         0.126699
 Sum of electronic and zero-point Energies=           -422.978898
 Sum of electronic and thermal Energies=              -422.970936
 Sum of electronic and thermal Enthalpies=            -422.969992
 Sum of electronic and thermal Free Energies=         -423.012069

                     E (Thermal)             CV                S
                      KCal/Mol        Cal/Mol-Kelvin    Cal/Mol-Kelvin
 Total                  105.316             30.263             88.558
 Electronic               0.000              0.000              0.000
 Translational            0.889              2.981             40.409
 Rotational               0.889              2.981             28.829
 Vibrational            103.539             24.301             19.320
 Vibration     1          0.597              1.974              4.479
 Vibration     2          0.614              1.917              2.850
 Vibration     3          0.614              1.916              2.842
 Vibration     4          0.645              1.818              2.003
 Vibration     5          0.707              1.633              1.305
 Vibration     6          0.708              1.629              1.295
 Vibration     7          0.772              1.454              0.936
 Vibration     8          0.804              1.374              0.814

 Normal termination of Gaussian 09 at Mon Jan 27 12:43:13 2020.
