 Gaussian 09, Revision D.01,
 Gaussian 09:  ES64L-G09RevD.01 24-Apr-2013

 -----------------------------
 # b3lyp 6-31G(2df,p) opt Freq
 -----------------------------

 -----
 titel
 -----
 Symbolic Z-matrix:
 Charge =  0 Multiplicity = 1

 SCF Done:  E(RB3LYP) =  -423.196821768     A.U. after   14 cycles
 Optimization completed.
    -- Stationary point found.
 Normal termination of Gaussian 09 at Mon Jan 27 12:57:33 2020.

 ----------------------------------------------------------------------
 #N Geom=AllCheck Guess=TCheck SCRF=Check GenChk RB3LYP/6-31G(2df,p) Fr
 eq
 ----------------------------------------------------------------------

 Structure from the checkpoint file:  "/scratch/puck/g09_960d8259-2420-4367-a730-8523d5a5f556/Gau-73327.chk"
 -----
 titel
 -----
 Charge =  0 Multiplicity = 1

                         Standard orientation:
 ---------------------------------------------------------------------
 Center     Atomic      Atomic             Coordinates (Angstroms)
 Number     Number       Type             X           Y           Z
 ---------------------------------------------------------------------
      1          8           0       -2.855225   -0.518598   -0.149410
      2          6           0       -1.748052   -0.076223   -0.081262
      3          6           0       -1.067045    1.206436   -0.583720
      4          6           0       -0.021061    1.004251    0.560057
      5          6           0        1.470022    1.243438    0.314032
      6          6           0        2.097349    0.139843   -0.550045
      7          6           0        1.657215   -1.231163   -0.041900
      8          8           0        0.244915   -1.375051   -0.136073
      9          6           0       -0.475041   -0.488162    0.702338
     10          1           0       -0.642610    1.059458   -1.581901
     11          1           0       -1.670074    2.116718   -0.583578
     12          1           0       -0.350890    1.559387    1.443463
     13          1           0        1.626557    2.230814   -0.134879
     14          1           0        1.982867    1.259084    1.284603
     15          1           0        1.787529    0.236466   -1.597344
     16          1           0        3.189930    0.216371   -0.529146
     17          1           0        2.075778   -2.038665   -0.648786
     18          1           0        1.989269   -1.381140    0.999560
     19          1           0       -0.586199   -0.899820    1.714879
 ---------------------------------------------------------------------

 SCF Done:  E(RB3LYP) =  -423.196821768     A.U. after    1 cycles

 The electronic state is 1-A.
 Alpha  occ. eigenvalues --  -19.15053 -19.13906 -10.26869 -10.23670 -10.23466
 Alpha  occ. eigenvalues --  -10.20313 -10.19510 -10.19315 -10.19073  -1.05251
 Alpha  occ. eigenvalues --   -1.03791  -0.84610  -0.79615  -0.70475  -0.66241
 Alpha  occ. eigenvalues --   -0.63348  -0.55606  -0.53800  -0.50579  -0.47877
 Alpha  occ. eigenvalues --   -0.47479  -0.45794  -0.43567  -0.42415  -0.41631
 Alpha  occ. eigenvalues --   -0.38611  -0.37871  -0.36431  -0.36096  -0.33872
 Alpha  occ. eigenvalues --   -0.33113  -0.30596  -0.26226  -0.23662
 Alpha virt. eigenvalues --   -0.02383   0.07466   0.09967   0.11478   0.12204
 Alpha virt. eigenvalues --    0.13573   0.13660   0.15174   0.15592   0.17127
 Alpha virt. eigenvalues --    0.17698   0.18228   0.19312   0.19725   0.21921

 Mulliken charges:
               1
     1  O   -0.291082
     2  C    0.406944
     3  C   -0.363838
     4  C   -0.011867
     5  C   -0.236794
     6  C   -0.205600
     7  C   -0.059386
     8  O   -0.268233
     9  C   -0.010430
    10  H    0.136051
    11  H    0.125321
    12  H    0.086011
    13  H    0.104040
    14  H    0.102454
    15  H    0.108458
    16  H    0.099596
    17  H    0.112471
    18  H    0.087913
    19  H    0.077970
 Sum of Mulliken charges =   0.00000

 Dipole moment (field-independent basis, Debye):
    X=              3.3912    Y=              1.9978    Z=              0.6301  Tot=              3.9860
 Quadrupole moment (field-independent basis, Debye-Ang):
   XX=            -59.8559   YY=            -53.8258   ZZ=            -51.0970
   XY=             -4.2353   XZ=             -1.0819   YZ=             -0.5866

  Exact polarizability:  88.277  -0.749  73.057   0.192  -1.954  65.485
 Approx polarizability: 122.198   3.747 105.838   1.425  -1.235 101.521

                      1                      2                      3
                      A                      A                      A
 Frequencies --     91.5482               161.8535               198.6287
 Red. masses --      4.6235                 2.5837                 4.3126
 Frc consts  --      0.0228                 0.0399                 0.1002
 IR Inten    --      2.6737                 0.6979                 0.3872

                      4                      5                      6
                      A                      A                      A
 Frequencies --    311.0860               336.4004               384.3639
 Red. masses --      2.6307                 1.9659                 4.7254
 Frc consts  --      0.1500                 0.1311                 0.4113
 IR Inten    --      4.3345                 0.6540                 2.5926

                      7                      8                      9
                      A                      A                      A
 Frequencies --    467.7927               502.0332               522.4202
 Red. masses --      4.2514                 2.7864                 2.0147
 Frc consts  --      0.5481                 0.4138                 0.3240
 IR Inten    --      3.8318                 2.2310                 2.5341

                     10                     11                     12
                      A                      A                      A
 Frequencies --    599.4484               674.7033               738.5482
 Red. masses --      2.3597                 2.5570                 2.5703
 Frc consts  --      0.4996                 0.6858                 0.8260
 IR Inten    --      1.7135                 4.0431                 0.3483

                     13                     14                     15
                      A                      A                      A
 Frequencies --    820.9788               839.7326               874.1251
 Red. masses --      3.3340                 1.9145                 2.2300
 Frc consts  --      1.3240                 0.7954                 1.0039
 IR Inten    --      7.8128                 2.6208                 5.1702

                     16                     17                     18
                      A                      A                      A
 Frequencies --    919.1812               937.0437               955.9077
 Red. masses --      2.4258                 2.0510                 2.5280
 Frc consts  --      1.2076                 1.0610                 1.3610
 IR Inten    --     15.0902                 1.5360                 7.8197

                     19                     20                     21
                      A                      A                      A
 Frequencies --   1015.1324              1050.5227              1063.1966
 Red. masses --      2.2581                 3.0089                 2.1333
 Frc consts  --      1.3710                 1.9564                 1.4208
 IR Inten    --      2.6605                16.2445                56.4452

                     22                     23                     24
                      A                      A                      A
 Frequencies --   1079.5553              1101.6680              1131.2580
 Red. masses --      1.7357                 1.7272                 3.9348
 Frc consts  --      1.1918                 1.2351                 2.9669
 IR Inten    --     16.4374                16.9212                49.5794

                     25                     26                     27
                      A                      A                      A
 Frequencies --   1143.4136              1199.0903              1225.5766
 Red. masses --      1.8047                 1.5813                 1.4770
 Frc consts  --      1.3901                 1.3396                 1.3071
 IR Inten    --      2.3994                15.6249                 8.8577

                     28                     29                     30
                      A                      A                      A
 Frequencies --   1236.6972              1244.5785              1279.8239
 Red. masses --      1.3841                 1.6524                 1.3924
 Frc consts  --      1.2472                 1.5081                 1.3437
 IR Inten    --      8.4238                 6.8581                 3.4334

                     31                     32                     33
                      A                      A                      A
 Frequencies --   1314.2029              1335.1249              1351.4695
 Red. masses --      1.2526                 1.2673                 1.4243
 Frc consts  --      1.2747                 1.3309                 1.5327
 IR Inten    --      7.3656                 1.5628                 1.1044

                     34                     35                     36
                      A                      A                      A
 Frequencies --   1371.2848              1390.8747              1408.0212
 Red. masses --      1.4704                 1.3935                 1.3224
 Frc consts  --      1.6291                 1.5883                 1.5447
 IR Inten    --      2.9615                 1.7624                14.9341

                     37                     38                     39
                      A                      A                      A
 Frequencies --   1443.1810              1480.4228              1488.7406
 Red. masses --      1.1159                 1.0827                 1.0933
 Frc consts  --      1.3693                 1.3981                 1.4276
 IR Inten    --      8.4274                 4.1338                 3.7956

                     40                     41                     42
                      A                      A                      A
 Frequencies --   1500.6840              1901.3446              2965.4287
 Red. masses --      1.0942                12.3907                 1.0708
 Frc consts  --      1.4519                26.3916                 5.5478
 IR Inten    --      1.2413               273.7918                50.0276

                     43                     44                     45
                      A                      A                      A
 Frequencies --   3012.6650              3019.7123              3036.1918
 Red. masses --      1.0858                 1.0635                 1.0619
 Frc consts  --      5.8062                 5.7136                 5.7675
 IR Inten    --     55.0753                25.5035                16.8548

                     46                     47                     48
                      A                      A                      A
 Frequencies --   3060.0635              3062.2110              3063.9469
 Red. masses --      1.0801                 1.0873                 1.0742
 Frc consts  --      5.9589                 6.0071                 5.9416
 IR Inten    --     19.1344                14.0390                29.3929

                     49                     50                     51
                      A                      A                      A
 Frequencies --   3081.7069              3090.6676              3124.2043
 Red. masses --      1.1024                 1.0937                 1.1046
 Frc consts  --      6.1686                 6.1553                 6.3521
 IR Inten    --     48.1389                34.0586                13.5465

 - Thermochemistry -
 -------------------
 Temperature   298.150 Kelvin.  Pressure   1.00000 Atm.
 Atom     1 has atomic number  8 and mass  15.99491

 Molecular mass:   126.06808 amu.
 Principal axes and moments of inertia in atomic units:
                           1         2         3
     Eigenvalues --   567.005831288.425471618.25013
           X            0.99983  -0.01800  -0.00340
           Y            0.01795   0.99972  -0.01514
           Z            0.00368   0.01508   0.99988
 This molecule is an asymmetric top.
 Rotational symmetry number  1.
 Warning -- assumption of classical behavior for rotation
           may cause significant error
 Rotational temperatures (Kelvin)      0.15276     0.06722     0.05352
 Rotational constants (GHZ):           3.18293     1.40073     1.11524
 Zero-point vibrational energy     422332.4 (Joules/Mol)
                                  100.93986 (Kcal/Mol)
 Warning -- explicit consideration of  10 degrees of freedom as
           vibrations may cause significant error
 Vibrational temperatures:    131.72   232.87   285.78   447.58   484.00
          (Kelvin)            553.01   673.05   722.31   751.65   862.47
                              970.75  1062.60  1181.20  1208.19  1257.67
                             1322.50  1348.20  1375.34  1460.55  1511.47
                             1529.70  1553.24  1585.05  1627.63  1645.12
                             1725.22  1763.33  1779.33  1790.67  1841.38
                             1890.84  1920.94  1944.46  1972.97  2001.16
                             2025.83  2076.41  2130.00  2141.96  2159.15
                             2735.61  4266.59  4334.55  4344.69  4368.40
                             4402.74  4405.83  4408.33  4433.88  4446.78
                             4495.03

 Zero-point correction=                           0.160858 (Hartree/Particle)
 Thermal correction to Energy=                    0.168473
 Thermal correction to Enthalpy=                  0.169418
 Thermal correction to Gibbs Free Energy=         0.128724
 Sum of electronic and zero-point Energies=           -423.035964
 Sum of electronic and thermal Energies=              -423.028348
 Sum of electronic and thermal Enthalpies=            -423.027404
 Sum of electronic and thermal Free Energies=         -423.068098

                     E (Thermal)             CV                S
                      KCal/Mol        Cal/Mol-Kelvin    Cal/Mol-Kelvin
 Total                  105.719             29.993             85.647
 Electronic               0.000              0.000              0.000
 Translational            0.889              2.981             40.409
 Rotational               0.889              2.981             28.560
 Vibrational            103.941             24.032             16.679
 Vibration     1          0.602              1.955              3.627
 Vibration     2          0.622              1.889              2.528
 Vibration     3          0.637              1.842              2.146
 Vibration     4          0.700              1.653              1.357
 Vibration     5          0.717              1.603              1.229
 Vibration     6          0.753              1.504              1.022
 Vibration     7          0.825              1.322              0.744
 Vibration     8          0.857              1.246              0.653
 Vibration     9          0.877              1.200              0.604
 Vibration    10          0.958              1.033              0.451

 Optimization completed.
    -- Stationary point found.
 Normal termination of Gaussian 09 at Mon Jan 27 13:41:19 2020.
