 Gaussian 09, Revision D.01,
 Gaussian 09:  ES64L-G09RevD.01 24-Apr-2013

 -----------------------------
 # b3lyp 6-31G(2df,p) opt Freq
 -----------------------------

 -----
 titel
 -----
 Symbolic Z-matrix:
 Charge =  0 Multiplicity = 1

 SCF Done:  E(RB3LYP) =  -423.139537065     A.U. after   14 cycles
 Optimization completed.
    -- Stationary point found.
 Normal termination of Gaussian 09 at Tue Jan 28 03:16:23 2020.

 ----------------------------------------------------------------------
 #N Geom=AllCheck Guess=TCheck SCRF=Check GenChk RB3LYP/6-31G(2df,p) Fr
 eq
 ----------------------------------------------------------------------

 Structure from the checkpoint file:  "/scratch/puck/g09_b0447318-45db-4e58-943d-201ca254fcc4/Gau-66898.chk"
 -----
 titel
 -----
 Charge =  0 Multiplicity = 1

                         Standard orientation:
 ---------------------------------------------------------------------
 Center     Atomic      Atomic             Coordinates (Angstroms)
 Number     Number       Type             X           Y           Z
 ---------------------------------------------------------------------
      1          6           0       -2.660907   -0.535187   -0.342726
      2          6           0       -1.181077   -0.657405   -0.024940
      3          8           0       -0.860837    0.009698    1.231842
      4          6           0        0.227971    0.867007    0.860065
      5          6           0       -0.275024    1.532346   -0.448427
      6          6           0       -0.183240    0.056981   -0.962881
      7          6           0        1.065490   -0.024174   -0.064029
      8          6           0        2.486066   -0.075138   -0.371748
      9          8           0        1.799371   -1.170291    0.275680
     10          1           0       -2.907571   -1.121603   -1.234354
     11          1           0       -3.252199   -0.922145    0.492490
     12          1           0       -2.959297    0.502370   -0.515308
     13          1           0       -0.911232   -1.717317    0.070385
     14          1           0        0.605606    1.402016    1.728905
     15          1           0       -1.256548    2.004034   -0.402400
     16          1           0        0.458313    2.188348   -0.919863
     17          1           0       -0.181811   -0.216444   -2.016533
     18          1           0        2.817095   -0.273832   -1.390200
     19          1           0        3.203693    0.452734    0.254822
 ---------------------------------------------------------------------

 SCF Done:  E(RB3LYP) =  -423.139537065     A.U. after    1 cycles

 The electronic state is 1-A.
 Alpha  occ. eigenvalues --  -19.15436 -19.13305 -10.24334 -10.23873 -10.23750
 Alpha  occ. eigenvalues --  -10.23129 -10.20056 -10.19181 -10.17545  -1.07908
 Alpha  occ. eigenvalues --   -1.03561  -0.83414  -0.76336  -0.67407  -0.66689
 Alpha  occ. eigenvalues --   -0.63712  -0.56190  -0.55730  -0.52433  -0.49181
 Alpha  occ. eigenvalues --   -0.48227  -0.45777  -0.42907  -0.40240  -0.39557
 Alpha  occ. eigenvalues --   -0.37457  -0.36887  -0.36258  -0.34814  -0.32996
 Alpha  occ. eigenvalues --   -0.31289  -0.30667  -0.27192  -0.23578
 Alpha virt. eigenvalues --    0.08145   0.09531   0.10616   0.10924   0.13092
 Alpha virt. eigenvalues --    0.14300   0.14550   0.15087   0.15589   0.15987
 Alpha virt. eigenvalues --    0.16326   0.18249   0.18770   0.20830   0.22046

 Mulliken charges:
               1
     1  C   -0.417802
     2  C    0.161838
     3  O   -0.299520
     4  C   -0.006874
     5  C   -0.251422
     6  C   -0.201080
     7  C    0.538788
     8  C   -0.306112
     9  O   -0.292909
    10  H    0.113676
    11  H    0.131156
    12  H    0.117657
    13  H    0.091373
    14  H    0.086632
    15  H    0.109010
    16  H    0.106618
    17  H    0.078734
    18  H    0.119198
    19  H    0.121038
 Sum of Mulliken charges =   0.00000

 Dipole moment (field-independent basis, Debye):
    X=              0.3247    Y=              1.6646    Z=             -2.0293  Tot=              2.6447
 Quadrupole moment (field-independent basis, Debye-Ang):
   XX=            -50.5171   YY=            -53.7978   ZZ=            -53.9705
   XY=              4.0617   XZ=              0.4388   YZ=              1.8811

  Exact polarizability:  90.868   3.256  69.203  -0.092   1.801  66.097
 Approx polarizability: 116.498   2.628 107.727  -1.585   0.171 103.889

                      1                      2                      3
                      A                      A                      A
 Frequencies --    141.1201               194.8850               212.3908
 Red. masses --      3.9484                 1.6277                 1.6460
 Frc consts  --      0.0463                 0.0364                 0.0437
 IR Inten    --      2.0282                 0.4876                 0.3092

                      4                      5                      6
                      A                      A                      A
 Frequencies --    243.9844               297.6625               372.5094
 Red. masses --      2.8118                 3.0663                 2.8804
 Frc consts  --      0.0986                 0.1601                 0.2355
 IR Inten    --      2.5348                 0.2520                 3.0975

                      7                      8                      9
                      A                      A                      A
 Frequencies --    434.8509               507.7118               574.9525
 Red. masses --      3.0719                 3.1674                 2.6502
 Frc consts  --      0.3422                 0.4810                 0.5162
 IR Inten    --      1.1058                 1.7109                 7.1538

                     10                     11                     12
                      A                      A                      A
 Frequencies --    630.9361               690.4118               798.1608
 Red. masses --      5.1185                 3.8491                 2.5050
 Frc consts  --      1.2005                 1.0810                 0.9402
 IR Inten    --     18.2982                 6.5410                 6.1675

                     13                     14                     15
                      A                      A                      A
 Frequencies --    821.7436               838.6300               866.9960
 Red. masses --      2.3757                 2.6753                 2.1284
 Frc consts  --      0.9452                 1.1086                 0.9426
 IR Inten    --      2.4918                14.9848                 4.5875

                     16                     17                     18
                      A                      A                      A
 Frequencies --    891.7915               915.1565               957.7293
 Red. masses --      3.1928                 2.2117                 2.8421
 Frc consts  --      1.4961                 1.0914                 1.5359
 IR Inten    --     22.0288                 9.1057                22.7128

                     19                     20                     21
                      A                      A                      A
 Frequencies --    992.0085              1015.8989              1046.9306
 Red. masses --      2.8530                 1.4607                 2.8372
 Frc consts  --      1.6542                 0.8882                 1.8322
 IR Inten    --     43.8773                 9.6824                11.2968

                     22                     23                     24
                      A                      A                      A
 Frequencies --   1055.6796              1079.2658              1100.1196
 Red. masses --      1.3903                 1.9436                 1.9499
 Frc consts  --      0.9129                 1.3339                 1.3904
 IR Inten    --     11.6181                18.3911                23.7753

                     25                     26                     27
                      A                      A                      A
 Frequencies --   1115.7513              1132.2027              1137.8124
 Red. masses --      1.2877                 1.8403                 2.0355
 Frc consts  --      0.9445                 1.3899                 1.5526
 IR Inten    --      0.1483                 6.0408                10.7919

                     28                     29                     30
                      A                      A                      A
 Frequencies --   1157.2722              1168.2846              1217.4461
 Red. masses --      1.6506                 1.5564                 1.6326
 Frc consts  --      1.3024                 1.2516                 1.4257
 IR Inten    --      1.2581                 4.4588                 0.9993

                     31                     32                     33
                      A                      A                      A
 Frequencies --   1235.4415              1262.5572              1279.6309
 Red. masses --      1.7952                 1.7163                 1.3913
 Frc consts  --      1.6144                 1.6120                 1.3423
 IR Inten    --      4.0796                 8.5714                 6.3433

                     34                     35                     36
                      A                      A                      A
 Frequencies --   1335.7233              1395.0460              1411.7166
 Red. masses --      1.4417                 1.2732                 1.3807
 Frc consts  --      1.5155                 1.4599                 1.6212
 IR Inten    --      5.6909                 5.3245                20.2998

                     37                     38                     39
                      A                      A                      A
 Frequencies --   1455.2270              1482.7242              1489.4350
 Red. masses --      1.6089                 1.1216                 1.0651
 Frc consts  --      2.0074                 1.4529                 1.3921
 IR Inten    --     12.7687                 1.0763                 4.5528

                     40                     41                     42
                      A                      A                      A
 Frequencies --   1496.9562              1552.2137              3019.3639
 Red. masses --      1.0633                 2.1378                 1.0847
 Frc consts  --      1.4038                 3.0347                 5.8263
 IR Inten    --      7.1293                15.0374                30.2142

                     43                     44                     45
                      A                      A                      A
 Frequencies --   3039.4075              3082.8461              3085.8442
 Red. masses --      1.0360                 1.0507                 1.0566
 Frc consts  --      5.6389                 5.8837                 5.9278
 IR Inten    --     18.5826                27.0857                15.4152

                     46                     47                     48
                      A                      A                      A
 Frequencies --   3109.0067              3120.4248              3137.3018
 Red. masses --      1.1001                 1.1016                 1.0904
 Frc consts  --      6.2651                 6.3199                 6.3232
 IR Inten    --     16.3934                28.3411                28.5661

                     49                     50                     51
                      A                      A                      A
 Frequencies --   3149.8700              3152.7265              3168.8379
 Red. masses --      1.0928                 1.1100                 1.1192
 Frc consts  --      6.3879                 6.5007                 6.6214
 IR Inten    --     23.2149                20.7325                21.8645

 - Thermochemistry -
 -------------------
 Temperature   298.150 Kelvin.  Pressure   1.00000 Atm.
 Atom     1 has atomic number  6 and mass  12.00000

 Molecular mass:   126.06808 amu.
 Principal axes and moments of inertia in atomic units:
                           1         2         3
     Eigenvalues --   525.813901312.481081388.12644
           X            0.99957   0.02791   0.00942
           Y           -0.02835   0.99835   0.04998
           Z           -0.00801  -0.05022   0.99871
 This molecule is an asymmetric top.
 Rotational symmetry number  1.
 Warning -- assumption of classical behavior for rotation
           may cause significant error
 Rotational temperatures (Kelvin)      0.16472     0.06599     0.06240
 Rotational constants (GHZ):           3.43228     1.37506     1.30013
 Zero-point vibrational energy     419127.2 (Joules/Mol)
                                  100.17380 (Kcal/Mol)
 Warning -- explicit consideration of   9 degrees of freedom as
           vibrations may cause significant error
 Vibrational temperatures:    203.04   280.40   305.58   351.04   428.27
          (Kelvin)            535.96   625.65   730.48   827.23   907.78
                              993.35  1148.37  1182.30  1206.60  1247.41
                             1283.09  1316.70  1377.96  1427.28  1461.65
                             1506.30  1518.89  1552.82  1582.82  1605.32
                             1628.99  1637.06  1665.05  1680.90  1751.63
                             1777.52  1816.54  1841.10  1921.81  2007.16
                             2031.14  2093.74  2133.31  2142.96  2153.78
                             2233.29  4344.19  4373.02  4435.52  4439.84
                             4473.16  4489.59  4513.87  4531.95  4536.06
                             4559.25

 Zero-point correction=                           0.159637 (Hartree/Particle)
 Thermal correction to Energy=                    0.167250
 Thermal correction to Enthalpy=                  0.168194
 Thermal correction to Gibbs Free Energy=         0.127890
 Sum of electronic and zero-point Energies=           -422.979900
 Sum of electronic and thermal Energies=              -422.972287
 Sum of electronic and thermal Enthalpies=            -422.971343
 Sum of electronic and thermal Free Energies=         -423.011647

                     E (Thermal)             CV                S
                      KCal/Mol        Cal/Mol-Kelvin    Cal/Mol-Kelvin
 Total                  104.951             30.502             84.827
 Electronic               0.000              0.000              0.000
 Translational            0.889              2.981             40.409
 Rotational               0.889              2.981             28.351
 Vibrational            103.174             24.541             16.067
 Vibration     1          0.615              1.912              2.789
 Vibration     2          0.636              1.847              2.181
 Vibration     3          0.643              1.822              2.023
 Vibration     4          0.659              1.773              1.774
 Vibration     5          0.691              1.678              1.430
 Vibration     6          0.744              1.529              1.069
 Vibration     7          0.795              1.394              0.843
 Vibration     8          0.863              1.233              0.639
 Vibration     9          0.931              1.085              0.495

 Optimization completed.
    -- Stationary point found.
 Normal termination of Gaussian 09 at Tue Jan 28 04:18:42 2020.
