 Gaussian 09, Revision D.01,
 Gaussian 09:  ES64L-G09RevD.01 24-Apr-2013

 -----------------------------
 # b3lyp 6-31G(2df,p) opt Freq
 -----------------------------

 -----
 titel
 -----
 Symbolic Z-matrix:
 Charge =  0 Multiplicity = 1

 SCF Done:  E(RB3LYP) =  -423.197172342     A.U. after   13 cycles
 Optimization completed.
    -- Stationary point found.
 Normal termination of Gaussian 09 at Mon Jan 27 18:13:34 2020.

 ----------------------------------------------------------------------
 #N Geom=AllCheck Guess=TCheck SCRF=Check GenChk RB3LYP/6-31G(2df,p) Fr
 eq
 ----------------------------------------------------------------------

 Structure from the checkpoint file:  "/scratch/puck/g09_25b73296-9676-419b-82a0-a8daf7af7853/Gau-181858.chk"
 -----
 titel
 -----
 Charge =  0 Multiplicity = 1

                         Standard orientation:
 ---------------------------------------------------------------------
 Center     Atomic      Atomic             Coordinates (Angstroms)
 Number     Number       Type             X           Y           Z
 ---------------------------------------------------------------------
      1          8           0       -2.360622   -0.288754    0.093982
      2          6           0       -1.000821   -0.010687   -0.087360
      3          6           0       -0.681060    1.456337   -0.420780
      4          6           0        0.656825    1.280864    0.343142
      5          6           0        1.713801    0.528321   -0.497584
      6          6           0        1.184498   -0.918538   -0.385291
      7          6           0       -0.224961   -0.985881   -1.009841
      8          8           0        0.899155   -1.032155    1.019379
      9          6           0        0.017760    0.069219    1.116148
     10          1           0       -2.454280   -1.224494    0.303687
     11          1           0       -0.640403    1.742492   -1.475871
     12          1           0       -1.365614    2.123601    0.110061
     13          1           0        1.047678    2.131636    0.899136
     14          1           0        1.780568    0.888228   -1.528271
     15          1           0        2.703706    0.593896   -0.038467
     16          1           0        1.875340   -1.707009   -0.683881
     17          1           0       -0.263512   -0.700959   -2.064227
     18          1           0       -0.623888   -2.001225   -0.905571
     19          1           0       -0.364105    0.203288    2.125922
 ---------------------------------------------------------------------

 SCF Done:  E(RB3LYP) =  -423.197172342     A.U. after    1 cycles

 The electronic state is 1-A.
 Alpha  occ. eigenvalues --  -19.13877 -19.13746 -10.23324 -10.23239 -10.22055
 Alpha  occ. eigenvalues --  -10.18675 -10.18323 -10.18282 -10.17778  -1.05011
 Alpha  occ. eigenvalues --   -1.02033  -0.84261  -0.75768  -0.73108  -0.65286
 Alpha  occ. eigenvalues --   -0.59520  -0.58060  -0.54393  -0.53454  -0.48105
 Alpha  occ. eigenvalues --   -0.45600  -0.44991  -0.43220  -0.40115  -0.39445
 Alpha  occ. eigenvalues --   -0.39007  -0.36806  -0.34949  -0.32755  -0.31665
 Alpha  occ. eigenvalues --   -0.31285  -0.29722  -0.27905  -0.23223
 Alpha virt. eigenvalues --    0.08003   0.08692   0.10803   0.12017   0.14650
 Alpha virt. eigenvalues --    0.14973   0.15425   0.15819   0.16029   0.17199
 Alpha virt. eigenvalues --    0.17487   0.18891   0.19690   0.21739   0.22867

 Mulliken charges:
               1
     1  O   -0.496937
     2  C    0.415572
     3  C   -0.277081
     4  C   -0.071829
     5  C   -0.216822
     6  C    0.059167
     7  C   -0.290440
     8  O   -0.258990
     9  C    0.030398
    10  H    0.275863
    11  H    0.093102
    12  H    0.108772
    13  H    0.072186
    14  H    0.097306
    15  H    0.106053
    16  H    0.076690
    17  H    0.103407
    18  H    0.092720
    19  H    0.080862
 Sum of Mulliken charges =   0.00000

 Dipole moment (field-independent basis, Debye):
    X=              0.5503    Y=             -0.1619    Z=             -0.8633  Tot=              1.0365
 Quadrupole moment (field-independent basis, Debye-Ang):
   XX=            -55.8910   YY=            -51.0402   ZZ=            -52.7416
   XY=              3.5760   XZ=             -2.7824   YZ=              2.0525

  Exact polarizability:  76.457   0.807  73.926  -2.100   1.874  67.563
 Approx polarizability: 108.306  -0.420 108.667  -2.197  -0.647 105.160

                      1                      2                      3
                      A                      A                      A
 Frequencies --    239.8638               272.0064               297.9931
 Red. masses --      1.9235                 2.2630                 1.5383
 Frc consts  --      0.0652                 0.0986                 0.0805
 IR Inten    --     20.2027                13.0845                58.4583

                      4                      5                      6
                      A                      A                      A
 Frequencies --    386.5951               408.1864               446.2562
 Red. masses --      3.0703                 2.5820                 1.6499
 Frc consts  --      0.2704                 0.2535                 0.1936
 IR Inten    --      8.2487                 6.2899                 0.5912

                      7                      8                      9
                      A                      A                      A
 Frequencies --    544.9260               555.3593               613.8237
 Red. masses --      3.9395                 4.9198                 4.3097
 Frc consts  --      0.6892                 0.8940                 0.9567
 IR Inten    --      8.5450                 1.5735                 2.0889

                     10                     11                     12
                      A                      A                      A
 Frequencies --    713.4431               769.8766               818.6954
 Red. masses --      3.9148                 5.0235                 2.5541
 Frc consts  --      1.1740                 1.7543                 1.0086
 IR Inten    --      7.0309                 5.6563                 0.6118

                     13                     14                     15
                      A                      A                      A
 Frequencies --    854.7309               864.3994               890.4334
 Red. masses --      2.1021                 2.6841                 2.6342
 Frc consts  --      0.9048                 1.1816                 1.2305
 IR Inten    --      0.9342                 6.7676                15.3961

                     16                     17                     18
                      A                      A                      A
 Frequencies --    901.9325               928.4011               945.7871
 Red. masses --      2.6690                 2.0793                 1.9811
 Frc consts  --      1.2792                 1.0560                 1.0441
 IR Inten    --      0.5960                 0.9127                10.5623

                     19                     20                     21
                      A                      A                      A
 Frequencies --    963.4685               972.1456              1016.2904
 Red. masses --      1.7892                 2.4810                 1.7213
 Frc consts  --      0.9786                 1.3815                 1.0474
 IR Inten    --      2.9790                17.4333                25.9929

                     22                     23                     24
                      A                      A                      A
 Frequencies --   1050.8136              1072.5593              1080.8747
 Red. masses --      2.4105                 1.9644                 2.1877
 Frc consts  --      1.5682                 1.3315                 1.5059
 IR Inten    --     25.0323                37.0923                16.2754

                     25                     26                     27
                      A                      A                      A
 Frequencies --   1110.2556              1142.2648              1169.1401
 Red. masses --      1.3993                 1.4263                 1.4727
 Frc consts  --      1.0163                 1.0965                 1.1860
 IR Inten    --      2.3671                22.0961                14.3192

                     28                     29                     30
                      A                      A                      A
 Frequencies --   1182.5285              1220.1947              1227.9627
 Red. masses --      1.4133                 1.7971                 2.0439
 Frc consts  --      1.1644                 1.5764                 1.8159
 IR Inten    --     12.0673                 1.8426                17.6631

                     31                     32                     33
                      A                      A                      A
 Frequencies --   1241.8655              1268.6753              1284.6769
 Red. masses --      1.4989                 1.3958                 1.5435
 Frc consts  --      1.3619                 1.3236                 1.5008
 IR Inten    --      2.6833                 1.7674                18.8384

                     34                     35                     36
                      A                      A                      A
 Frequencies --   1300.1791              1323.2787              1343.7504
 Red. masses --      2.0287                 1.4634                 1.5565
 Frc consts  --      2.0206                 1.5097                 1.6560
 IR Inten    --    100.9019                 3.4482                11.7160

                     37                     38                     39
                      A                      A                      A
 Frequencies --   1365.0121              1393.1050              1471.7403
 Red. masses --      1.7007                 1.8080                 1.1016
 Frc consts  --      1.8671                 2.0674                 1.4058
 IR Inten    --     15.7700                11.0471                 2.7062

                     40                     41                     42
                      A                      A                      A
 Frequencies --   1479.4151              1498.5793              3041.6751
 Red. masses --      1.1101                 1.1297                 1.0629
 Frc consts  --      1.4315                 1.4948                 5.7940
 IR Inten    --      0.6178                 5.2018                32.3760

                     43                     44                     45
                      A                      A                      A
 Frequencies --   3051.0915              3058.7958              3104.0667
 Red. masses --      1.0585                 1.0590                 1.1036
 Frc consts  --      5.8054                 5.8379                 6.2649
 IR Inten    --     31.1986                21.9523                 2.0883

                     46                     47                     48
                      A                      A                      A
 Frequencies --   3106.6394              3109.2186              3119.2350
 Red. masses --      1.1070                 1.1033                 1.0900
 Frc consts  --      6.2946                 6.2844                 6.2483
 IR Inten    --      8.6154                41.1519                53.9627

                     49                     50                     51
                      A                      A                      A
 Frequencies --   3122.0637              3150.0643              3801.8787
 Red. masses --      1.0910                 1.0920                 1.0657
 Frc consts  --      6.2657                 6.3840                 9.0753
 IR Inten    --     28.3296                21.4158                14.6639

 - Thermochemistry -
 -------------------
 Temperature   298.150 Kelvin.  Pressure   1.00000 Atm.
 Atom     1 has atomic number  8 and mass  15.99491

 Molecular mass:   126.06808 amu.
 Principal axes and moments of inertia in atomic units:
                           1         2         3
     Eigenvalues --   638.37392 962.262771117.42328
           X            0.99935   0.03015  -0.01972
           Y           -0.02895   0.99785   0.05882
           Z            0.02145  -0.05821   0.99807
 This molecule is an asymmetric top.
 Rotational symmetry number  1.
 Warning -- assumption of classical behavior for rotation
           may cause significant error
 Rotational temperatures (Kelvin)      0.13568     0.09001     0.07751
 Rotational constants (GHZ):           2.82709     1.87552     1.61509
 Zero-point vibrational energy     426446.1 (Joules/Mol)
                                  101.92305 (Kcal/Mol)
 Warning -- explicit consideration of   9 degrees of freedom as
           vibrations may cause significant error
 Vibrational temperatures:    345.11   391.36   428.75   556.22   587.29
          (Kelvin)            642.06   784.03   799.04   883.15  1026.48
                             1107.68  1177.92  1229.77  1243.68  1281.13
                             1297.68  1335.76  1360.77  1386.21  1398.70
                             1462.21  1511.88  1543.17  1555.14  1597.41
                             1643.46  1682.13  1701.39  1755.59  1766.76
                             1786.77  1825.34  1848.36  1870.67  1903.90
                             1933.35  1963.95  2004.36  2117.50  2128.55
                             2156.12  4376.29  4389.83  4400.92  4466.05
                             4469.76  4473.47  4487.88  4491.95  4532.23
                             5470.05

 Zero-point correction=                           0.162425 (Hartree/Particle)
 Thermal correction to Energy=                    0.169074
 Thermal correction to Enthalpy=                  0.170018
 Thermal correction to Gibbs Free Energy=         0.131951
 Sum of electronic and zero-point Energies=           -423.034748
 Sum of electronic and thermal Energies=              -423.028098
 Sum of electronic and thermal Enthalpies=            -423.027154
 Sum of electronic and thermal Free Energies=         -423.065222

                     E (Thermal)             CV                S
                      KCal/Mol        Cal/Mol-Kelvin    Cal/Mol-Kelvin
 Total                  106.096             28.731             80.120
 Electronic               0.000              0.000              0.000
 Translational            0.889              2.981             40.409
 Rotational               0.889              2.981             28.020
 Vibrational            104.318             22.769             11.692
 Vibration     1          0.657              1.779              1.804
 Vibration     2          0.675              1.725              1.583
 Vibration     3          0.691              1.677              1.428
 Vibration     4          0.755              1.499              1.013
 Vibration     5          0.773              1.452              0.933
 Vibration     6          0.806              1.369              0.807
 Vibration     7          0.900              1.151              0.555
 Vibration     8          0.911              1.128              0.533
 Vibration     9          0.973              1.003              0.426

 Optimization completed.
    -- Stationary point found.
 Normal termination of Gaussian 09 at Mon Jan 27 19:01:49 2020.
