 Gaussian 09, Revision D.01,
 Gaussian 09:  ES64L-G09RevD.01 24-Apr-2013

 -----------------------------
 # b3lyp 6-31G(2df,p) opt Freq
 -----------------------------

 -----
 titel
 -----
 Symbolic Z-matrix:
 Charge =  0 Multiplicity = 1

 SCF Done:  E(RB3LYP) =  -423.201433532     A.U. after   14 cycles
 Optimization completed.
    -- Stationary point found.
 Normal termination of Gaussian 09 at Mon Jan 27 13:06:19 2020.

 ----------------------------------------------------------------------
 #N Geom=AllCheck Guess=TCheck SCRF=Check GenChk RB3LYP/6-31G(2df,p) Fr
 eq
 ----------------------------------------------------------------------

 Structure from the checkpoint file:  "/scratch/puck/g09_0e436b99-6f1e-426a-ae0c-69afce253b2e/Gau-74421.chk"
 -----
 titel
 -----
 Charge =  0 Multiplicity = 1

                         Standard orientation:
 ---------------------------------------------------------------------
 Center     Atomic      Atomic             Coordinates (Angstroms)
 Number     Number       Type             X           Y           Z
 ---------------------------------------------------------------------
      1          8           0        0.572681    2.260240   -0.375754
      2          6           0        0.625828    1.136583    0.067320
      3          6           0        1.908255    0.304861    0.007964
      4          6           0        1.688498   -1.213434    0.167032
      5          6           0        0.357142   -1.635806   -0.476025
      6          6           0       -0.778201   -1.024056    0.337484
      7          8           0       -1.973026   -0.712612   -0.410460
      8          6           0       -1.930935    0.676962   -0.009532
      9          6           0       -0.581917    0.468859    0.702611
     10          1           0        2.378948    0.538997   -0.952745
     11          1           0        2.589662    0.690623    0.776932
     12          1           0        2.527832   -1.756446   -0.277051
     13          1           0        1.677338   -1.487449    1.230049
     14          1           0        0.298103   -1.257276   -1.503955
     15          1           0        0.262216   -2.724637   -0.525182
     16          1           0       -1.013559   -1.658940    1.203024
     17          1           0       -1.907616    1.362414   -0.862552
     18          1           0       -2.770248    0.938179    0.645563
     19          1           0       -0.571931    0.689701    1.774504
 ---------------------------------------------------------------------

 SCF Done:  E(RB3LYP) =  -423.201433532     A.U. after    1 cycles

 The electronic state is 1-A.
 Alpha  occ. eigenvalues --  -19.13421 -19.13132 -10.27225 -10.24103 -10.23301
 Alpha  occ. eigenvalues --  -10.20032 -10.19920 -10.19678 -10.18978  -1.04597
 Alpha  occ. eigenvalues --   -1.03661  -0.82637  -0.75642  -0.73555  -0.67659
 Alpha  occ. eigenvalues --   -0.60809  -0.58896  -0.51939  -0.51263  -0.48058
 Alpha  occ. eigenvalues --   -0.47155  -0.45927  -0.43680  -0.41535  -0.40834
 Alpha  occ. eigenvalues --   -0.39869  -0.37990  -0.37222  -0.35212  -0.33794
 Alpha  occ. eigenvalues --   -0.31954  -0.30579  -0.25641  -0.23965
 Alpha virt. eigenvalues --   -0.02242   0.07013   0.09282   0.10522   0.12001
 Alpha virt. eigenvalues --    0.12853   0.13576   0.14349   0.15372   0.15973
 Alpha virt. eigenvalues --    0.17795   0.19045   0.19926   0.20444   0.20873

 Mulliken charges:
               1
     1  O   -0.315353
     2  C    0.373924
     3  C   -0.298093
     4  C   -0.219602
     5  C   -0.235650
     6  C    0.143812
     7  O   -0.294147
     8  C   -0.083115
     9  C   -0.179192
    10  H    0.136086
    11  H    0.130177
    12  H    0.108744
    13  H    0.103669
    14  H    0.112599
    15  H    0.105124
    16  H    0.075940
    17  H    0.124414
    18  H    0.102940
    19  H    0.107724
 Sum of Mulliken charges =   0.00000

 Dipole moment (field-independent basis, Debye):
    X=              1.4194    Y=             -1.7429    Z=              1.7755  Tot=              2.8644
 Quadrupole moment (field-independent basis, Debye-Ang):
   XX=            -53.5223   YY=            -59.4375   ZZ=            -51.4241
   XY=             -4.6830   XZ=             -1.6092   YZ=              1.1610

  Exact polarizability:  80.738  -4.158  79.011  -1.393  -2.692  62.911
 Approx polarizability: 106.643  -2.990 117.222   0.383  -7.142 100.404

                      1                      2                      3
                      A                      A                      A
 Frequencies --     48.0710                81.1423               216.8559
 Red. masses --      3.2546                 3.0450                 2.1474
 Frc consts  --      0.0044                 0.0118                 0.0595
 IR Inten    --      4.3253                 1.8359                 0.5844

                      4                      5                      6
                      A                      A                      A
 Frequencies --    254.8091               347.6808               421.0596
 Red. masses --      2.8045                 2.7619                 4.9224
 Frc consts  --      0.1073                 0.1967                 0.5142
 IR Inten    --      4.9211                 8.0274                 1.2944

                      7                      8                      9
                      A                      A                      A
 Frequencies --    459.0623               477.6779               556.9391
 Red. masses --      3.1262                 4.5582                 3.2930
 Frc consts  --      0.3882                 0.6128                 0.6018
 IR Inten    --      1.5371                 3.4324                 2.6428

                     10                     11                     12
                      A                      A                      A
 Frequencies --    606.6560               691.3449               769.1839
 Red. masses --      2.3682                 2.5387                 2.5893
 Frc consts  --      0.5135                 0.7149                 0.9026
 IR Inten    --      3.2514                 0.2646                 3.9714

                     13                     14                     15
                      A                      A                      A
 Frequencies --    846.4050               881.3357               892.6743
 Red. masses --      1.8110                 1.9358                 2.0429
 Frc consts  --      0.7644                 0.8859                 0.9591
 IR Inten    --      6.3065                 4.5596                 5.1772

                     16                     17                     18
                      A                      A                      A
 Frequencies --    923.9427               960.1073               990.3897
 Red. masses --      2.4928                 1.9696                 2.8851
 Frc consts  --      1.2538                 1.0697                 1.6673
 IR Inten    --      6.0409                15.1014                26.3977

                     19                     20                     21
                      A                      A                      A
 Frequencies --   1023.8797              1034.3177              1056.4950
 Red. masses --      3.5223                 2.3930                 2.5394
 Frc consts  --      2.1755                 1.5084                 1.6700
 IR Inten    --     33.0239                45.0012                 3.5629

                     22                     23                     24
                      A                      A                      A
 Frequencies --   1093.1002              1114.9484              1133.9135
 Red. masses --      1.3861                 1.9009                 2.3781
 Frc consts  --      0.9758                 1.3923                 1.8015
 IR Inten    --     20.7924                 2.9949                 4.2408

                     25                     26                     27
                      A                      A                      A
 Frequencies --   1157.8344              1160.6968              1212.9328
 Red. masses --      1.2317                 1.8318                 1.4124
 Frc consts  --      0.9729                 1.4540                 1.2243
 IR Inten    --      0.9554                22.8851                 8.9966

                     28                     29                     30
                      A                      A                      A
 Frequencies --   1221.0544              1263.2758              1280.9870
 Red. masses --      1.7638                 1.2902                 1.3653
 Frc consts  --      1.5494                 1.2131                 1.3199
 IR Inten    --     25.0900                 4.8024                 3.5934

                     31                     32                     33
                      A                      A                      A
 Frequencies --   1321.9969              1331.6268              1340.1207
 Red. masses --      1.8262                 1.5169                 1.3352
 Frc consts  --      1.8804                 1.5847                 1.4128
 IR Inten    --     16.8721                 0.4195                 5.4358

                     34                     35                     36
                      A                      A                      A
 Frequencies --   1360.7230              1367.5761              1388.8069
 Red. masses --      1.4806                 1.4290                 1.4526
 Frc consts  --      1.6152                 1.5747                 1.6508
 IR Inten    --      3.9378                10.0416                22.5822

                     37                     38                     39
                      A                      A                      A
 Frequencies --   1447.0648              1496.7243              1500.5144
 Red. masses --      1.0778                 1.0868                 1.0894
 Frc consts  --      1.3297                 1.4345                 1.4452
 IR Inten    --      2.9622                 5.8034                 2.6323

                     40                     41                     42
                      A                      A                      A
 Frequencies --   1528.1890              1807.0656              2999.4629
 Red. masses --      1.0994                12.4475                 1.0845
 Frc consts  --      1.5127                23.9487                 5.7485
 IR Inten    --      0.5360               161.6714                48.1591

                     43                     44                     45
                      A                      A                      A
 Frequencies --   3023.1795              3028.1395              3036.1570
 Red. masses --      1.0686                 1.0602                 1.0637
 Frc consts  --      5.7541                 5.7279                 5.7774
 IR Inten    --     21.9424                68.0101                 5.5708

                     46                     47                     48
                      A                      A                      A
 Frequencies --   3038.1661              3064.6893              3074.3877
 Red. masses --      1.0611                 1.0849                 1.0959
 Frc consts  --      5.7707                 6.0035                 6.1032
 IR Inten    --     26.2246                 9.0900                10.3097

                     49                     50                     51
                      A                      A                      A
 Frequencies --   3085.3146              3088.8429              3089.9443
 Red. masses --      1.1064                 1.0971                 1.1027
 Frc consts  --      6.2051                 6.1671                 6.2033
 IR Inten    --     17.8176                28.7288                44.1736

 - Thermochemistry -
 -------------------
 Temperature   298.150 Kelvin.  Pressure   1.00000 Atm.
 Atom     1 has atomic number  8 and mass  15.99491

 Molecular mass:   126.06808 amu.
 Principal axes and moments of inertia in atomic units:
                           1         2         3
     Eigenvalues --   796.58888 967.164521572.31853
           X            0.98179  -0.18978  -0.00850
           Y            0.18982   0.98181   0.00393
           Z            0.00760  -0.00548   0.99996
 This molecule is an asymmetric top.
 Rotational symmetry number  1.
 Warning -- assumption of classical behavior for rotation
           may cause significant error
 Rotational temperatures (Kelvin)      0.10873     0.08955     0.05509
 Rotational constants (GHZ):           2.26559     1.86601     1.14782
 Zero-point vibrational energy     422266.6 (Joules/Mol)
                                  100.92414 (Kcal/Mol)
 Warning -- explicit consideration of  10 degrees of freedom as
           vibrations may cause significant error
 Vibrational temperatures:     69.16   116.75   312.01   366.61   500.23
          (Kelvin)            605.81   660.49   687.27   801.31   872.84
                              994.69  1106.68  1217.79  1268.04  1284.36
                             1329.35  1381.38  1424.95  1473.13  1488.15
                             1520.06  1572.73  1604.16  1631.45  1665.86
                             1669.98  1745.14  1756.82  1817.57  1843.05
                             1902.06  1915.91  1928.13  1957.77  1967.63
                             1998.18  2082.00  2153.45  2158.90  2198.72
                             2599.96  4315.55  4349.68  4356.81  4368.35
                             4371.24  4409.40  4423.35  4439.07  4444.15
                             4445.74

 Zero-point correction=                           0.160833 (Hartree/Particle)
 Thermal correction to Energy=                    0.168635
 Thermal correction to Enthalpy=                  0.169579
 Thermal correction to Gibbs Free Energy=         0.127700
 Sum of electronic and zero-point Energies=           -423.040601
 Sum of electronic and thermal Energies=              -423.032799
 Sum of electronic and thermal Enthalpies=            -423.031854
 Sum of electronic and thermal Free Energies=         -423.073733

                     E (Thermal)             CV                S
                      KCal/Mol        Cal/Mol-Kelvin    Cal/Mol-Kelvin
 Total                  105.820             29.781             88.142
 Electronic               0.000              0.000              0.000
 Translational            0.889              2.981             40.409
 Rotational               0.889              2.981             28.584
 Vibrational            104.043             23.820             19.149
 Vibration     1          0.595              1.978              4.895
 Vibration     2          0.600              1.962              3.863
 Vibration     3          0.646              1.815              1.985
 Vibration     4          0.665              1.755              1.697
 Vibration     5          0.725              1.580              1.177
 Vibration     6          0.784              1.424              0.888
 Vibration     7          0.817              1.341              0.769
 Vibration     8          0.834              1.300              0.716
 Vibration     9          0.912              1.125              0.530
 Vibration    10          0.965              1.018              0.438

 Optimization completed.
    -- Stationary point found.
 Normal termination of Gaussian 09 at Mon Jan 27 13:50:43 2020.
