 Gaussian 09, Revision D.01,
 Gaussian 09:  ES64L-G09RevD.01 24-Apr-2013

 -----------------------------
 # b3lyp 6-31G(2df,p) opt Freq
 -----------------------------

 -----
 titel
 -----
 Symbolic Z-matrix:
 Charge =  0 Multiplicity = 1

 SCF Done:  E(RB3LYP) =  -423.148484455     A.U. after   15 cycles
 Optimization completed.
    -- Stationary point found.
 Normal termination of Gaussian 09 at Tue Jan 28 12:07:36 2020.

 ----------------------------------------------------------------------
 #N Geom=AllCheck Guess=TCheck SCRF=Check GenChk RB3LYP/6-31G(2df,p) Fr
 eq
 ----------------------------------------------------------------------

 Structure from the checkpoint file:  "/scratch/puck/g09_09b8fd57-514e-4d35-9732-44700263e7df/Gau-22513.chk"
 -----
 titel
 -----
 Charge =  0 Multiplicity = 1

                         Standard orientation:
 ---------------------------------------------------------------------
 Center     Atomic      Atomic             Coordinates (Angstroms)
 Number     Number       Type             X           Y           Z
 ---------------------------------------------------------------------
      1          8           0       -2.521080   -1.949765    0.208899
      2          6           0       -1.893449   -0.804685   -0.343769
      3          6           0       -0.544656   -0.646827    0.349864
      4          6           0        0.253703    0.571078   -0.147302
      5          6           0        1.700317    0.580945    0.421528
      6          6           0        2.487928   -0.568590   -0.002163
      7          6           0        3.126674   -1.518053   -0.369655
      8          6           0       -0.436736    1.852070    0.282624
      9          8           0       -0.882863    2.686873   -0.460093
     10          1           0       -3.374748   -2.061831   -0.219254
     11          1           0       -1.737811   -0.914391   -1.429250
     12          1           0       -2.507908    0.098070   -0.196540
     13          1           0       -0.711438   -0.569137    1.432486
     14          1           0        0.046082   -1.553260    0.186922
     15          1           0        0.302125    0.574685   -1.240987
     16          1           0        2.205313    1.501948    0.104527
     17          1           0        1.657054    0.613966    1.518590
     18          1           0        3.700303   -2.354154   -0.685159
     19          1           0       -0.510115    1.971614    1.391460
 ---------------------------------------------------------------------

 SCF Done:  E(RB3LYP) =  -423.148484455     A.U. after    1 cycles

 The electronic state is 1-A.
 Alpha  occ. eigenvalues --  -19.14696 -19.13821 -10.27628 -10.23333 -10.22506
 Alpha  occ. eigenvalues --  -10.21049 -10.19271 -10.19012 -10.17926  -1.05384
 Alpha  occ. eigenvalues --   -1.01971  -0.83743  -0.76975  -0.72553  -0.67156
 Alpha  occ. eigenvalues --   -0.61660  -0.57896  -0.53409  -0.51625  -0.48584
 Alpha  occ. eigenvalues --   -0.47271  -0.46596  -0.45001  -0.43557  -0.41504
 Alpha  occ. eigenvalues --   -0.39438  -0.37644  -0.36659  -0.35525  -0.33065
 Alpha  occ. eigenvalues --   -0.27733  -0.27369  -0.27020  -0.25330
 Alpha virt. eigenvalues --   -0.03002   0.04561   0.04900   0.07458   0.09953
 Alpha virt. eigenvalues --    0.10742   0.12347   0.12545   0.14550   0.14792
 Alpha virt. eigenvalues --    0.16812   0.17752   0.18020   0.19238   0.22365

 Mulliken charges:
               1
     1  O   -0.419839
     2  C   -0.082005
     3  C   -0.194498
     4  C   -0.078513
     5  C   -0.382442
     6  C    0.300796
     7  C   -0.431167
     8  C    0.154689
     9  O   -0.248457
    10  H    0.288534
    11  H    0.094125
    12  H    0.097399
    13  H    0.108338
    14  H    0.133026
    15  H    0.105752
    16  H    0.143818
    17  H    0.136068
    18  H    0.200582
    19  H    0.073793
 Sum of Mulliken charges =   0.00000

 Dipole moment (field-independent basis, Debye):
    X=              0.1271    Y=             -1.0873    Z=              0.1996  Tot=              1.1127
 Quadrupole moment (field-independent basis, Debye-Ang):
   XX=            -47.8289   YY=            -60.4041   ZZ=            -53.0270
   XY=              2.5056   XZ=              1.5329   YZ=              6.3282

  Exact polarizability:  85.919 -12.017  86.283  -1.905   3.589  63.742
 Approx polarizability: 110.819 -24.477 131.662  -3.623   3.623 102.342

                      1                      2                      3
                      A                      A                      A
 Frequencies --     39.8489                63.8457                75.3555
 Red. masses --      5.6355                 3.7524                 2.4683
 Frc consts  --      0.0053                 0.0090                 0.0083
 IR Inten    --      7.3064                 0.1340                 1.9560

                      4                      5                      6
                      A                      A                      A
 Frequencies --     88.7231               149.4356               172.6349
 Red. masses --      3.2719                 3.0979                 3.2756
 Frc consts  --      0.0152                 0.0408                 0.0575
 IR Inten    --      7.7609                 0.6384                 0.9273

                      7                      8                      9
                      A                      A                      A
 Frequencies --    261.3380               280.6014               334.8106
 Red. masses --      1.1021                 2.7483                 3.0144
 Frc consts  --      0.0443                 0.1275                 0.1991
 IR Inten    --     98.4865                 4.8980                 8.6519

                     10                     11                     12
                      A                      A                      A
 Frequencies --    343.7544               368.7852               393.0431
 Red. masses --      3.3354                 2.7235                 6.1725
 Frc consts  --      0.2322                 0.2182                 0.5618
 IR Inten    --      6.1903                 5.3954                 3.3087

                     13                     14                     15
                      A                      A                      A
 Frequencies --    512.9914               593.3695               624.1402
 Red. masses --      4.8584                 3.4893                 1.2073
 Frc consts  --      0.7533                 0.7238                 0.2771
 IR Inten    --     10.1063                11.6035                43.8399

                     16                     17                     18
                      A                      A                      A
 Frequencies --    648.2181               785.7840               864.5542
 Red. masses --      1.2165                 1.1901                 1.8715
 Frc consts  --      0.3012                 0.4330                 0.8242
 IR Inten    --     42.2549                 3.9899                 5.8650

                     19                     20                     21
                      A                      A                      A
 Frequencies --    914.0356               959.3723               999.0807
 Red. masses --      3.4908                 1.6044                 2.8993
 Frc consts  --      1.7183                 0.8700                 1.7051
 IR Inten    --      4.9022                21.1586                 5.8939

                     22                     23                     24
                      A                      A                      A
 Frequencies --   1016.0655              1045.9635              1090.8509
 Red. masses --      2.7504                 2.5644                 4.2648
 Frc consts  --      1.6730                 1.6530                 2.9900
 IR Inten    --      0.3962                52.0869                45.4690

                     25                     26                     27
                      A                      A                      A
 Frequencies --   1108.9149              1144.4926              1203.6494
 Red. masses --      2.6914                 1.9842                 1.2095
 Frc consts  --      1.9500                 1.5313                 1.0324
 IR Inten    --     10.2765                 5.2840                 3.6161

                     28                     29                     30
                      A                      A                      A
 Frequencies --   1225.4761              1258.4467              1282.5344
 Red. masses --      1.2437                 1.2566                 1.2252
 Frc consts  --      1.1004                 1.1725                 1.1874
 IR Inten    --      6.5533                37.8397                 4.3150

                     31                     32                     33
                      A                      A                      A
 Frequencies --   1316.2739              1325.3021              1358.7517
 Red. masses --      1.1455                 1.2265                 1.4462
 Frc consts  --      1.1694                 1.2693                 1.5731
 IR Inten    --      2.3939                15.6179                 8.4626

                     34                     35                     36
                      A                      A                      A
 Frequencies --   1367.1901              1425.2112              1465.5618
 Red. masses --      1.3915                 1.1972                 1.4243
 Frc consts  --      1.5324                 1.4328                 1.8025
 IR Inten    --      3.8397                 3.0157                 9.4077

                     37                     38                     39
                      A                      A                      A
 Frequencies --   1473.0843              1494.5168              1527.0834
 Red. masses --      1.1030                 1.0902                 1.0876
 Frc consts  --      1.4102                 1.4347                 1.4943
 IR Inten    --      1.9736                 2.3304                 2.2066

                     40                     41                     42
                      A                      A                      A
 Frequencies --   1835.3809              2239.3323              2834.7990
 Red. masses --     10.4694                 5.9252                 1.0809
 Frc consts  --     20.7789                17.5061                 5.1178
 IR Inten    --    178.8514                 1.0232                96.5961

                     43                     44                     45
                      A                      A                      A
 Frequencies --   2965.8883              2992.0276              3016.4957
 Red. masses --      1.0547                 1.1053                 1.0592
 Frc consts  --      5.4661                 5.8300                 5.6787
 IR Inten    --     46.9268                44.1260                12.5022

                     46                     47                     48
                      A                      A                      A
 Frequencies --   3029.4265              3050.3043              3071.1213
 Red. masses --      1.0654                 1.0978                 1.0862
 Frc consts  --      5.7608                 6.0183                 6.0360
 IR Inten    --     23.0621                 4.2740                19.3027

                     49                     50                     51
                      A                      A                      A
 Frequencies --   3093.3197              3505.2472              3831.0332
 Red. masses --      1.0976                 1.1625                 1.0664
 Frc consts  --      6.1881                 8.4155                 9.2213
 IR Inten    --     15.7123                69.1762                24.2810

 - Thermochemistry -
 -------------------
 Temperature   298.150 Kelvin.  Pressure   1.00000 Atm.
 Atom     1 has atomic number  8 and mass  15.99491

 Molecular mass:   126.06808 amu.
 Principal axes and moments of inertia in atomic units:
                           1         2         3
     Eigenvalues --  1115.898351627.460072583.34888
           X            0.99971   0.02367   0.00457
           Y           -0.02376   0.99952   0.01985
           Z           -0.00410  -0.01995   0.99979
 This molecule is an asymmetric top.
 Rotational symmetry number  1.
 Warning -- assumption of classical behavior for rotation
           may cause significant error
 Rotational temperatures (Kelvin)      0.07762     0.05322     0.03353
 Rotational constants (GHZ):           1.61730     1.10893     0.69861
 Zero-point vibrational energy     407133.9 (Joules/Mol)
                                   97.30733 (Kcal/Mol)
 Warning -- explicit consideration of  14 degrees of freedom as
           vibrations may cause significant error
 Vibrational temperatures:     57.33    91.86   108.42   127.65   215.00
          (Kelvin)            248.38   376.01   403.72   481.72   494.59
                              530.60   565.50   738.08   853.73   898.00
                              932.64  1130.57  1243.90  1315.09  1380.32
                             1437.45  1461.89  1504.91  1569.49  1595.48
                             1646.67  1731.78  1763.18  1810.62  1845.28
                             1893.82  1906.81  1954.94  1967.08  2050.56
                             2108.61  2119.44  2150.27  2197.13  2640.70
                             3221.90  4078.64  4267.25  4304.85  4340.06
                             4358.66  4388.70  4418.65  4450.59  5043.26
                             5512.00

 Zero-point correction=                           0.155069 (Hartree/Particle)
 Thermal correction to Energy=                    0.165868
 Thermal correction to Enthalpy=                  0.166813
 Thermal correction to Gibbs Free Energy=         0.117570
 Sum of electronic and zero-point Energies=           -422.993415
 Sum of electronic and thermal Energies=              -422.982616
 Sum of electronic and thermal Enthalpies=            -422.981672
 Sum of electronic and thermal Free Energies=         -423.030914

                     E (Thermal)             CV                S
                      KCal/Mol        Cal/Mol-Kelvin    Cal/Mol-Kelvin
 Total                  104.084             37.137            103.640
 Electronic               0.000              0.000              0.000
 Translational            0.889              2.981             40.409
 Rotational               0.889              2.981             29.929
 Vibrational            102.307             31.176             33.302
 Vibration     1          0.594              1.981              5.267
 Vibration     2          0.597              1.972              4.335
 Vibration     3          0.599              1.965              4.008
 Vibration     4          0.602              1.957              3.688
 Vibration     5          0.618              1.903              2.679
 Vibration     6          0.626              1.876              2.407
 Vibration     7          0.669              1.744              1.653
 Vibration     8          0.680              1.710              1.530
 Vibration     9          0.716              1.606              1.237
 Vibration    10          0.723              1.588              1.195
 Vibration    11          0.741              1.536              1.085
 Vibration    12          0.760              1.485              0.989
 Vibration    13          0.868              1.221              0.626
 Vibration    14          0.951              1.046              0.461

 Normal termination of Gaussian 09 at Tue Jan 28 12:46:34 2020.
