 Gaussian 09, Revision D.01,
 Gaussian 09:  ES64L-G09RevD.01 24-Apr-2013

 -----------------------------
 # b3lyp 6-31G(2df,p) opt Freq
 -----------------------------

 -----
 titel
 -----
 Symbolic Z-matrix:
 Charge =  0 Multiplicity = 1

 SCF Done:  E(RB3LYP) =  -423.160509462     A.U. after   14 cycles
 Optimization completed.
    -- Stationary point found.
 Normal termination of Gaussian 09 at Mon Jan 27 16:24:48 2020.

 ----------------------------------------------------------------------
 #N Geom=AllCheck Guess=TCheck SCRF=Check GenChk RB3LYP/6-31G(2df,p) Fr
 eq
 ----------------------------------------------------------------------

 Structure from the checkpoint file:  "/scratch/puck/g09_6b2f0969-726c-4120-980b-0c5078400ca3/Gau-76297.chk"
 -----
 titel
 -----
 Charge =  0 Multiplicity = 1

                         Standard orientation:
 ---------------------------------------------------------------------
 Center     Atomic      Atomic             Coordinates (Angstroms)
 Number     Number       Type             X           Y           Z
 ---------------------------------------------------------------------
      1          8           0       -1.661273    1.327091    0.014780
      2          6           0       -1.030284    0.070357   -0.007374
      3          6           0       -1.764192   -1.033343   -0.728839
      4          6           0       -1.756514   -0.974984    0.787400
      5          6           0        0.481202    0.144539    0.000413
      6          6           0        1.176743    1.315643   -0.692534
      7          6           0        1.143001    1.274128    0.794237
      8          6           0        1.264268   -1.122982   -0.016297
      9          8           0        2.472022   -1.173592   -0.058227
     10          1           0       -1.689928    1.661421   -0.888098
     11          1           0       -2.686238   -0.758771   -1.229643
     12          1           0       -1.196069   -1.812199   -1.226410
     13          1           0       -2.667473   -0.653854    1.278210
     14          1           0       -1.179921   -1.712777    1.334597
     15          1           0        2.109748    1.074232   -1.187862
     16          1           0        0.546427    2.038179   -1.197321
     17          1           0        2.056066    1.013018    1.315843
     18          1           0        0.463871    1.944902    1.305606
     19          1           0        0.672186   -2.062292    0.020615
 ---------------------------------------------------------------------

 SCF Done:  E(RB3LYP) =  -423.160509462     A.U. after    1 cycles

 The electronic state is 1-A.
 Alpha  occ. eigenvalues --  -19.15502 -19.13460 -10.27016 -10.25399 -10.21020
 Alpha  occ. eigenvalues --  -10.19830 -10.19522 -10.19474 -10.19228  -1.04409
 Alpha  occ. eigenvalues --   -1.04071  -0.87514  -0.84770  -0.68299  -0.62446
 Alpha  occ. eigenvalues --   -0.61061  -0.60508  -0.54183  -0.53559  -0.51062
 Alpha  occ. eigenvalues --   -0.47705  -0.45506  -0.43673  -0.42785  -0.40475
 Alpha  occ. eigenvalues --   -0.39035  -0.37790  -0.36105  -0.34207  -0.32483
 Alpha  occ. eigenvalues --   -0.31959  -0.28019  -0.25844  -0.25195
 Alpha virt. eigenvalues --   -0.02600   0.06193   0.09325   0.09700   0.11571
 Alpha virt. eigenvalues --    0.12785   0.14294   0.14713   0.15099   0.18150
 Alpha virt. eigenvalues --    0.19069   0.20017   0.20519   0.21796   0.22383

 Mulliken charges:
               1
     1  O   -0.456046
     2  C    0.301858
     3  C   -0.335638
     4  C   -0.298594
     5  C    0.196121
     6  C   -0.297104
     7  C   -0.277255
     8  C    0.082925
     9  O   -0.281483
    10  H    0.286801
    11  H    0.117273
    12  H    0.118667
    13  H    0.128894
    14  H    0.119347
    15  H    0.139973
    16  H    0.104760
    17  H    0.135548
    18  H    0.137737
    19  H    0.076217
 Sum of Mulliken charges =   0.00000

 Dipole moment (field-independent basis, Debye):
    X=             -2.2072    Y=              0.5924    Z=             -1.0329  Tot=              2.5079
 Quadrupole moment (field-independent basis, Debye-Ang):
   XX=            -60.5984   YY=            -52.8924   ZZ=            -50.6376
   XY=              3.6110   XZ=              2.5643   YZ=             -2.6017

  Exact polarizability:  83.083   2.886  79.891   0.302  -1.008  65.388
 Approx polarizability: 118.563  -0.394 117.957  -0.430  -1.018 101.784

                      1                      2                      3
                      A                      A                      A
 Frequencies --     62.2569               105.2113               200.4748
 Red. masses --      4.4553                 2.6856                 4.7987
 Frc consts  --      0.0102                 0.0175                 0.1136
 IR Inten    --      2.8740                 7.4290                 3.2829

                      4                      5                      6
                      A                      A                      A
 Frequencies --    241.3693               279.3240               308.6762
 Red. masses --      2.3347                 3.6145                 1.6703
 Frc consts  --      0.0801                 0.1662                 0.0938
 IR Inten    --      1.7499                 8.5014                26.9259

                      7                      8                      9
                      A                      A                      A
 Frequencies --    334.3740               344.5307               396.0471
 Red. masses --      2.5864                 1.9444                 1.7672
 Frc consts  --      0.1704                 0.1360                 0.1633
 IR Inten    --     37.7691                13.0259                27.4862

                     10                     11                     12
                      A                      A                      A
 Frequencies --    415.1245               519.1345               541.5443
 Red. masses --      5.5681                 4.0120                 3.1479
 Frc consts  --      0.5653                 0.6370                 0.5439
 IR Inten    --     10.6592                 3.0342                 5.6745

                     13                     14                     15
                      A                      A                      A
 Frequencies --    715.7379               767.7233               796.6218
 Red. masses --      3.3558                 1.0848                 1.0980
 Frc consts  --      1.0129                 0.3767                 0.4105
 IR Inten    --     10.1685                 2.5490                 0.1972

                     16                     17                     18
                      A                      A                      A
 Frequencies --    817.2541               835.6998               906.3471
 Red. masses --      4.3266                 2.4203                 1.7808
 Frc consts  --      1.7026                 0.9959                 0.8619
 IR Inten    --      2.6507                 6.5630                 7.7564

                     19                     20                     21
                      A                      A                      A
 Frequencies --    919.0064               926.1501               980.9508
 Red. masses --      1.5542                 1.7166                 1.8093
 Frc consts  --      0.7734                 0.8675                 1.0258
 IR Inten    --     36.0982                30.8274                 3.1669

                     22                     23                     24
                      A                      A                      A
 Frequencies --    985.8643              1022.3105              1052.4051
 Red. masses --      2.0076                 4.5444                 1.4557
 Frc consts  --      1.1496                 2.7983                 0.9500
 IR Inten    --      3.2129                50.0250                12.8189

                     25                     26                     27
                      A                      A                      A
 Frequencies --   1054.3847              1068.3918              1078.2432
 Red. masses --      1.6911                 1.1819                 1.4239
 Frc consts  --      1.1077                 0.7949                 0.9754
 IR Inten    --      0.0408                 2.9580                 0.4563

                     28                     29                     30
                      A                      A                      A
 Frequencies --   1102.1569              1181.7967              1185.7234
 Red. masses --      1.3949                 2.1222                 1.2751
 Frc consts  --      0.9984                 1.7463                 1.0562
 IR Inten    --      1.5776                22.3994                 0.0566

                     31                     32                     33
                      A                      A                      A
 Frequencies --   1208.1691              1250.5589              1301.4017
 Red. masses --      1.2847                 2.7244                 2.2117
 Frc consts  --      1.1048                 2.5103                 2.2069
 IR Inten    --      0.3969                23.9846               118.8395

                     34                     35                     36
                      A                      A                      A
 Frequencies --   1348.6474              1374.0424              1439.2795
 Red. masses --      1.9502                 2.6102                 1.0899
 Frc consts  --      2.0899                 2.9035                 1.3303
 IR Inten    --      2.7730                13.7876                 5.7273

                     37                     38                     39
                      A                      A                      A
 Frequencies --   1449.6662              1453.9218              1474.5484
 Red. masses --      1.3054                 1.0902                 1.3344
 Frc consts  --      1.6164                 1.3578                 1.7094
 IR Inten    --     14.1492                 3.3772                11.2539

                     40                     41                     42
                      A                      A                      A
 Frequencies --   1499.1778              1800.0577              2897.4720
 Red. masses --      1.4784                 9.9206                 1.0818
 Frc consts  --      1.9577                18.9392                 5.3510
 IR Inten    --      9.1262               147.1171               110.6114

                     43                     44                     45
                      A                      A                      A
 Frequencies --   3130.0292              3139.4636              3143.5625
 Red. masses --      1.0539                 1.0559                 1.0533
 Frc consts  --      6.0835                 6.1317                 6.1326
 IR Inten    --      9.5240                 6.7448                12.4661

                     46                     47                     48
                      A                      A                      A
 Frequencies --   3148.6147              3214.8679              3232.4634
 Red. masses --      1.0524                 1.1178                 1.1157
 Frc consts  --      6.1468                 6.8071                 6.8688
 IR Inten    --      6.5966                 3.0642                 8.4570

                     49                     50                     51
                      A                      A                      A
 Frequencies --   3234.3161              3251.4974              3803.2984
 Red. masses --      1.1184                 1.1179                 1.0662
 Frc consts  --      6.8931                 6.9631                 9.0869
 IR Inten    --      1.8149                 1.7200                19.2986

 - Thermochemistry -
 -------------------
 Temperature   298.150 Kelvin.  Pressure   1.00000 Atm.
 Atom     1 has atomic number  8 and mass  15.99491

 Molecular mass:   126.06808 amu.
 Principal axes and moments of inertia in atomic units:
                           1         2         3
     Eigenvalues --   695.712961265.799931670.22911
           X            0.99800   0.06297   0.00492
           Y           -0.06291   0.99796  -0.01116
           Z           -0.00562   0.01083   0.99993
 This molecule is an asymmetric top.
 Rotational symmetry number  1.
 Warning -- assumption of classical behavior for rotation
           may cause significant error
 Rotational temperatures (Kelvin)      0.12450     0.06843     0.05186
 Rotational constants (GHZ):           2.59409     1.42577     1.08054
 Zero-point vibrational energy     412352.1 (Joules/Mol)
                                   98.55452 (Kcal/Mol)
 Warning -- explicit consideration of  12 degrees of freedom as
           vibrations may cause significant error
 Vibrational temperatures:     89.57   151.38   288.44   347.28   401.88
          (Kelvin)            444.12   481.09   495.70   569.82   597.27
                              746.92   779.16  1029.79  1104.58  1146.16
                             1175.84  1202.38  1304.03  1322.24  1332.52
                             1411.37  1418.44  1470.87  1514.17  1517.02
                             1537.18  1551.35  1585.76  1700.34  1705.99
                             1738.28  1799.27  1872.42  1940.40  1976.94
                             2070.80  2085.74  2091.87  2121.54  2156.98
                             2589.88  4168.81  4503.41  4516.98  4522.88
                             4530.15  4625.47  4650.79  4653.45  4678.17
                             5472.09

 Zero-point correction=                           0.157057 (Hartree/Particle)
 Thermal correction to Energy=                    0.166043
 Thermal correction to Enthalpy=                  0.166987
 Thermal correction to Gibbs Free Energy=         0.123425
 Sum of electronic and zero-point Energies=           -423.003453
 Sum of electronic and thermal Energies=              -422.994466
 Sum of electronic and thermal Enthalpies=            -422.993522
 Sum of electronic and thermal Free Energies=         -423.037084

                     E (Thermal)             CV                S
                      KCal/Mol        Cal/Mol-Kelvin    Cal/Mol-Kelvin
 Total                  104.194             34.470             91.683
 Electronic               0.000              0.000              0.000
 Translational            0.889              2.981             40.409
 Rotational               0.889              2.981             28.777
 Vibrational            102.416             28.509             22.498
 Vibration     1          0.597              1.972              4.384
 Vibration     2          0.605              1.945              3.355
 Vibration     3          0.638              1.839              2.129
 Vibration     4          0.658              1.777              1.793
 Vibration     5          0.680              1.712              1.538
 Vibration     6          0.698              1.657              1.369
 Vibration     7          0.716              1.607              1.239
 Vibration     8          0.723              1.586              1.191
 Vibration     9          0.763              1.479              0.977
 Vibration    10          0.779              1.437              0.909
 Vibration    11          0.874              1.208              0.612
 Vibration    12          0.897              1.158              0.562

 Normal termination of Gaussian 09 at Mon Jan 27 17:17:12 2020.
