 Gaussian 09, Revision D.01,
 Gaussian 09:  ES64L-G09RevD.01 24-Apr-2013

 -----------------------------
 # b3lyp 6-31G(2df,p) opt Freq
 -----------------------------

 -----
 titel
 -----
 Symbolic Z-matrix:
 Charge =  0 Multiplicity = 1

 SCF Done:  E(RB3LYP) =  -423.186584845     A.U. after   14 cycles
 Optimization completed.
    -- Stationary point found.
 Normal termination of Gaussian 09 at Mon Jan 27 13:57:29 2020.

 ----------------------------------------------------------------------
 #N Geom=AllCheck Guess=TCheck SCRF=Check GenChk RB3LYP/6-31G(2df,p) Fr
 eq
 ----------------------------------------------------------------------

 Structure from the checkpoint file:  "/scratch/puck/g09_3b623f08-c327-4f53-82b1-57d8bc3c3e8c/Gau-3679.chk"
 -----
 titel
 -----
 Charge =  0 Multiplicity = 1

                         Standard orientation:
 ---------------------------------------------------------------------
 Center     Atomic      Atomic             Coordinates (Angstroms)
 Number     Number       Type             X           Y           Z
 ---------------------------------------------------------------------
      1          8           0       -3.597917   -0.218443   -0.084085
      2          6           0       -2.492212    0.256961   -0.022257
      3          6           0       -1.279801   -0.468367    0.521176
      4          6           0       -0.062648   -0.361024   -0.417526
      5          8           0        0.320264    1.003200   -0.629418
      6          6           0        1.326611    1.364465    0.320121
      7          6           0        2.069815    0.081908    0.635883
      8          6           0        2.468798   -0.755196   -0.551220
      9          6           0        1.170414   -1.036414    0.159943
     10          1           0       -2.286892    1.291254   -0.372250
     11          1           0       -1.017511   -0.013800    1.487060
     12          1           0       -1.548503   -1.513724    0.701258
     13          1           0       -0.330728   -0.752844   -1.406510
     14          1           0        1.941322    2.139899   -0.149027
     15          1           0        0.883374    1.787227    1.235249
     16          1           0        2.626835    0.013023    1.562417
     17          1           0        2.425883   -0.302166   -1.537154
     18          1           0        3.274673   -1.466793   -0.412034
     19          1           0        1.046912   -1.954127    0.722303
 ---------------------------------------------------------------------

 SCF Done:  E(RB3LYP) =  -423.186584845     A.U. after    1 cycles

 The electronic state is 1-A.
 Alpha  occ. eigenvalues --  -19.14814 -19.13462 -10.26598 -10.24725 -10.23690
 Alpha  occ. eigenvalues --  -10.20237 -10.20188 -10.19433 -10.19368  -1.04632
 Alpha  occ. eigenvalues --   -1.04028  -0.86748  -0.78948  -0.71454  -0.65307
 Alpha  occ. eigenvalues --   -0.58858  -0.57954  -0.56531  -0.52581  -0.49855
 Alpha  occ. eigenvalues --   -0.46110  -0.45898  -0.44511  -0.42450  -0.41016
 Alpha  occ. eigenvalues --   -0.40358  -0.39406  -0.36807  -0.35915  -0.32545
 Alpha  occ. eigenvalues --   -0.30088  -0.29698  -0.26360  -0.24250
 Alpha virt. eigenvalues --   -0.01873   0.07948   0.10020   0.11135   0.12094
 Alpha virt. eigenvalues --    0.12291   0.12934   0.14813   0.16192   0.16369
 Alpha virt. eigenvalues --    0.16868   0.17405   0.17999   0.20267   0.21586

 Mulliken charges:
               1
     1  O   -0.243239
     2  C    0.150575
     3  C   -0.294169
     4  C    0.087671
     5  O   -0.270210
     6  C   -0.101252
     7  C   -0.047011
     8  C   -0.306763
     9  C   -0.042610
    10  H    0.094250
    11  H    0.121249
    12  H    0.118958
    13  H    0.095993
    14  H    0.113673
    15  H    0.094357
    16  H    0.093572
    17  H    0.125375
    18  H    0.115620
    19  H    0.093960
 Sum of Mulliken charges =   0.00000

 Dipole moment (field-independent basis, Debye):
    X=              3.4875    Y=             -0.2963    Z=              1.3063  Tot=              3.7359
 Quadrupole moment (field-independent basis, Debye-Ang):
   XX=            -64.8374   YY=            -51.8256   ZZ=            -51.9614
   XY=             -1.8971   XZ=              0.2165   YZ=              1.1283

  Exact polarizability:  91.872   2.075  72.372   0.605   0.838  62.839
 Approx polarizability: 121.616   8.351 108.307   2.217   1.265  98.378

                      1                      2                      3
                      A                      A                      A
 Frequencies --     56.1964                82.4889               144.1687
 Red. masses --      4.7706                 3.2835                 3.6221
 Frc consts  --      0.0089                 0.0132                 0.0444
 IR Inten    --      4.8467                 2.4982                 4.2953

                      4                      5                      6
                      A                      A                      A
 Frequencies --    167.2064               288.3627               327.4693
 Red. masses --      2.3749                 3.0522                 2.8917
 Frc consts  --      0.0391                 0.1495                 0.1827
 IR Inten    --      0.2091                 5.7780                 0.3108

                      7                      8                      9
                      A                      A                      A
 Frequencies --    381.3860               436.3976               536.3605
 Red. masses --      2.6979                 3.8829                 1.9046
 Frc consts  --      0.2312                 0.4357                 0.3228
 IR Inten    --      0.3633                 7.5908                16.9115

                     10                     11                     12
                      A                      A                      A
 Frequencies --    680.5947               722.2563               791.5836
 Red. masses --      2.9688                 4.0223                 2.2487
 Frc consts  --      0.8102                 1.2363                 0.8302
 IR Inten    --      2.3189                 3.2774                 4.6296

                     13                     14                     15
                      A                      A                      A
 Frequencies --    822.8237               825.7147               857.5396
 Red. masses --      1.4015                 1.8828                 2.4999
 Frc consts  --      0.5591                 0.7563                 1.0831
 IR Inten    --      4.5165                 6.8266                 5.7789

                     16                     17                     18
                      A                      A                      A
 Frequencies --    893.0031               939.3380               969.4051
 Red. masses --      2.1577                 2.5535                 2.2555
 Frc consts  --      1.0138                 1.3275                 1.2488
 IR Inten    --      1.7702                10.0904                19.5455

                     19                     20                     21
                      A                      A                      A
 Frequencies --   1011.9828              1026.2218              1058.3082
 Red. masses --      2.6240                 1.7687                 2.5237
 Frc consts  --      1.5833                 1.0975                 1.6654
 IR Inten    --      1.8119                24.8061                70.6509

                     22                     23                     24
                      A                      A                      A
 Frequencies --   1073.0341              1080.2382              1101.2790
 Red. masses --      1.7000                 1.4474                 1.5232
 Frc consts  --      1.1532                 0.9951                 1.0884
 IR Inten    --      3.6224                 2.4126                16.7721

                     25                     26                     27
                      A                      A                      A
 Frequencies --   1113.0827              1121.5761              1137.4707
 Red. masses --      1.8474                 1.7204                 2.5936
 Frc consts  --      1.3486                 1.2751                 1.9771
 IR Inten    --     18.2998                 1.8064                29.6540

                     28                     29                     30
                      A                      A                      A
 Frequencies --   1198.4702              1225.6259              1233.6342
 Red. masses --      1.6581                 1.3249                 1.1453
 Frc consts  --      1.4032                 1.1726                 1.0270
 IR Inten    --      3.5410                 4.0228                12.6147

                     31                     32                     33
                      A                      A                      A
 Frequencies --   1263.4493              1319.6405              1346.1788
 Red. masses --      1.3326                 1.3733                 1.5983
 Frc consts  --      1.2533                 1.4090                 1.7065
 IR Inten    --      2.0243                 1.7442                 3.7227

                     34                     35                     36
                      A                      A                      A
 Frequencies --   1360.7762              1376.8271              1406.2967
 Red. masses --      1.9417                 1.4032                 1.4437
 Frc consts  --      2.1184                 1.5673                 1.6822
 IR Inten    --      4.5040                29.7162                 5.2097

                     37                     38                     39
                      A                      A                      A
 Frequencies --   1424.5567              1450.5724              1481.9216
 Red. masses --      1.2089                 1.0954                 1.3141
 Frc consts  --      1.4454                 1.3580                 1.7003
 IR Inten    --      8.0110                 4.9001                 2.4896

                     40                     41                     42
                      A                      A                      A
 Frequencies --   1520.7259              1829.5863              2909.5017
 Red. masses --      1.0897                 9.8333                 1.0834
 Frc consts  --      1.4848                19.3935                 5.4035
 IR Inten    --      0.2131               192.7311                69.9039

                     43                     44                     45
                      A                      A                      A
 Frequencies --   2980.9104              3017.2825              3035.1235
 Red. masses --      1.0703                 1.0668                 1.0820
 Frc consts  --      5.6033                 5.7223                 5.8728
 IR Inten    --     66.7708                 1.8778                35.8581

                     46                     47                     48
                      A                      A                      A
 Frequencies --   3067.3828              3096.5591              3129.2382
 Red. masses --      1.0931                 1.0973                 1.0543
 Frc consts  --      6.0595                 6.1994                 6.0825
 IR Inten    --     38.2763                13.0794                12.1303

                     49                     50                     51
                      A                      A                      A
 Frequencies --   3182.3043              3189.7039              3219.9642
 Red. masses --      1.0889                 1.0955                 1.1149
 Frc consts  --      6.4970                 6.5672                 6.8107
 IR Inten    --     10.0416                 6.9422                 9.0054

 - Thermochemistry -
 -------------------
 Temperature   298.150 Kelvin.  Pressure   1.00000 Atm.
 Atom     1 has atomic number  8 and mass  15.99491

 Molecular mass:   126.06808 amu.
 Principal axes and moments of inertia in atomic units:
                           1         2         3
     Eigenvalues --   415.189241916.370292090.51782
           X            0.99999  -0.00516  -0.00136
           Y            0.00518   0.99976   0.02139
           Z            0.00125  -0.02140   0.99977
 This molecule is an asymmetric top.
 Rotational symmetry number  1.
 Rotational temperatures (Kelvin)      0.20861     0.04520     0.04143
 Rotational constants (GHZ):           4.34679     0.94175     0.86330
 Zero-point vibrational energy     418165.0 (Joules/Mol)
                                   99.94382 (Kcal/Mol)
 Warning -- explicit consideration of   9 degrees of freedom as
           vibrations may cause significant error
 Vibrational temperatures:     80.85   118.68   207.43   240.57   414.89
          (Kelvin)            471.15   548.73   627.88   771.70   979.22
                             1039.16  1138.91  1183.86  1188.02  1233.81
                             1284.83  1351.50  1394.76  1456.02  1476.50
                             1522.67  1543.85  1554.22  1584.49  1601.48
                             1613.70  1636.56  1724.33  1763.40  1774.92
                             1817.82  1898.67  1936.85  1957.85  1980.94
                             2023.34  2049.62  2087.05  2132.15  2187.98
                             2632.36  4186.12  4288.86  4341.19  4366.86
                             4413.27  4455.25  4502.27  4578.62  4589.27
                             4632.80

 Zero-point correction=                           0.159271 (Hartree/Particle)
 Thermal correction to Energy=                    0.167613
 Thermal correction to Enthalpy=                  0.168558
 Thermal correction to Gibbs Free Energy=         0.125415
 Sum of electronic and zero-point Energies=           -423.027314
 Sum of electronic and thermal Energies=              -423.018971
 Sum of electronic and thermal Enthalpies=            -423.018027
 Sum of electronic and thermal Free Energies=         -423.061170

                     E (Thermal)             CV                S
                      KCal/Mol        Cal/Mol-Kelvin    Cal/Mol-Kelvin
 Total                  105.179             30.950             90.802
 Electronic               0.000              0.000              0.000
 Translational            0.889              2.981             40.409
 Rotational               0.889              2.981             28.899
 Vibrational            103.402             24.989             21.494
 Vibration     1          0.596              1.975              4.586
 Vibration     2          0.600              1.961              3.831
 Vibration     3          0.616              1.909              2.748
 Vibration     4          0.624              1.883              2.467
 Vibration     5          0.685              1.695              1.484
 Vibration     6          0.711              1.621              1.273
 Vibration     7          0.751              1.510              1.034
 Vibration     8          0.797              1.391              0.838
 Vibration     9          0.891              1.170              0.573

 Optimization completed.
    -- Stationary point found.
 Normal termination of Gaussian 09 at Mon Jan 27 15:45:38 2020.
