 Gaussian 09, Revision D.01,
 Gaussian 09:  ES64L-G09RevD.01 24-Apr-2013

 -----------------------------
 # b3lyp 6-31G(2df,p) opt Freq
 -----------------------------

 -----
 titel
 -----
 Symbolic Z-matrix:
 Charge =  0 Multiplicity = 1

 SCF Done:  E(RB3LYP) =  -423.159965972     A.U. after   14 cycles
 Optimization completed.
    -- Stationary point found.
 Normal termination of Gaussian 09 at Tue Jan 28 03:12:06 2020.

 ----------------------------------------------------------------------
 #N Geom=AllCheck Guess=TCheck SCRF=Check GenChk RB3LYP/6-31G(2df,p) Fr
 eq
 ----------------------------------------------------------------------

 Structure from the checkpoint file:  "/scratch/puck/g09_f28b72f5-dc9c-4df0-864e-22d2d7bbf5b0/Gau-45085.chk"
 -----
 titel
 -----
 Charge =  0 Multiplicity = 1

                         Standard orientation:
 ---------------------------------------------------------------------
 Center     Atomic      Atomic             Coordinates (Angstroms)
 Number     Number       Type             X           Y           Z
 ---------------------------------------------------------------------
      1          8           0        2.454769   -1.224199    0.429396
      2          6           0        1.910377   -0.136938   -0.269206
      3          6           0        1.481146    1.177302    0.508924
      4          6           0        0.175682    1.203181   -0.358366
      5          6           0       -1.271962    1.189848    0.172451
      6          6           0       -1.858163   -0.173180   -0.334458
      7          8           0       -2.804052   -0.750009    0.551858
      8          6           0       -0.610973   -1.035340   -0.540572
      9          6           0        0.456739   -0.251883   -0.629049
     10          1           0        3.407071   -1.102009    0.489794
     11          1           0        2.529186    0.137685   -1.136987
     12          1           0        1.270922    0.927859    1.552046
     13          1           0        2.156419    2.035372    0.453750
     14          1           0        0.296148    1.859655   -1.226908
     15          1           0       -1.276979    1.162952    1.269256
     16          1           0       -1.874504    2.048128   -0.136937
     17          1           0       -2.421693   -0.034777   -1.266177
     18          1           0       -2.338181   -0.961656    1.369200
     19          1           0       -0.651204   -2.117482   -0.515422
 ---------------------------------------------------------------------

 SCF Done:  E(RB3LYP) =  -423.159965972     A.U. after    1 cycles

 The electronic state is 1-A.
 Alpha  occ. eigenvalues --  -19.14419 -19.12879 -10.24539 -10.22920 -10.18844
 Alpha  occ. eigenvalues --  -10.18700 -10.18054 -10.17993 -10.17226  -1.02833
 Alpha  occ. eigenvalues --   -1.01123  -0.86702  -0.76743  -0.71075  -0.64069
 Alpha  occ. eigenvalues --   -0.62534  -0.57946  -0.52547  -0.51770  -0.49311
 Alpha  occ. eigenvalues --   -0.47387  -0.44787  -0.42930  -0.40360  -0.37936
 Alpha  occ. eigenvalues --   -0.37399  -0.36345  -0.34491  -0.32906  -0.32419
 Alpha  occ. eigenvalues --   -0.30591  -0.26884  -0.26084  -0.23247
 Alpha virt. eigenvalues --    0.00900   0.07724   0.09393   0.10731   0.11200
 Alpha virt. eigenvalues --    0.13103   0.13405   0.14532   0.16178   0.17139
 Alpha virt. eigenvalues --    0.17913   0.18982   0.20724   0.22326   0.23255

 Mulliken charges:
               1
     1  O   -0.426326
     2  C    0.040927
     3  C   -0.290579
     4  C   -0.050553
     5  C   -0.274151
     6  C    0.130538
     7  O   -0.431663
     8  C   -0.303800
     9  C    0.290361
    10  H    0.286804
    11  H    0.080043
    12  H    0.111066
    13  H    0.094504
    14  H    0.077759
    15  H    0.093957
    16  H    0.099717
    17  H    0.093808
    18  H    0.272531
    19  H    0.105056
 Sum of Mulliken charges =   0.00000

 Dipole moment (field-independent basis, Debye):
    X=              2.6806    Y=              1.3113    Z=              0.1456  Tot=              2.9876
 Quadrupole moment (field-independent basis, Debye-Ang):
   XX=            -52.2740   YY=            -54.2620   ZZ=            -51.3114
   XY=             -0.2593   XZ=             -0.4846   YZ=             -1.1035

  Exact polarizability:  97.673   5.791  77.294   0.435  -1.167  61.862
 Approx polarizability: 136.032  14.645 117.132  -1.064  -4.436  97.273

                      1                      2                      3
                      A                      A                      A
 Frequencies --     83.9698               121.3628               219.2326
 Red. masses --      4.0650                 3.1973                 3.8446
 Frc consts  --      0.0169                 0.0277                 0.1089
 IR Inten    --      0.6212                 1.0995                 9.7833

                      4                      5                      6
                      A                      A                      A
 Frequencies --    246.1638               296.8691               345.4625
 Red. masses --      1.0699                 2.3299                 1.2943
 Frc consts  --      0.0382                 0.1210                 0.0910
 IR Inten    --    101.5382                 2.9423                45.5262

                      7                      8                      9
                      A                      A                      A
 Frequencies --    385.8877               405.9659               488.2522
 Red. masses --      3.2414                 3.0172                 4.4225
 Frc consts  --      0.2844                 0.2930                 0.6212
 IR Inten    --      9.6332                38.2405                 5.0266

                     10                     11                     12
                      A                      A                      A
 Frequencies --    527.0709               581.4945               649.2671
 Red. masses --      2.7580                 3.1209                 3.0427
 Frc consts  --      0.4514                 0.6218                 0.7557
 IR Inten    --      2.1636                 6.2170                 6.7504

                     13                     14                     15
                      A                      A                      A
 Frequencies --    664.5399               811.2625               833.4253
 Red. masses --      2.1283                 3.1910                 1.8806
 Frc consts  --      0.5538                 1.2374                 0.7696
 IR Inten    --      3.5322                 5.0979                 5.7764

                     16                     17                     18
                      A                      A                      A
 Frequencies --    860.5941               871.5963               919.4060
 Red. masses --      1.7251                 3.4844                 1.8266
 Frc consts  --      0.7528                 1.5596                 0.9097
 IR Inten    --      9.4760                 8.7693                 4.3886

                     19                     20                     21
                      A                      A                      A
 Frequencies --    950.5006               995.9236              1016.2051
 Red. masses --      2.7396                 3.2593                 2.0111
 Frc consts  --      1.4583                 1.9047                 1.2236
 IR Inten    --      9.0224                31.6298                13.3478

                     22                     23                     24
                      A                      A                      A
 Frequencies --   1045.4126              1070.6981              1093.2183
 Red. masses --      2.9360                 2.1509                 1.7737
 Frc consts  --      1.8905                 1.4528                 1.2489
 IR Inten    --     24.5560                12.1733                44.2724

                     25                     26                     27
                      A                      A                      A
 Frequencies --   1107.8261              1149.4706              1168.8315
 Red. masses --      2.0851                 1.7641                 2.0428
 Frc consts  --      1.5077                 1.3733                 1.6443
 IR Inten    --     51.7094                22.8143                41.3625

                     28                     29                     30
                      A                      A                      A
 Frequencies --   1201.4877              1217.1435              1222.6321
 Red. masses --      1.2263                 1.4347                 1.3044
 Frc consts  --      1.0430                 1.2522                 1.1488
 IR Inten    --     22.6074                47.6093                19.1552

                     31                     32                     33
                      A                      A                      A
 Frequencies --   1242.0862              1259.5834              1281.8712
 Red. masses --      1.4609                 1.4093                 1.2363
 Frc consts  --      1.3279                 1.3174                 1.1969
 IR Inten    --     10.9866                 0.6419                36.3331

                     34                     35                     36
                      A                      A                      A
 Frequencies --   1308.8823              1324.7104              1336.0865
 Red. masses --      1.4633                 1.4884                 1.5325
 Frc consts  --      1.4770                 1.5389                 1.6119
 IR Inten    --     12.6928                 4.8838                 5.1677

                     37                     38                     39
                      A                      A                      A
 Frequencies --   1427.5473              1436.7906              1471.8926
 Red. masses --      1.2257                 1.4489                 1.1198
 Frc consts  --      1.4717                 1.7622                 1.4293
 IR Inten    --    100.9397                 8.9916                 4.0797

                     40                     41                     42
                      A                      A                      A
 Frequencies --   1481.4583              1741.2189              2983.2782
 Red. masses --      1.0950                 8.7766                 1.0829
 Frc consts  --      1.4160                15.6777                 5.6784
 IR Inten    --      5.5551                 5.0041                51.8078

                     43                     44                     45
                      A                      A                      A
 Frequencies --   3023.2811              3034.3374              3042.1602
 Red. masses --      1.0834                 1.0655                 1.0832
 Frc consts  --      5.8344                 5.7802                 5.9063
 IR Inten    --     34.5895                25.8109                25.2684

                     46                     47                     48
                      A                      A                      A
 Frequencies --   3054.8934              3097.9774              3123.5804
 Red. masses --      1.0573                 1.1001                 1.1092
 Frc consts  --      5.8134                 6.2209                 6.3760
 IR Inten    --     47.5355                42.5738                33.5821

                     49                     50                     51
                      A                      A                      A
 Frequencies --   3210.0856              3787.5860              3825.4355
 Red. masses --      1.0954                 1.0657                 1.0663
 Frc consts  --      6.6505                 9.0080                 9.1933
 IR Inten    --      4.8443                 8.6790                27.5198

 - Thermochemistry -
 -------------------
 Temperature   298.150 Kelvin.  Pressure   1.00000 Atm.
 Atom     1 has atomic number  8 and mass  15.99491

 Molecular mass:   126.06808 amu.
 Principal axes and moments of inertia in atomic units:
                           1         2         3
     Eigenvalues --   547.296751558.562951860.18607
           X            0.99999   0.00395   0.00061
           Y           -0.00396   0.99998   0.00496
           Z           -0.00059  -0.00497   0.99999
 This molecule is an asymmetric top.
 Rotational symmetry number  1.
 Warning -- assumption of classical behavior for rotation
           may cause significant error
 Rotational temperatures (Kelvin)      0.15826     0.05557     0.04656
 Rotational constants (GHZ):           3.29756     1.15795     0.97019
 Zero-point vibrational energy     418967.6 (Joules/Mol)
                                  100.13566 (Kcal/Mol)
 Warning -- explicit consideration of  11 degrees of freedom as
           vibrations may cause significant error
 Vibrational temperatures:    120.81   174.61   315.43   354.17   427.13
          (Kelvin)            497.04   555.21   584.09   702.49   758.34
                              836.64   934.15   956.12  1167.22  1199.11
                             1238.20  1254.03  1322.82  1367.56  1432.91
                             1462.09  1504.11  1540.49  1572.90  1593.91
                             1653.83  1681.69  1728.67  1751.20  1759.09
                             1787.08  1812.26  1844.32  1883.19  1905.96
                             1922.33  2053.92  2067.22  2117.72  2131.49
                             2505.22  4292.27  4349.82  4365.73  4376.98
                             4395.30  4457.29  4494.13  4618.59  5449.48
                             5503.94

 Zero-point correction=                           0.159576 (Hartree/Particle)
 Thermal correction to Energy=                    0.167906
 Thermal correction to Enthalpy=                  0.168850
 Thermal correction to Gibbs Free Energy=         0.126672
 Sum of electronic and zero-point Energies=           -423.000390
 Sum of electronic and thermal Energies=              -422.992060
 Sum of electronic and thermal Enthalpies=            -422.991116
 Sum of electronic and thermal Free Energies=         -423.033294

                     E (Thermal)             CV                S
                      KCal/Mol        Cal/Mol-Kelvin    Cal/Mol-Kelvin
 Total                  105.362             32.549             88.771
 Electronic               0.000              0.000              0.000
 Translational            0.889              2.981             40.409
 Rotational               0.889              2.981             28.852
 Vibrational            103.585             26.587             19.510
 Vibration     1          0.601              1.960              3.796
 Vibration     2          0.609              1.931              3.079
 Vibration     3          0.647              1.812              1.965
 Vibration     4          0.661              1.769              1.758
 Vibration     5          0.691              1.680              1.434
 Vibration     6          0.724              1.585              1.187
 Vibration     7          0.755              1.500              1.016
 Vibration     8          0.771              1.457              0.941
 Vibration     9          0.844              1.276              0.688
 Vibration    10          0.882              1.190              0.594
 Vibration    11          0.938              1.071              0.483

 Normal termination of Gaussian 09 at Tue Jan 28 05:07:54 2020.
