 Gaussian 09, Revision D.01,
 Gaussian 09:  ES64L-G09RevD.01 24-Apr-2013

 -----------------------------
 # b3lyp 6-31G(2df,p) opt Freq
 -----------------------------

 -----
 titel
 -----
 Symbolic Z-matrix:
 Charge =  0 Multiplicity = 1

 SCF Done:  E(RB3LYP) =  -423.117667059     A.U. after   13 cycles
 Optimization completed.
    -- Stationary point found.
 Normal termination of Gaussian 09 at Tue Jan 28 10:18:33 2020.

 ----------------------------------------------------------------------
 #N Geom=AllCheck Guess=TCheck SCRF=Check GenChk RB3LYP/6-31G(2df,p) Fr
 eq
 ----------------------------------------------------------------------

 Structure from the checkpoint file:  "/scratch/puck/g09_06622483-bfef-4f0a-94a9-5ed793529488/Gau-1054.chk"
 -----
 titel
 -----
 Charge =  0 Multiplicity = 1

                         Standard orientation:
 ---------------------------------------------------------------------
 Center     Atomic      Atomic             Coordinates (Angstroms)
 Number     Number       Type             X           Y           Z
 ---------------------------------------------------------------------
      1          6           0        1.737894    1.843699   -0.046580
      2          6           0        1.002339    0.544407   -0.005645
      3          6           0        0.410670   -0.304488    1.125596
      4          6           0        1.166589   -1.548291    0.663961
      5          6           0        1.180877   -0.857632   -0.722198
      6          8           0       -0.218755   -0.859062   -1.122896
      7          6           0       -0.427797    0.123813   -0.098713
      8          6           0       -1.743034    0.825764   -0.070439
      9          8           0       -2.807675   -0.041670    0.289623
     10          1           0        1.786269    2.247821   -1.063938
     11          1           0        1.241602    2.588149    0.585156
     12          1           0        2.764779    1.734966    0.320979
     13          1           0        0.155249    0.007433    2.130854
     14          1           0        2.166489   -1.598440    1.103452
     15          1           0        0.675238   -2.525074    0.712952
     16          1           0        1.862404   -1.130023   -1.526041
     17          1           0       -1.718381    1.622647    0.680286
     18          1           0       -1.926616    1.294396   -1.049903
     19          1           0       -2.760817   -0.799651   -0.303502
 ---------------------------------------------------------------------

 SCF Done:  E(RB3LYP) =  -423.117667059     A.U. after    1 cycles

 The electronic state is 1-A.
 Alpha  occ. eigenvalues --  -19.13594 -19.13183 -10.24252 -10.23627 -10.23188
 Alpha  occ. eigenvalues --  -10.20101 -10.19223 -10.19126 -10.18720  -1.06143
 Alpha  occ. eigenvalues --   -1.01244  -0.85952  -0.75202  -0.73122  -0.67486
 Alpha  occ. eigenvalues --   -0.63203  -0.55776  -0.52730  -0.50378  -0.48317
 Alpha  occ. eigenvalues --   -0.47144  -0.44547  -0.42725  -0.42512  -0.40724
 Alpha  occ. eigenvalues --   -0.39566  -0.39041  -0.36004  -0.34277  -0.32793
 Alpha  occ. eigenvalues --   -0.28260  -0.27365  -0.25203  -0.23119
 Alpha virt. eigenvalues --    0.06835   0.09046   0.09919   0.11456   0.12360
 Alpha virt. eigenvalues --    0.13627   0.14188   0.14448   0.15651   0.16201
 Alpha virt. eigenvalues --    0.16925   0.17748   0.19278   0.20558   0.21517

 Mulliken charges:
               1
     1  C   -0.532185
     2  C    0.212354
     3  C   -0.197518
     4  C   -0.237486
     5  C    0.023508
     6  O   -0.343893
     7  C    0.412205
     8  C   -0.193796
     9  O   -0.412107
    10  H    0.128921
    11  H    0.127806
    12  H    0.125565
    13  H    0.092833
    14  H    0.102509
    15  H    0.100086
    16  H    0.085658
    17  H    0.113000
    18  H    0.098629
    19  H    0.293909
 Sum of Mulliken charges =   0.00000

 Dipole moment (field-independent basis, Debye):
    X=              2.1187    Y=              0.7450    Z=              0.0671  Tot=              2.2469
 Quadrupole moment (field-independent basis, Debye-Ang):
   XX=            -55.4038   YY=            -50.7556   ZZ=            -53.8842
   XY=              0.2905   XZ=              1.6922   YZ=              0.1046

  Exact polarizability:  80.466  -0.814  77.760  -0.307  -1.009  67.499
 Approx polarizability: 112.278   0.646 108.640  -0.651   1.077 107.274

                      1                      2                      3
                      A                      A                      A
 Frequencies --     64.6633               114.1922               197.5195
 Red. masses --      3.5864                 3.7123                 1.1596
 Frc consts  --      0.0088                 0.0285                 0.0267
 IR Inten    --      3.8011                 0.4102                 0.1271

                      4                      5                      6
                      A                      A                      A
 Frequencies --    206.1900               248.5362               286.0228
 Red. masses --      2.1276                 2.4548                 1.8325
 Frc consts  --      0.0533                 0.0893                 0.0883
 IR Inten    --      0.2736                 7.5377                20.9194

                      7                      8                      9
                      A                      A                      A
 Frequencies --    352.9914               397.9866               481.2571
 Red. masses --      1.4670                 2.5661                 3.0791
 Frc consts  --      0.1077                 0.2395                 0.4202
 IR Inten    --     62.7049                41.5701                 2.0290

                     10                     11                     12
                      A                      A                      A
 Frequencies --    571.6584               599.7036               700.5999
 Red. masses --      3.6471                 3.4789                 4.1095
 Frc consts  --      0.7022                 0.7372                 1.1884
 IR Inten    --      2.4045                 6.3746                 2.8055

                     13                     14                     15
                      A                      A                      A
 Frequencies --    753.7765               807.1149               829.9601
 Red. masses --      3.6672                 4.7089                 2.6366
 Frc consts  --      1.2276                 1.8073                 1.0701
 IR Inten    --      3.7914                22.4279                 9.3023

                     16                     17                     18
                      A                      A                      A
 Frequencies --    892.6295               910.1457               929.7609
 Red. masses --      1.9651                 1.4703                 2.9754
 Frc consts  --      0.9225                 0.7176                 1.5155
 IR Inten    --      0.3990                 3.9032                52.8401

                     19                     20                     21
                      A                      A                      A
 Frequencies --    943.9731               968.2430               999.9238
 Red. masses --      1.8766                 2.0572                 2.6137
 Frc consts  --      0.9852                 1.1363                 1.5397
 IR Inten    --      1.9587                22.1049                 2.7870

                     22                     23                     24
                      A                      A                      A
 Frequencies --   1047.1781              1063.5556              1094.4058
 Red. masses --      3.3944                 2.1043                 2.2478
 Frc consts  --      2.1930                 1.4024                 1.5862
 IR Inten    --     91.4480                30.5672                 7.5245

                     25                     26                     27
                      A                      A                      A
 Frequencies --   1102.8516              1127.7363              1151.8277
 Red. masses --      1.4659                 1.8924                 1.6580
 Frc consts  --      1.0505                 1.4180                 1.2961
 IR Inten    --     11.7512                 2.7577                 3.5629

                     28                     29                     30
                      A                      A                      A
 Frequencies --   1165.3395              1223.8195              1231.8231
 Red. masses --      1.7926                 1.7242                 1.2738
 Frc consts  --      1.4343                 1.5215                 1.1388
 IR Inten    --      2.5485                 4.3351                12.5527

                     31                     32                     33
                      A                      A                      A
 Frequencies --   1269.0230              1289.3523              1326.2875
 Red. masses --      1.6518                 2.1249                 2.4225
 Frc consts  --      1.5673                 2.0813                 2.5107
 IR Inten    --      4.9963                12.1631                 3.6330

                     34                     35                     36
                      A                      A                      A
 Frequencies --   1375.1963              1412.9114              1419.6586
 Red. masses --      1.2404                 1.2233                 1.4117
 Frc consts  --      1.3821                 1.4388                 1.6763
 IR Inten    --      3.9274                 1.1092                57.5631

                     37                     38                     39
                      A                      A                      A
 Frequencies --   1481.4558              1486.6806              1490.2658
 Red. masses --      1.1584                 1.2023                 1.1006
 Frc consts  --      1.4979                 1.5657                 1.4401
 IR Inten    --      7.9543                 1.5386                 1.3371

                     40                     41                     42
                      A                      A                      A
 Frequencies --   1492.6589              1507.8421              2985.1964
 Red. masses --      1.2124                 2.1602                 1.0694
 Frc consts  --      1.5915                 2.8938                 5.6146
 IR Inten    --      4.6911                 4.1466                52.4626

                     43                     44                     45
                      A                      A                      A
 Frequencies --   3023.2226              3047.8600              3076.0035
 Red. masses --      1.0351                 1.0568                 1.0925
 Frc consts  --      5.5741                 5.7840                 6.0905
 IR Inten    --     40.1101                46.0660                17.8218

                     46                     47                     48
                      A                      A                      A
 Frequencies --   3083.6614              3094.1433              3108.4622
 Red. masses --      1.1011                 1.1002                 1.1079
 Frc consts  --      6.1690                 6.2061                 6.3073
 IR Inten    --     20.2802                18.2586                23.9734

                     49                     50                     51
                      A                      A                      A
 Frequencies --   3139.0716              3195.5208              3808.2189
 Red. masses --      1.0926                 1.0930                 1.0661
 Frc consts  --      6.3435                 6.5759                 9.1099
 IR Inten    --     39.3086                10.0703                25.9699

 - Thermochemistry -
 -------------------
 Temperature   298.150 Kelvin.  Pressure   1.00000 Atm.
 Atom     1 has atomic number  6 and mass  12.00000

 Molecular mass:   126.06808 amu.
 Principal axes and moments of inertia in atomic units:
                           1         2         3
     Eigenvalues --   691.508401230.832361491.71172
           X            0.99990   0.01213   0.00781
           Y           -0.01191   0.99952  -0.02845
           Z           -0.00815   0.02835   0.99956
 This molecule is an asymmetric top.
 Rotational symmetry number  1.
 Warning -- assumption of classical behavior for rotation
           may cause significant error
 Rotational temperatures (Kelvin)      0.12525     0.07037     0.05806
 Rotational constants (GHZ):           2.60986     1.46628     1.20985
 Zero-point vibrational energy     416169.3 (Joules/Mol)
                                   99.46686 (Kcal/Mol)
 Warning -- explicit consideration of  11 degrees of freedom as
           vibrations may cause significant error
 Vibrational temperatures:     93.04   164.30   284.19   296.66   357.59
          (Kelvin)            411.52   507.88   572.61   692.42   822.49
                              862.84  1008.01  1084.51  1161.26  1194.13
                             1284.29  1309.50  1337.72  1358.17  1393.08
                             1438.67  1506.65  1530.22  1574.60  1586.76
                             1622.56  1657.22  1676.66  1760.80  1772.32
                             1825.84  1855.09  1908.23  1978.60  2032.86
                             2042.57  2131.48  2139.00  2144.16  2147.60
                             2169.45  4295.03  4349.74  4385.19  4425.68
                             4436.70  4451.78  4472.38  4516.42  4597.64
                             5479.17

 Zero-point correction=                           0.158511 (Hartree/Particle)
 Thermal correction to Energy=                    0.167057
 Thermal correction to Enthalpy=                  0.168001
 Thermal correction to Gibbs Free Energy=         0.125164
 Sum of electronic and zero-point Energies=           -422.959157
 Sum of electronic and thermal Energies=              -422.950610
 Sum of electronic and thermal Enthalpies=            -422.949666
 Sum of electronic and thermal Free Energies=         -422.992503

                     E (Thermal)             CV                S
                      KCal/Mol        Cal/Mol-Kelvin    Cal/Mol-Kelvin
 Total                  104.830             32.418             90.157
 Electronic               0.000              0.000              0.000
 Translational            0.889              2.981             40.409
 Rotational               0.889              2.981             28.631
 Vibrational            103.052             26.456             21.118
 Vibration     1          0.597              1.971              4.310
 Vibration     2          0.607              1.938              3.196
 Vibration     3          0.637              1.843              2.156
 Vibration     4          0.641              1.831              2.077
 Vibration     5          0.662              1.765              1.741
 Vibration     6          0.684              1.700              1.497
 Vibration     7          0.729              1.569              1.153
 Vibration     8          0.764              1.474              0.970
 Vibration     9          0.838              1.292              0.707
 Vibration    10          0.928              1.093              0.501
 Vibration    11          0.958              1.032              0.450

 Normal termination of Gaussian 09 at Tue Jan 28 12:17:31 2020.
