 Gaussian 09, Revision D.01,
 Gaussian 09:  ES64L-G09RevD.01 24-Apr-2013

 -----------------------------
 # b3lyp 6-31G(2df,p) opt Freq
 -----------------------------

 -----
 titel
 -----
 Symbolic Z-matrix:
 Charge =  0 Multiplicity = 1

 SCF Done:  E(RB3LYP) =  -423.102766145     A.U. after   14 cycles
 Optimization completed.
    -- Stationary point found.
 Normal termination of Gaussian 09 at Tue Jan 28 12:42:15 2020.

 ----------------------------------------------------------------------
 #N Geom=AllCheck Guess=TCheck SCRF=Check GenChk RB3LYP/6-31G(2df,p) Fr
 eq
 ----------------------------------------------------------------------

 Structure from the checkpoint file:  "/scratch/puck/g09_b9cf0d7b-eec0-4bf0-b916-b68494b7ebc8/Gau-3360.chk"
 -----
 titel
 -----
 Charge =  0 Multiplicity = 1

                         Standard orientation:
 ---------------------------------------------------------------------
 Center     Atomic      Atomic             Coordinates (Angstroms)
 Number     Number       Type             X           Y           Z
 ---------------------------------------------------------------------
      1          6           0        2.924007    0.829875   -0.078757
      2          6           0        1.595838    0.152999   -0.035088
      3          8           0        1.346736   -0.955910   -0.916767
      4          6           0        1.119701   -1.123623    0.493304
      5          6           0       -0.260185   -0.501428    0.872587
      6          6           0       -0.943466    0.125931   -0.323197
      7          6           0       -2.319847    0.709286   -0.093452
      8          8           0       -3.349563   -0.255240   -0.245187
      9          6           0        0.222910    0.831159    0.315934
     10          1           0        3.725617    0.091095   -0.158950
     11          1           0        2.988159    1.503599   -0.940975
     12          1           0        3.082932    1.426552    0.825534
     13          1           0        1.629390   -1.942970    0.987118
     14          1           0       -0.758757   -0.680982    1.817121
     15          1           0       -0.801901   -0.335853   -1.293371
     16          1           0       -2.365159    1.192731    0.897010
     17          1           0       -2.528026    1.482724   -0.840478
     18          1           0       -3.127133   -1.002064    0.320563
     19          1           0        0.143748    1.809171    0.774071
 ---------------------------------------------------------------------

 SCF Done:  E(RB3LYP) =  -423.102766145     A.U. after    1 cycles

 The electronic state is 1-A.
 Alpha  occ. eigenvalues --  -19.15095 -19.13060 -10.24559 -10.23808 -10.22817
 Alpha  occ. eigenvalues --  -10.19863 -10.19653 -10.19361 -10.19035  -1.07772
 Alpha  occ. eigenvalues --   -1.01240  -0.87375  -0.75263  -0.71533  -0.65218
 Alpha  occ. eigenvalues --   -0.62373  -0.56219  -0.54466  -0.52148  -0.49207
 Alpha  occ. eigenvalues --   -0.47354  -0.44966  -0.43432  -0.42293  -0.40791
 Alpha  occ. eigenvalues --   -0.39512  -0.37841  -0.34407  -0.33837  -0.32950
 Alpha  occ. eigenvalues --   -0.29882  -0.26595  -0.26313  -0.23113
 Alpha virt. eigenvalues --    0.06037   0.07962   0.09880   0.10686   0.11638
 Alpha virt. eigenvalues --    0.12952   0.13864   0.14388   0.15713   0.16119
 Alpha virt. eigenvalues --    0.17044   0.17988   0.19341   0.21007   0.22254

 Mulliken charges:
               1
     1  C   -0.503555
     2  C    0.409712
     3  O   -0.281647
     4  C   -0.069320
     5  C   -0.111374
     6  C   -0.048800
     7  C   -0.092743
     8  O   -0.418225
     9  C   -0.163482
    10  H    0.136090
    11  H    0.133587
    12  H    0.127229
    13  H    0.105784
    14  H    0.090418
    15  H    0.119517
    16  H    0.079454
    17  H    0.114819
    18  H    0.281713
    19  H    0.090825
 Sum of Mulliken charges =   0.00000

 Dipole moment (field-independent basis, Debye):
    X=              1.6194    Y=              0.6283    Z=              2.3922  Tot=              2.9564
 Quadrupole moment (field-independent basis, Debye-Ang):
   XX=            -58.1280   YY=            -50.3436   ZZ=            -53.4367
   XY=              2.0954   XZ=             -1.1372   YZ=             -3.1995

  Exact polarizability:  90.541   1.151  72.581  -0.477  -3.458  62.996
 Approx polarizability: 111.501   3.521 114.609  -0.911  -4.465 103.767

                      1                      2                      3
                      A                      A                      A
 Frequencies --     92.4052               133.2754               195.1322
 Red. masses --      3.6682                 4.2323                 1.0685
 Frc consts  --      0.0185                 0.0443                 0.0240
 IR Inten    --      1.1585                 1.2049                 0.2976

                      4                      5                      6
                      A                      A                      A
 Frequencies --    208.9734               238.1764               292.1281
 Red. masses --      2.5175                 2.0945                 2.9219
 Frc consts  --      0.0648                 0.0700                 0.1469
 IR Inten    --      1.8252                 9.3808                 3.1125

                      7                      8                      9
                      A                      A                      A
 Frequencies --    336.2059               379.6795               452.9387
 Red. masses --      1.3243                 3.6121                 2.8998
 Frc consts  --      0.0882                 0.3068                 0.3505
 IR Inten    --     97.6767                 6.1164                 9.9200

                     10                     11                     12
                      A                      A                      A
 Frequencies --    496.7316               573.6882               651.3353
 Red. masses --      3.8424                 4.5338                 4.2422
 Frc consts  --      0.5586                 0.8791                 1.0603
 IR Inten    --     11.6372                 6.9864                 1.4522

                     13                     14                     15
                      A                      A                      A
 Frequencies --    749.0202               794.3489               802.7455
 Red. masses --      5.5986                 2.5040                 1.3681
 Frc consts  --      1.8506                 0.9309                 0.5194
 IR Inten    --      0.2383                 7.0634                 4.5674

                     16                     17                     18
                      A                      A                      A
 Frequencies --    842.0320               872.8197               914.8536
 Red. masses --      2.8007                 1.9905                 2.9684
 Frc consts  --      1.1700                 0.8934                 1.4638
 IR Inten    --      6.4071                27.3145                 1.0007

                     19                     20                     21
                      A                      A                      A
 Frequencies --    929.8888               979.5333               999.0155
 Red. masses --      2.2795                 1.9510                 1.7942
 Frc consts  --      1.1613                 1.1029                 1.0550
 IR Inten    --      9.4020                 9.5180                 4.0096

                     22                     23                     24
                      A                      A                      A
 Frequencies --   1010.3353              1058.3901              1065.0274
 Red. masses --      1.5400                 3.0575                 2.3921
 Frc consts  --      0.9262                 2.0180                 1.5986
 IR Inten    --      1.4006                72.8590                16.3261

                     25                     26                     27
                      A                      A                      A
 Frequencies --   1086.6634              1118.9670              1121.2009
 Red. masses --      1.6433                 1.9166                 1.3688
 Frc consts  --      1.1433                 1.4139                 1.0138
 IR Inten    --     31.3765                13.3302                 8.9980

                     28                     29                     30
                      A                      A                      A
 Frequencies --   1157.9792              1183.3151              1210.8547
 Red. masses --      1.7931                 1.6499                 1.3727
 Frc consts  --      1.4166                 1.3611                 1.1858
 IR Inten    --     26.8255                 1.8589                 6.7090

                     31                     32                     33
                      A                      A                      A
 Frequencies --   1240.3923              1249.5525              1271.4681
 Red. masses --      1.5663                 1.5424                 1.7804
 Frc consts  --      1.4198                 1.4190                 1.6959
 IR Inten    --      7.8327                 1.9814                27.5787

                     34                     35                     36
                      A                      A                      A
 Frequencies --   1354.2534              1396.6319              1408.9328
 Red. masses --      1.5780                 1.4345                 1.3288
 Frc consts  --      1.7052                 1.6486                 1.5541
 IR Inten    --      2.8041                 9.1321                 4.0196

                     37                     38                     39
                      A                      A                      A
 Frequencies --   1429.4901              1470.4569              1485.5082
 Red. masses --      1.4586                 1.4956                 1.1701
 Frc consts  --      1.7562                 1.9053                 1.5214
 IR Inten    --     76.3771                 7.0287                 9.1062

                     40                     41                     42
                      A                      A                      A
 Frequencies --   1501.1346              1508.7182              2961.4004
 Red. masses --      1.8188                 1.0942                 1.0717
 Frc consts  --      2.4148                 1.4674                 5.5374
 IR Inten    --      4.6741                 1.1773                58.1813

                     43                     44                     45
                      A                      A                      A
 Frequencies --   3032.6594              3068.4263              3094.5033
 Red. masses --      1.0364                 1.0902                 1.0997
 Frc consts  --      5.6157                 6.0475                 6.2045
 IR Inten    --     22.9677                30.9482                15.3757

                     46                     47                     48
                      A                      A                      A
 Frequencies --   3122.5481              3179.2082              3183.9523
 Red. masses --      1.1009                 1.0914                 1.0877
 Frc consts  --      6.3244                 6.4992                 6.4965
 IR Inten    --     12.0655                11.6482                 6.7761

                     49                     50                     51
                      A                      A                      A
 Frequencies --   3187.0708              3195.3909              3810.7481
 Red. masses --      1.0906                 1.0969                 1.0659
 Frc consts  --      6.5270                 6.5988                 9.1198
 IR Inten    --     18.4841                 8.7049                11.0150

 - Thermochemistry -
 -------------------
 Temperature   298.150 Kelvin.  Pressure   1.00000 Atm.
 Atom     1 has atomic number  6 and mass  12.00000

 Molecular mass:   126.06808 amu.
 Principal axes and moments of inertia in atomic units:
                           1         2         3
     Eigenvalues --   401.151261894.616512018.80244
           X            0.99996   0.00877  -0.00144
           Y           -0.00884   0.99832  -0.05722
           Z            0.00094   0.05723   0.99836
 This molecule is an asymmetric top.
 Rotational symmetry number  1.
 Rotational temperatures (Kelvin)      0.21591     0.04572     0.04290
 Rotational constants (GHZ):           4.49890     0.95256     0.89397
 Zero-point vibrational energy     413310.4 (Joules/Mol)
                                   98.78356 (Kcal/Mol)
 Warning -- explicit consideration of  11 degrees of freedom as
           vibrations may cause significant error
 Vibrational temperatures:    132.95   191.75   280.75   300.67   342.68
          (Kelvin)            420.31   483.72   546.27   651.68   714.69
                              825.41   937.13  1077.67  1142.89  1154.97
                             1211.49  1255.79  1316.27  1337.90  1409.33
                             1437.36  1453.65  1522.79  1532.33  1563.46
                             1609.94  1613.16  1666.07  1702.52  1742.15
                             1784.65  1797.83  1829.36  1948.47  2009.44
                             2027.14  2056.71  2115.66  2137.31  2159.80
                             2170.71  4260.79  4363.32  4414.78  4452.29
                             4492.64  4574.17  4580.99  4585.48  4597.45
                             5482.81

 Zero-point correction=                           0.157422 (Hartree/Particle)
 Thermal correction to Energy=                    0.166094
 Thermal correction to Enthalpy=                  0.167038
 Thermal correction to Gibbs Free Energy=         0.124249
 Sum of electronic and zero-point Energies=           -422.945345
 Sum of electronic and thermal Energies=              -422.936672
 Sum of electronic and thermal Enthalpies=            -422.935728
 Sum of electronic and thermal Free Energies=         -422.978517

                     E (Thermal)             CV                S
                      KCal/Mol        Cal/Mol-Kelvin    Cal/Mol-Kelvin
 Total                  104.226             33.325             90.057
 Electronic               0.000              0.000              0.000
 Translational            0.889              2.981             40.409
 Rotational               0.889              2.981             28.819
 Vibrational            102.448             27.364             20.829
 Vibration     1          0.602              1.955              3.608
 Vibration     2          0.613              1.920              2.898
 Vibration     3          0.636              1.847              2.179
 Vibration     4          0.642              1.827              2.053
 Vibration     5          0.656              1.782              1.816
 Vibration     6          0.688              1.688              1.462
 Vibration     7          0.717              1.603              1.230
 Vibration     8          0.750              1.513              1.040
 Vibration     9          0.811              1.354              0.787
 Vibration    10          0.852              1.257              0.666
 Vibration    11          0.930              1.088              0.497

 Normal termination of Gaussian 09 at Tue Jan 28 13:26:24 2020.
