 Gaussian 09, Revision D.01,
 Gaussian 09:  ES64L-G09RevD.01 24-Apr-2013

 -----------------------------
 # b3lyp 6-31G(2df,p) opt Freq
 -----------------------------

 -----
 titel
 -----
 Symbolic Z-matrix:
 Charge =  0 Multiplicity = 1

 SCF Done:  E(RB3LYP) =  -423.174369849     A.U. after   14 cycles
 Optimization completed.
    -- Stationary point found.
 Normal termination of Gaussian 09 at Tue Jan 28 09:12:37 2020.

 ----------------------------------------------------------------------
 #N Geom=AllCheck Guess=TCheck SCRF=Check GenChk RB3LYP/6-31G(2df,p) Fr
 eq
 ----------------------------------------------------------------------

 Structure from the checkpoint file:  "/scratch/puck/g09_4dad5e34-1035-4431-b4b3-6c8926a4a37c/Gau-20323.chk"
 -----
 titel
 -----
 Charge =  0 Multiplicity = 1

                         Standard orientation:
 ---------------------------------------------------------------------
 Center     Atomic      Atomic             Coordinates (Angstroms)
 Number     Number       Type             X           Y           Z
 ---------------------------------------------------------------------
      1          6           0       -2.119046   -1.454347   -0.220799
      2          6           0       -1.325709   -0.628603    0.803343
      3          6           0       -0.071482   -0.049172    0.206678
      4          6           0       -0.056959    1.281722   -0.545104
      5          8           0       -1.233974    2.009348   -0.357942
      6          6           0        0.873807    1.135769    0.609142
      7          6           0        2.114137    0.356711    0.153997
      8          6           0        1.157445   -0.820752   -0.173698
      9          8           0        1.346991   -1.978395   -0.427687
     10          1           0       -2.451425   -0.826105   -1.053047
     11          1           0       -1.502742   -2.261771   -0.625480
     12          1           0       -3.005319   -1.898010    0.242929
     13          1           0       -1.944284    0.185487    1.190817
     14          1           0       -1.052087   -1.263366    1.654724
     15          1           0        0.345489    1.331287   -1.559691
     16          1           0       -1.007493    2.945296   -0.353576
     17          1           0        0.792020    1.751508    1.495500
     18          1           0        2.693788    0.782247   -0.671808
     19          1           0        2.794756    0.077830    0.963311
 ---------------------------------------------------------------------

 SCF Done:  E(RB3LYP) =  -423.174369849     A.U. after    1 cycles

 The electronic state is 1-A.
 Alpha  occ. eigenvalues --  -19.16030 -19.12870 -10.26599 -10.25558 -10.20943
 Alpha  occ. eigenvalues --  -10.20487 -10.19736 -10.18460 -10.16746  -1.04782
 Alpha  occ. eigenvalues --   -1.03787  -0.90137  -0.76811  -0.71672  -0.64956
 Alpha  occ. eigenvalues --   -0.61184  -0.59910  -0.53188  -0.50333  -0.48325
 Alpha  occ. eigenvalues --   -0.45884  -0.44082  -0.43893  -0.40926  -0.40046
 Alpha  occ. eigenvalues --   -0.38786  -0.38061  -0.35978  -0.35163  -0.34145
 Alpha  occ. eigenvalues --   -0.32321  -0.28195  -0.26316  -0.23876
 Alpha virt. eigenvalues --   -0.01046   0.06752   0.08920   0.11031   0.11476
 Alpha virt. eigenvalues --    0.13202   0.14318   0.14928   0.16349   0.17395
 Alpha virt. eigenvalues --    0.18315   0.18669   0.19010   0.20818   0.22208

 Mulliken charges:
               1
     1  C   -0.384727
     2  C   -0.297286
     3  C    0.223453
     4  C    0.057919
     5  O   -0.427854
     6  C   -0.190001
     7  C   -0.367073
     8  C    0.359479
     9  O   -0.318851
    10  H    0.123752
    11  H    0.141889
    12  H    0.109116
    13  H    0.117916
    14  H    0.103916
    15  H    0.093510
    16  H    0.294318
    17  H    0.107116
    18  H    0.117842
    19  H    0.135565
 Sum of Mulliken charges =   0.00000

 Dipole moment (field-independent basis, Debye):
    X=              0.1776    Y=              3.6467    Z=              0.7910  Tot=              3.7357
 Quadrupole moment (field-independent basis, Debye-Ang):
   XX=            -54.7588   YY=            -52.7714   ZZ=            -51.8151
   XY=              4.6530   XZ=              0.4659   YZ=             -2.0913

  Exact polarizability:  84.117   1.421  84.045  -0.065   0.971  62.433
 Approx polarizability: 113.233  -2.831 130.700  -0.167   4.643  96.624

                      1                      2                      3
                      A                      A                      A
 Frequencies --     62.8602               101.1963               171.8789
 Red. masses --      2.6128                 5.1569                 3.0145
 Frc consts  --      0.0061                 0.0311                 0.0525
 IR Inten    --      1.5581                 3.4192                 5.3192

                      4                      5                      6
                      A                      A                      A
 Frequencies --    196.2867               240.2680               275.6170
 Red. masses --      1.3836                 1.2911                 2.3391
 Frc consts  --      0.0314                 0.0439                 0.1047
 IR Inten    --      1.6609                90.4645                 2.6300

                      7                      8                      9
                      A                      A                      A
 Frequencies --    279.2114               299.3151               364.3261
 Red. masses --      1.6421                 3.5161                 3.8510
 Frc consts  --      0.0754                 0.1856                 0.3012
 IR Inten    --      2.7089                 9.4035                 1.3627

                     10                     11                     12
                      A                      A                      A
 Frequencies --    489.7852               532.0832               567.0634
 Red. masses --      3.7994                 3.4365                 3.0188
 Frc consts  --      0.5370                 0.5732                 0.5719
 IR Inten    --      2.5455                 9.2730                 8.4329

                     13                     14                     15
                      A                      A                      A
 Frequencies --    655.9825               699.2036               770.5832
 Red. masses --      3.6311                 2.9851                 1.4283
 Frc consts  --      0.9206                 0.8598                 0.4997
 IR Inten    --     15.7447                 0.9556                17.3628

                     16                     17                     18
                      A                      A                      A
 Frequencies --    812.2959               849.2963               933.9318
 Red. masses --      5.0191                 2.0257                 2.1506
 Frc consts  --      1.9512                 0.8609                 1.1052
 IR Inten    --      4.1330                 9.3037                17.2204

                     19                     20                     21
                      A                      A                      A
 Frequencies --    946.8334               979.4319               996.6859
 Red. masses --      1.4147                 2.1124                 2.0304
 Frc consts  --      0.7472                 1.1939                 1.1884
 IR Inten    --      7.6498                 4.7010                18.4411

                     22                     23                     24
                      A                      A                      A
 Frequencies --   1014.8753              1061.2138              1089.5566
 Red. masses --      2.4578                 2.2110                 1.4843
 Frc consts  --      1.4915                 1.4670                 1.0382
 IR Inten    --     16.0406                10.4987                15.6273

                     25                     26                     27
                      A                      A                      A
 Frequencies --   1103.4707              1137.0908              1170.1050
 Red. masses --      1.7340                 1.9895                 1.9747
 Frc consts  --      1.2440                 1.5156                 1.5930
 IR Inten    --      2.9089                13.7818                25.4664

                     28                     29                     30
                      A                      A                      A
 Frequencies --   1207.2882              1216.9547              1267.1215
 Red. masses --      1.7646                 1.8047                 1.6181
 Frc consts  --      1.5154                 1.5747                 1.5308
 IR Inten    --     26.2372                 4.3311                 1.1096

                     31                     32                     33
                      A                      A                      A
 Frequencies --   1283.5485              1317.8779              1344.4510
 Red. masses --      1.4114                 1.3137                 1.5276
 Frc consts  --      1.3700                 1.3443                 1.6269
 IR Inten    --     47.3111                19.7009                14.9931

                     34                     35                     36
                      A                      A                      A
 Frequencies --   1376.6662              1408.4713              1434.7625
 Red. masses --      2.1519                 1.2312                 2.0224
 Frc consts  --      2.4029                 1.4391                 2.4529
 IR Inten    --     21.8514                 3.8493                11.9283

                     37                     38                     39
                      A                      A                      A
 Frequencies --   1460.3255              1482.0891              1497.9326
 Red. masses --      1.1630                 1.0783                 1.0402
 Frc consts  --      1.4613                 1.3955                 1.3752
 IR Inten    --      3.4026                 3.3099                 5.9854

                     40                     41                     42
                      A                      A                      A
 Frequencies --   1510.4136              1867.5545              3035.4043
 Red. masses --      1.0651                12.6055                 1.0649
 Frc consts  --      1.4316                25.9033                 5.7809
 IR Inten    --      2.2836               303.0767                22.7727

                     43                     44                     45
                      A                      A                      A
 Frequencies --   3040.7735              3048.9512              3064.7074
 Red. masses --      1.0356                 1.0602                 1.0877
 Frc consts  --      5.6416                 5.8066                 6.0192
 IR Inten    --     28.3928                23.5772                33.9761

                     46                     47                     48
                      A                      A                      A
 Frequencies --   3090.6119              3108.1764              3109.5289
 Red. masses --      1.0960                 1.1039                 1.1020
 Frc consts  --      6.1679                 6.2836                 6.2781
 IR Inten    --      3.7070                 6.9489                36.3684

                     49                     50                     51
                      A                      A                      A
 Frequencies --   3125.1159              3204.5684              3808.8568
 Red. masses --      1.1021                 1.0932                 1.0663
 Frc consts  --      6.3414                 6.6143                 9.1144
 IR Inten    --     19.9485                 5.0611                33.5826

 - Thermochemistry -
 -------------------
 Temperature   298.150 Kelvin.  Pressure   1.00000 Atm.
 Atom     1 has atomic number  6 and mass  12.00000

 Molecular mass:   126.06808 amu.
 Principal axes and moments of inertia in atomic units:
                           1         2         3
     Eigenvalues --   911.428561027.265641692.68526
           X            0.89042   0.45513   0.00239
           Y           -0.45512   0.89042  -0.00491
           Z           -0.00436   0.00328   0.99999
 This molecule is an asymmetric top.
 Rotational symmetry number  1.
 Warning -- assumption of classical behavior for rotation
           may cause significant error
 Rotational temperatures (Kelvin)      0.09503     0.08431     0.05117
 Rotational constants (GHZ):           1.98012     1.75684     1.06620
 Zero-point vibrational energy     413385.1 (Joules/Mol)
                                   98.80142 (Kcal/Mol)
 Warning -- explicit consideration of  12 degrees of freedom as
           vibrations may cause significant error
 Vibrational temperatures:     90.44   145.60   247.30   282.41   345.69
          (Kelvin)            396.55   401.72   430.65   524.18   704.69
                              765.55   815.88   943.81  1006.00  1108.70
                             1168.71  1221.95  1343.72  1362.28  1409.18
                             1434.01  1460.18  1526.85  1567.63  1587.65
                             1636.02  1683.52  1737.02  1750.92  1823.10
                             1846.74  1896.13  1934.36  1980.71  2026.47
                             2064.30  2101.08  2132.39  2155.19  2173.15
                             2686.99  4367.26  4374.99  4386.76  4409.42
                             4446.70  4471.97  4473.91  4496.34  4610.65
                             5480.09

 Zero-point correction=                           0.157450 (Hartree/Particle)
 Thermal correction to Energy=                    0.166690
 Thermal correction to Enthalpy=                  0.167635
 Thermal correction to Gibbs Free Energy=         0.123341
 Sum of electronic and zero-point Energies=           -423.016920
 Sum of electronic and thermal Energies=              -423.007679
 Sum of electronic and thermal Enthalpies=            -423.006735
 Sum of electronic and thermal Free Energies=         -423.051029

                     E (Thermal)             CV                S
                      KCal/Mol        Cal/Mol-Kelvin    Cal/Mol-Kelvin
 Total                  104.600             34.260             93.225
 Electronic               0.000              0.000              0.000
 Translational            0.889              2.981             40.409
 Rotational               0.889              2.981             28.851
 Vibrational            102.822             28.298             23.965
 Vibration     1          0.597              1.972              4.365
 Vibration     2          0.604              1.948              3.431
 Vibration     3          0.626              1.877              2.415
 Vibration     4          0.636              1.845              2.168
 Vibration     5          0.657              1.779              1.801
 Vibration     6          0.677              1.718              1.561
 Vibration     7          0.680              1.712              1.539
 Vibration     8          0.692              1.675              1.421
 Vibration     9          0.738              1.546              1.104
 Vibration    10          0.846              1.273              0.684
 Vibration    11          0.887              1.179              0.583
 Vibration    12          0.923              1.103              0.510

 Normal termination of Gaussian 09 at Tue Jan 28 09:54:54 2020.
