 Gaussian 09, Revision D.01,
 Gaussian 09:  ES64L-G09RevD.01 24-Apr-2013

 -----------------------------
 # b3lyp 6-31G(2df,p) opt Freq
 -----------------------------

 -----
 titel
 -----
 Symbolic Z-matrix:
 Charge =  0 Multiplicity = 1

 SCF Done:  E(RB3LYP) =  -423.148249722     A.U. after   12 cycles
 Optimization completed.
    -- Stationary point found.
 Normal termination of Gaussian 09 at Mon Jan 27 23:43:21 2020.

 ----------------------------------------------------------------------
 #N Geom=AllCheck Guess=TCheck SCRF=Check GenChk RB3LYP/6-31G(2df,p) Fr
 eq
 ----------------------------------------------------------------------

 Structure from the checkpoint file:  "/scratch/puck/g09_cc13827f-05c3-47cf-a567-b9db6a08934b/Gau-77793.chk"
 -----
 titel
 -----
 Charge =  0 Multiplicity = 1

                         Standard orientation:
 ---------------------------------------------------------------------
 Center     Atomic      Atomic             Coordinates (Angstroms)
 Number     Number       Type             X           Y           Z
 ---------------------------------------------------------------------
      1          8           0        2.973022   -0.276815    0.499274
      2          6           0        1.575645   -0.240617    0.454699
      3          6           0        1.008354    0.990489   -0.212936
      4          6           0       -0.423954    1.373118    0.122427
      5          6           0       -1.184532    0.060656   -0.078440
      6          6           0       -1.929359   -0.625065    1.037076
      7          6           0       -2.667638   -0.059774   -0.166929
      8          8           0       -0.435235   -0.761966   -0.958916
      9          6           0        0.906148   -0.350530   -0.895927
     10          1           0        3.248674   -1.193743    0.392939
     11          1           0        1.060657   -0.647086    1.325579
     12          1           0        1.711013    1.743657   -0.547530
     13          1           0       -0.553054    1.762899    1.136574
     14          1           0       -0.769795    2.139168   -0.580984
     15          1           0       -1.838118   -1.703824    1.096765
     16          1           0       -2.025824   -0.116390    1.991226
     17          1           0       -3.058785   -0.768676   -0.887947
     18          1           0       -3.265878    0.836163   -0.038607
     19          1           0        1.480837   -0.631585   -1.770701
 ---------------------------------------------------------------------

 SCF Done:  E(RB3LYP) =  -423.148249722     A.U. after    1 cycles

 The electronic state is 1-A.
 Alpha  occ. eigenvalues --  -19.14457 -19.14446 -10.23926 -10.23034 -10.22910
 Alpha  occ. eigenvalues --  -10.19095 -10.18760 -10.18318 -10.18139  -1.05004
 Alpha  occ. eigenvalues --   -1.02588  -0.85321  -0.83595  -0.72257  -0.61780
 Alpha  occ. eigenvalues --   -0.60526  -0.57739  -0.55581  -0.52942  -0.48739
 Alpha  occ. eigenvalues --   -0.47951  -0.45301  -0.44374  -0.41981  -0.39434
 Alpha  occ. eigenvalues --   -0.38072  -0.36901  -0.36001  -0.34857  -0.31117
 Alpha  occ. eigenvalues --   -0.29252  -0.27733  -0.27018  -0.21364
 Alpha virt. eigenvalues --    0.07490   0.09015   0.10484   0.11004   0.12350
 Alpha virt. eigenvalues --    0.13397   0.14734   0.16567   0.17068   0.17399
 Alpha virt. eigenvalues --    0.17939   0.19477   0.20372   0.21749   0.22960

 Mulliken charges:
               1
     1  O   -0.427835
     2  C    0.036657
     3  C   -0.097830
     4  C   -0.317655
     5  C    0.442984
     6  C   -0.315769
     7  C   -0.343714
     8  O   -0.289854
     9  C    0.034543
    10  H    0.287805
    11  H    0.095107
    12  H    0.102463
    13  H    0.109298
    14  H    0.111211
    15  H    0.119457
    16  H    0.109394
    17  H    0.125957
    18  H    0.114867
    19  H    0.102915
 Sum of Mulliken charges =   0.00000

 Dipole moment (field-independent basis, Debye):
    X=             -0.2429    Y=             -0.1621    Z=              0.3530  Tot=              0.4582
 Quadrupole moment (field-independent basis, Debye-Ang):
   XX=            -53.6496   YY=            -50.1157   ZZ=            -53.5048
   XY=             -5.4314   XZ=             -2.5319   YZ=             -1.2660

  Exact polarizability:  89.113  -2.250  69.563  -1.530  -1.084  66.000
 Approx polarizability: 113.515  -2.751 105.129  -0.019   0.485 102.377

                      1                      2                      3
                      A                      A                      A
 Frequencies --     81.9961               221.6649               256.4817
 Red. masses --      4.2648                 2.2498                 2.6837
 Frc consts  --      0.0169                 0.0651                 0.1040
 IR Inten    --      0.3467                 6.4839                 3.9088

                      4                      5                      6
                      A                      A                      A
 Frequencies --    268.4002               313.7780               345.1228
 Red. masses --      3.3166                 1.6188                 2.2574
 Frc consts  --      0.1408                 0.0939                 0.1584
 IR Inten    --      4.4320                60.0836                16.6613

                      7                      8                      9
                      A                      A                      A
 Frequencies --    359.6742               416.1581               459.6941
 Red. masses --      1.6439                 5.8417                 3.2769
 Frc consts  --      0.1253                 0.5961                 0.4080
 IR Inten    --     24.3565                 4.9097                 1.4437

                     10                     11                     12
                      A                      A                      A
 Frequencies --    580.4732               697.0688               765.9445
 Red. masses --      3.9401                 4.4922                 1.2621
 Frc consts  --      0.7822                 1.2861                 0.4362
 IR Inten    --      2.6362                 6.5493                 4.7731

                     13                     14                     15
                      A                      A                      A
 Frequencies --    776.4071               852.2892               859.0805
 Red. masses --      2.5474                 2.0735                 1.6613
 Frc consts  --      0.9047                 0.8874                 0.7224
 IR Inten    --      6.4025                14.5661                 3.4127

                     16                     17                     18
                      A                      A                      A
 Frequencies --    874.9033               899.3990               928.9768
 Red. masses --      2.3107                 2.1031                 2.0751
 Frc consts  --      1.0421                 1.0023                 1.0551
 IR Inten    --     16.7914                 6.5887                 7.0416

                     19                     20                     21
                      A                      A                      A
 Frequencies --    941.0342               981.4421              1010.0948
 Red. masses --      1.9999                 2.6319                 1.7107
 Frc consts  --      1.0434                 1.4936                 1.0283
 IR Inten    --      8.8041                 4.6487                 9.0268

                     22                     23                     24
                      A                      A                      A
 Frequencies --   1019.3502              1046.7953              1071.0381
 Red. masses --      1.5760                 1.4831                 1.4652
 Frc consts  --      0.9648                 0.9575                 0.9903
 IR Inten    --      1.6896                 3.3828                 7.1533

                     25                     26                     27
                      A                      A                      A
 Frequencies --   1073.2924              1096.2755              1121.8382
 Red. masses --      1.4446                 2.0092                 2.7628
 Frc consts  --      0.9804                 1.4227                 2.0486
 IR Inten    --      1.2620                20.7705               166.0948

                     28                     29                     30
                      A                      A                      A
 Frequencies --   1166.5379              1179.9214              1189.1578
 Red. masses --      2.4340                 1.9856                 1.2663
 Frc consts  --      1.9515                 1.6287                 1.0550
 IR Inten    --      6.1922                 6.7665                 0.0264

                     31                     32                     33
                      A                      A                      A
 Frequencies --   1198.2715              1223.9515              1268.2557
 Red. masses --      1.5210                 2.0065                 1.4204
 Frc consts  --      1.2868                 1.7710                 1.3461
 IR Inten    --     29.9601                46.6626                 4.0249

                     34                     35                     36
                      A                      A                      A
 Frequencies --   1301.5471              1324.4992              1335.0999
 Red. masses --      1.3347                 1.8241                 1.4300
 Frc consts  --      1.3321                 1.8854                 1.5018
 IR Inten    --     58.3907                 7.4713                 0.5009

                     37                     38                     39
                      A                      A                      A
 Frequencies --   1371.1453              1450.6667              1454.0135
 Red. masses --      2.3320                 1.0930                 2.2446
 Frc consts  --      2.5831                 1.3552                 2.7959
 IR Inten    --     15.6747                 1.8754                 7.7103

                     40                     41                     42
                      A                      A                      A
 Frequencies --   1493.5766              1498.8788              3037.6184
 Red. masses --      1.1152                 1.5842                 1.0611
 Frc consts  --      1.4658                 2.0969                 5.7685
 IR Inten    --      2.9614                14.0472                30.8977

                     43                     44                     45
                      A                      A                      A
 Frequencies --   3083.3186              3097.6664              3125.0875
 Red. masses --      1.1030                 1.0879                 1.0530
 Frc consts  --      6.1785                 6.1505                 6.0593
 IR Inten    --     17.8223                24.8668                13.1849

                     46                     47                     48
                      A                      A                      A
 Frequencies --   3133.2077              3182.7804              3193.9824
 Red. masses --      1.0561                 1.0899                 1.0930
 Frc consts  --      6.1087                 6.5052                 6.5693
 IR Inten    --      8.4994                13.0916                11.6745

                     49                     50                     51
                      A                      A                      A
 Frequencies --   3213.4291              3227.9533              3800.1167
 Red. masses --      1.1180                 1.1155                 1.0662
 Frc consts  --      6.8021                 6.8479                 9.0713
 IR Inten    --      0.5433                10.4483                22.4027

 - Thermochemistry -
 -------------------
 Temperature   298.150 Kelvin.  Pressure   1.00000 Atm.
 Atom     1 has atomic number  8 and mass  15.99491

 Molecular mass:   126.06808 amu.
 Principal axes and moments of inertia in atomic units:
                           1         2         3
     Eigenvalues --   453.252521601.020691643.47511
           X            0.99989  -0.00873  -0.01173
           Y            0.00685   0.98839  -0.15177
           Z            0.01292   0.15167   0.98835
 This molecule is an asymmetric top.
 Rotational symmetry number  1.
 Warning -- assumption of classical behavior for rotation
           may cause significant error
 Rotational temperatures (Kelvin)      0.19109     0.05410     0.05270
 Rotational constants (GHZ):           3.98176     1.12724     1.09813
 Zero-point vibrational energy     417911.6 (Joules/Mol)
                                   99.88326 (Kcal/Mol)
 Warning -- explicit consideration of  10 degrees of freedom as
           vibrations may cause significant error
 Vibrational temperatures:    117.97   318.93   369.02   386.17   451.46
          (Kelvin)            496.55   517.49   598.76   661.40   835.17
                             1002.93  1102.02  1117.08  1226.25  1236.02
                             1258.79  1294.03  1336.59  1353.94  1412.07
                             1453.30  1466.62  1506.10  1540.98  1544.23
                             1577.29  1614.07  1678.39  1697.64  1710.93
                             1724.04  1760.99  1824.73  1872.63  1905.66
                             1920.91  1972.77  2087.18  2092.00  2148.92
                             2156.55  4370.45  4436.20  4456.85  4496.30
                             4507.98  4579.31  4595.42  4623.40  4644.30
                             5467.51

 Zero-point correction=                           0.159174 (Hartree/Particle)
 Thermal correction to Energy=                    0.167112
 Thermal correction to Enthalpy=                  0.168056
 Thermal correction to Gibbs Free Energy=         0.126948
 Sum of electronic and zero-point Energies=           -422.989076
 Sum of electronic and thermal Energies=              -422.981137
 Sum of electronic and thermal Enthalpies=            -422.980193
 Sum of electronic and thermal Free Energies=         -423.021302

                     E (Thermal)             CV                S
                      KCal/Mol        Cal/Mol-Kelvin    Cal/Mol-Kelvin
 Total                  104.865             31.839             86.521
 Electronic               0.000              0.000              0.000
 Translational            0.889              2.981             40.409
 Rotational               0.889              2.981             28.569
 Vibrational            103.087             25.877             17.544
 Vibration     1          0.600              1.961              3.843
 Vibration     2          0.648              1.808              1.945
 Vibration     3          0.666              1.752              1.686
 Vibration     4          0.673              1.731              1.606
 Vibration     5          0.702              1.647              1.342
 Vibration     6          0.723              1.585              1.188
 Vibration     7          0.734              1.555              1.124
 Vibration     8          0.779              1.435              0.905
 Vibration     9          0.818              1.339              0.767
 Vibration    10          0.937              1.074              0.484

 Optimization completed.
    -- Stationary point found.
 Normal termination of Gaussian 09 at Tue Jan 28 00:25:34 2020.
