 Gaussian 09, Revision D.01,
 Gaussian 09:  ES64L-G09RevD.01 24-Apr-2013

 -----------------------------
 # b3lyp 6-31G(2df,p) opt Freq
 -----------------------------

 -----
 titel
 -----
 Symbolic Z-matrix:
 Charge =  0 Multiplicity = 1

 SCF Done:  E(RB3LYP) =  -423.125045861     A.U. after   14 cycles
 Optimization completed.
    -- Stationary point found.
 Normal termination of Gaussian 09 at Tue Jan 28 09:00:07 2020.

 ----------------------------------------------------------------------
 #N Geom=AllCheck Guess=TCheck SCRF=Check GenChk RB3LYP/6-31G(2df,p) Fr
 eq
 ----------------------------------------------------------------------

 Structure from the checkpoint file:  "/scratch/puck/g09_c1222414-26a2-4a66-9ea2-81b3133d9052/Gau-93663.chk"
 -----
 titel
 -----
 Charge =  0 Multiplicity = 1

                         Standard orientation:
 ---------------------------------------------------------------------
 Center     Atomic      Atomic             Coordinates (Angstroms)
 Number     Number       Type             X           Y           Z
 ---------------------------------------------------------------------
      1          8           0        0.868365    2.089339    0.174128
      2          6           0        0.099194    1.245617   -0.666664
      3          6           0       -0.463537    0.023867    0.066803
      4          6           0        0.608134   -0.703744    0.904050
      5          6           0        1.884053   -0.890425    0.222877
      6          6           0        2.941478   -0.997377   -0.340640
      7          6           0       -1.805264    0.221100    0.814301
      8          6           0       -2.393889   -0.674196   -0.292117
      9          8           0       -1.096669   -0.851027   -0.902982
     10          1           0        1.746976    1.698538    0.236574
     11          1           0       -0.729483    1.846572   -1.055110
     12          1           0        0.676453    0.880847   -1.525862
     13          1           0        0.770059   -0.116357    1.816163
     14          1           0        0.198987   -1.672002    1.212855
     15          1           0        3.870831   -1.122729   -0.839219
     16          1           0       -1.837342   -0.206190    1.818488
     17          1           0       -2.167301    1.249406    0.851965
     18          1           0       -2.823592   -1.627258    0.037586
     19          1           0       -3.100166   -0.186372   -0.974277
 ---------------------------------------------------------------------

 SCF Done:  E(RB3LYP) =  -423.125045861     A.U. after    1 cycles

 The electronic state is 1-A.
 Alpha  occ. eigenvalues --  -19.13549 -19.13401 -10.24472 -10.23366 -10.22298
 Alpha  occ. eigenvalues --  -10.21148 -10.19112 -10.19027 -10.17958  -1.04165
 Alpha  occ. eigenvalues --   -1.01519  -0.80385  -0.75049  -0.72812  -0.69504
 Alpha  occ. eigenvalues --   -0.63416  -0.54673  -0.53527  -0.50666  -0.49576
 Alpha  occ. eigenvalues --   -0.48432  -0.46690  -0.45138  -0.42494  -0.41172
 Alpha  occ. eigenvalues --   -0.39060  -0.37689  -0.33937  -0.33004  -0.30675
 Alpha  occ. eigenvalues --   -0.28302  -0.27587  -0.27195  -0.24112
 Alpha virt. eigenvalues --    0.04082   0.04780   0.07412   0.09002   0.10455
 Alpha virt. eigenvalues --    0.11840   0.12239   0.13143   0.14906   0.15286
 Alpha virt. eigenvalues --    0.17200   0.18068   0.18248   0.21023   0.21527

 Mulliken charges:
               1
     1  O   -0.428062
     2  C   -0.128132
     3  C    0.413330
     4  C   -0.410383
     5  C    0.280765
     6  C   -0.437172
     7  C   -0.336799
     8  C   -0.068525
     9  O   -0.317187
    10  H    0.292678
    11  H    0.104258
    12  H    0.115225
    13  H    0.143059
    14  H    0.136499
    15  H    0.201140
    16  H    0.108774
    17  H    0.118801
    18  H    0.105042
    19  H    0.106688
 Sum of Mulliken charges =   0.00000

 Dipole moment (field-independent basis, Debye):
    X=             -0.4151    Y=             -0.4285    Z=              0.9473  Tot=              1.1195
 Quadrupole moment (field-independent basis, Debye-Ang):
   XX=            -44.5661   YY=            -58.6993   ZZ=            -53.3250
   XY=             -0.6354   XZ=             -2.8300   YZ=             -2.7412

  Exact polarizability:  99.418  -2.229  66.089  -6.861  -0.126  64.627
 Approx polarizability: 137.289  -3.505  95.027 -16.430   3.461 101.273

                      1                      2                      3
                      A                      A                      A
 Frequencies --     58.5839                75.3624               107.3370
 Red. masses --      3.6082                 3.1392                 3.0526
 Frc consts  --      0.0073                 0.0105                 0.0207
 IR Inten    --      0.1973                 3.2348                 2.5831

                      4                      5                      6
                      A                      A                      A
 Frequencies --    148.0193               224.7567               308.1143
 Red. masses --      2.9576                 4.7428                 3.2251
 Frc consts  --      0.0382                 0.1412                 0.1804
 IR Inten    --      0.7330                 6.6729                 0.6434

                      7                      8                      9
                      A                      A                      A
 Frequencies --    344.0361               354.9725               382.9642
 Red. masses --      2.7566                 2.6298                 2.3062
 Frc consts  --      0.1922                 0.1952                 0.1993
 IR Inten    --      7.0627                 3.3472                 7.7682

                     10                     11                     12
                      A                      A                      A
 Frequencies --    420.4920               441.6923               518.4470
 Red. masses --      1.1899                 6.2286                 3.7895
 Frc consts  --      0.1240                 0.7159                 0.6001
 IR Inten    --     78.5210                 1.8814                17.2845

                     13                     14                     15
                      A                      A                      A
 Frequencies --    625.5850               648.2362               741.9300
 Red. masses --      1.2213                 1.2330                 3.2244
 Frc consts  --      0.2816                 0.3053                 1.0458
 IR Inten    --     40.4188                48.6772                 3.1782

                     16                     17                     18
                      A                      A                      A
 Frequencies --    787.1885               843.0691               857.4637
 Red. masses --      1.1693                 2.2392                 4.9280
 Frc consts  --      0.4269                 0.9377                 2.1348
 IR Inten    --      0.3030                 3.4931                 8.1457

                     19                     20                     21
                      A                      A                      A
 Frequencies --    933.7334               944.2949               979.3171
 Red. masses --      2.0939                 1.9021                 2.4566
 Frc consts  --      1.0756                 0.9993                 1.3881
 IR Inten    --     20.3469                 3.6697                 3.5826

                     22                     23                     24
                      A                      A                      A
 Frequencies --    993.9202              1021.6748              1060.8919
 Red. masses --      2.1620                 7.9359                 3.9732
 Frc consts  --      1.2584                 4.8806                 2.6347
 IR Inten    --      0.3208               108.9999               126.2789

                     25                     26                     27
                      A                      A                      A
 Frequencies --   1087.7702              1129.7110              1161.4733
 Red. masses --      4.4544                 1.6773                 1.2416
 Frc consts  --      3.1054                 1.2612                 0.9869
 IR Inten    --     15.6856                10.2164                 1.5859

                     28                     29                     30
                      A                      A                      A
 Frequencies --   1200.9765              1217.5239              1239.8484
 Red. masses --      1.6105                 1.3241                 1.2848
 Frc consts  --      1.3686                 1.1565                 1.1636
 IR Inten    --      4.2219                 0.8335                 7.8656

                     31                     32                     33
                      A                      A                      A
 Frequencies --   1271.1077              1295.6435              1330.4100
 Red. masses --      1.4871                 1.8438                 1.4492
 Frc consts  --      1.4156                 1.8236                 1.5113
 IR Inten    --     25.1530                10.0276                 7.1338

                     34                     35                     36
                      A                      A                      A
 Frequencies --   1361.1233              1396.1114              1410.6284
 Red. masses --      1.5654                 1.3314                 1.2286
 Frc consts  --      1.7087                 1.5290                 1.4404
 IR Inten    --      2.8918                11.6267                30.4618

                     37                     38                     39
                      A                      A                      A
 Frequencies --   1450.4843              1486.2585              1498.5221
 Red. masses --      1.0967                 1.0902                 1.0904
 Frc consts  --      1.3595                 1.4188                 1.4426
 IR Inten    --      5.3606                 6.2471                 3.7268

                     40                     41                     42
                      A                      A                      A
 Frequencies --   1532.6869              2231.1742              3021.5164
 Red. masses --      1.1061                 5.9393                 1.0553
 Frc consts  --      1.5309                17.4201                 5.6764
 IR Inten    --      0.8948                 2.3977                83.3317

                     43                     44                     45
                      A                      A                      A
 Frequencies --   3026.8323              3032.8028              3060.6810
 Red. masses --      1.0602                 1.0592                 1.1109
 Frc consts  --      5.7230                 5.7400                 6.1314
 IR Inten    --     30.0669                 8.9648                28.5225

                     46                     47                     48
                      A                      A                      A
 Frequencies --   3074.7355              3078.0528              3082.0552
 Red. masses --      1.1007                 1.0628                 1.1024
 Frc consts  --      6.1311                 5.9328                 6.1700
 IR Inten    --      6.8049                19.7249                36.4053

                     49                     50                     51
                      A                      A                      A
 Frequencies --   3133.7575              3503.2661              3802.0185
 Red. masses --      1.1081                 1.1616                 1.0661
 Frc consts  --      6.4114                 8.3993                 9.0802
 IR Inten    --     21.2835                71.9158                37.4990

 - Thermochemistry -
 -------------------
 Temperature   298.150 Kelvin.  Pressure   1.00000 Atm.
 Atom     1 has atomic number  8 and mass  15.99491

 Molecular mass:   126.06808 amu.
 Principal axes and moments of inertia in atomic units:
                           1         2         3
     Eigenvalues --   723.845841399.605661740.85206
           X            0.99991   0.00080  -0.01315
           Y           -0.00126   0.99939  -0.03497
           Z            0.01312   0.03498   0.99930
 This molecule is an asymmetric top.
 Rotational symmetry number  1.
 Warning -- assumption of classical behavior for rotation
           may cause significant error
 Rotational temperatures (Kelvin)      0.11966     0.06188     0.04975
 Rotational constants (GHZ):           2.49327     1.28946     1.03670
 Zero-point vibrational energy     412348.3 (Joules/Mol)
                                   98.55361 (Kcal/Mol)
 Warning -- explicit consideration of  12 degrees of freedom as
           vibrations may cause significant error
 Vibrational temperatures:     84.29   108.43   154.43   212.97   323.37
          (Kelvin)            443.31   494.99   510.73   551.00   604.99
                              635.50   745.93   900.08   932.67  1067.47
                             1132.59  1212.99  1233.70  1343.43  1358.63
                             1409.02  1430.03  1469.96  1526.38  1565.06
                             1625.40  1671.10  1727.94  1751.74  1783.86
                             1828.84  1864.14  1914.16  1958.35  2008.69
                             2029.58  2086.92  2138.39  2156.04  2205.19
                             3210.16  4347.28  4354.93  4363.52  4403.63
                             4423.85  4428.63  4434.38  4508.77  5040.41
                             5470.25

 Zero-point correction=                           0.157055 (Hartree/Particle)
 Thermal correction to Energy=                    0.166627
 Thermal correction to Enthalpy=                  0.167571
 Thermal correction to Gibbs Free Energy=         0.122175
 Sum of electronic and zero-point Energies=           -422.967991
 Sum of electronic and thermal Energies=              -422.958419
 Sum of electronic and thermal Enthalpies=            -422.957475
 Sum of electronic and thermal Free Energies=         -423.002870

                     E (Thermal)             CV                S
                      KCal/Mol        Cal/Mol-Kelvin    Cal/Mol-Kelvin
 Total                  104.560             35.160             95.543
 Electronic               0.000              0.000              0.000
 Translational            0.889              2.981             40.409
 Rotational               0.889              2.981             28.957
 Vibrational            102.783             29.198             26.178
 Vibration     1          0.596              1.974              4.504
 Vibration     2          0.599              1.965              4.008
 Vibration     3          0.606              1.943              3.317
 Vibration     4          0.617              1.905              2.698
 Vibration     5          0.649              1.803              1.920
 Vibration     6          0.698              1.658              1.372
 Vibration     7          0.723              1.587              1.193
 Vibration     8          0.731              1.565              1.144
 Vibration     9          0.752              1.507              1.027
 Vibration    10          0.783              1.426              0.890
 Vibration    11          0.801              1.379              0.821
 Vibration    12          0.873              1.209              0.614

 Optimization completed.
    -- Stationary point found.
 Normal termination of Gaussian 09 at Tue Jan 28 09:42:38 2020.
