 Gaussian 09, Revision D.01,
 Gaussian 09:  ES64L-G09RevD.01 24-Apr-2013

 -----------------------------
 # b3lyp 6-31G(2df,p) opt Freq
 -----------------------------

 -----
 titel
 -----
 Symbolic Z-matrix:
 Charge =  0 Multiplicity = 1

 SCF Done:  E(RB3LYP) =  -423.191859008     A.U. after   14 cycles
 Optimization completed.
    -- Stationary point found.
 Normal termination of Gaussian 09 at Tue Jan 28 14:03:17 2020.

 ----------------------------------------------------------------------
 #N Geom=AllCheck Guess=TCheck SCRF=Check GenChk RB3LYP/6-31G(2df,p) Fr
 eq
 ----------------------------------------------------------------------

 Structure from the checkpoint file:  "/scratch/puck/g09_f0f5802c-3b64-4528-934c-8fd561481a89/Gau-9768.chk"
 -----
 titel
 -----
 Charge =  0 Multiplicity = 1

                         Standard orientation:
 ---------------------------------------------------------------------
 Center     Atomic      Atomic             Coordinates (Angstroms)
 Number     Number       Type             X           Y           Z
 ---------------------------------------------------------------------
      1          8           0        2.756331   -0.192201   -0.098020
      2          6           0        1.628507   -0.972572    0.237154
      3          6           0        0.379211   -0.478574   -0.504048
      4          6           0       -0.986037   -1.145240   -0.219018
      5          6           0       -1.421171   -0.499627    1.131495
      6          6           0       -1.487576    0.809523    0.265594
      7          6           0       -1.961167   -0.134450   -0.891030
      8          6           0       -0.014694    0.946332   -0.066014
      9          8           0        0.716037    1.901396    0.054623
     10          1           0        2.497110    0.733431    0.015416
     11          1           0        1.854886   -2.003930   -0.056291
     12          1           0        1.448841   -0.978688    1.324973
     13          1           0        0.609915   -0.479711   -1.576568
     14          1           0       -1.065843   -2.217864   -0.392900
     15          1           0       -2.418171   -0.816080    1.445081
     16          1           0       -0.735525   -0.525502    1.981571
     17          1           0       -2.019522    1.706022    0.575822
     18          1           0       -3.009849   -0.415013   -0.772563
     19          1           0       -1.763230    0.171422   -1.922165
 ---------------------------------------------------------------------

 SCF Done:  E(RB3LYP) =  -423.191859008     A.U. after    1 cycles

 The electronic state is 1-A.
 Alpha  occ. eigenvalues --  -19.14348 -19.12186 -10.27484 -10.22981 -10.21195
 Alpha  occ. eigenvalues --  -10.21111 -10.20833 -10.20728 -10.19725  -1.05274
 Alpha  occ. eigenvalues --   -1.00593  -0.90828  -0.75622  -0.68596  -0.68219
 Alpha  occ. eigenvalues --   -0.65022  -0.56733  -0.53398  -0.50705  -0.50372
 Alpha  occ. eigenvalues --   -0.48315  -0.43848  -0.43461  -0.40731  -0.40036
 Alpha  occ. eigenvalues --   -0.39539  -0.38664  -0.37747  -0.34011  -0.33400
 Alpha  occ. eigenvalues --   -0.33135  -0.31906  -0.25862  -0.24382
 Alpha virt. eigenvalues --   -0.01880   0.08527   0.10268   0.10481   0.11038
 Alpha virt. eigenvalues --    0.12393   0.13342   0.14397   0.15894   0.16254
 Alpha virt. eigenvalues --    0.17318   0.19369   0.19723   0.20799   0.21338

 Mulliken charges:
               1
     1  O   -0.426408
     2  C   -0.088027
     3  C   -0.109700
     4  C   -0.050006
     5  C   -0.239650
     6  C   -0.121845
     7  C   -0.240342
     8  C    0.444528
     9  O   -0.366762
    10  H    0.296008
    11  H    0.106058
    12  H    0.085551
    13  H    0.105060
    14  H    0.075582
    15  H    0.113404
    16  H    0.112402
    17  H    0.086336
    18  H    0.111352
    19  H    0.106459
 Sum of Mulliken charges =   0.00000

 Dipole moment (field-independent basis, Debye):
    X=             -3.5484    Y=             -1.7010    Z=              0.1271  Tot=              3.9371
 Quadrupole moment (field-independent basis, Debye-Ang):
   XX=            -58.4245   YY=            -55.8888   ZZ=            -51.6509
   XY=             -0.3607   XZ=              0.5609   YZ=             -0.2621

  Exact polarizability:  84.980   1.685  73.986  -0.747   0.207  65.610
 Approx polarizability: 117.590   7.790 116.596  -1.762   1.087 101.364

                      1                      2                      3
                      A                      A                      A
 Frequencies --    114.9946               151.1799               189.4844
 Red. masses --      4.8351                 3.5015                 4.0756
 Frc consts  --      0.0377                 0.0472                 0.0862
 IR Inten    --      0.7466                 5.4441                 2.9907

                      4                      5                      6
                      A                      A                      A
 Frequencies --    248.8578               372.2948               432.7651
 Red. masses --      2.7662                 5.0197                 3.6544
 Frc consts  --      0.1009                 0.4099                 0.4032
 IR Inten    --      1.5568                 1.0587                 9.3671

                      7                      8                      9
                      A                      A                      A
 Frequencies --    478.5289               512.3239               532.9137
 Red. masses --      2.6182                 2.3529                 1.1085
 Frc consts  --      0.3532                 0.3639                 0.1855
 IR Inten    --      2.7000                 8.5129               102.0954

                     10                     11                     12
                      A                      A                      A
 Frequencies --    616.0287               706.7257               768.0851
 Red. masses --      3.7471                 3.4226                 3.2211
 Frc consts  --      0.8378                 1.0072                 1.1196
 IR Inten    --      4.5763                 0.5739                 2.3272

                     13                     14                     15
                      A                      A                      A
 Frequencies --    814.0236               832.1123               862.7624
 Red. masses --      3.8800                 2.4113                 2.4449
 Frc consts  --      1.5148                 0.9837                 1.0722
 IR Inten    --     26.3055                 0.3938                 0.7258

                     16                     17                     18
                      A                      A                      A
 Frequencies --    887.1226               932.5729               987.8160
 Red. masses --      2.2074                 1.7748                 1.6161
 Frc consts  --      1.0235                 0.9094                 0.9291
 IR Inten    --      2.9645                 7.3000                16.9971

                     19                     20                     21
                      A                      A                      A
 Frequencies --   1003.6769              1015.2882              1027.8833
 Red. masses --      1.7150                 2.6537                 1.5968
 Frc consts  --      1.0179                 1.6117                 0.9940
 IR Inten    --      1.6615                 1.3054                 4.7016

                     22                     23                     24
                      A                      A                      A
 Frequencies --   1053.7892              1084.8533              1087.7277
 Red. masses --      1.6748                 2.4956                 1.4523
 Frc consts  --      1.0958                 1.7305                 1.0124
 IR Inten    --      8.1739                67.7721                22.0929

                     25                     26                     27
                      A                      A                      A
 Frequencies --   1099.2969              1126.1638              1173.2411
 Red. masses --      1.4077                 1.9220                 2.0777
 Frc consts  --      1.0023                 1.4362                 1.6850
 IR Inten    --      8.3713                 4.2542                19.8932

                     28                     29                     30
                      A                      A                      A
 Frequencies --   1198.9355              1224.8978              1230.2337
 Red. masses --      1.3127                 1.3507                 1.5654
 Frc consts  --      1.1117                 1.1940                 1.3959
 IR Inten    --     11.8501                 0.2242                 2.6566

                     31                     32                     33
                      A                      A                      A
 Frequencies --   1239.8480              1262.1125              1294.5447
 Red. masses --      1.5879                 1.6994                 1.3912
 Frc consts  --      1.4381                 1.5950                 1.3736
 IR Inten    --      2.3976                 5.4160                 2.8736

                     34                     35                     36
                      A                      A                      A
 Frequencies --   1300.3269              1345.5935              1385.9513
 Red. masses --      1.6049                 1.7365                 1.2586
 Frc consts  --      1.5988                 1.8525                 1.4244
 IR Inten    --      0.4963                18.6304                 1.9513

                     37                     38                     39
                      A                      A                      A
 Frequencies --   1458.5291              1489.9002              1514.8915
 Red. masses --      1.2083                 1.0890                 1.0943
 Frc consts  --      1.5145                 1.4243                 1.4796
 IR Inten    --    104.0780                 1.7470                 0.3055

                     40                     41                     42
                      A                      A                      A
 Frequencies --   1523.7148              1835.4410              2965.5069
 Red. masses --      1.1096                11.9112                 1.0700
 Frc consts  --      1.5178                23.6422                 5.5442
 IR Inten    --      1.8446               231.8431                48.5487

                     43                     44                     45
                      A                      A                      A
 Frequencies --   3038.3916              3057.5230              3058.9011
 Red. masses --      1.0816                 1.0786                 1.0703
 Frc consts  --      5.8828                 5.9411                 5.9003
 IR Inten    --     12.9427                36.2734                38.9982

                     46                     47                     48
                      A                      A                      A
 Frequencies --   3067.3300              3118.7037              3122.6511
 Red. masses --      1.0570                 1.0936                 1.1075
 Frc consts  --      5.8591                 6.2669                 6.3626
 IR Inten    --     28.1706                29.9905                19.9016

                     49                     50                     51
                      A                      A                      A
 Frequencies --   3127.0787              3149.8176              3731.6495
 Red. masses --      1.1082                 1.0912                 1.0662
 Frc consts  --      6.3847                 6.3788                 8.7472
 IR Inten    --     30.3958                23.7320                65.7507

 - Thermochemistry -
 -------------------
 Temperature   298.150 Kelvin.  Pressure   1.00000 Atm.
 Atom     1 has atomic number  8 and mass  15.99491

 Molecular mass:   126.06808 amu.
 Principal axes and moments of inertia in atomic units:
                           1         2         3
     Eigenvalues --   607.645921261.877341545.05364
           X            0.99997  -0.00641   0.00340
           Y            0.00644   0.99993  -0.01025
           Z           -0.00333   0.01027   0.99994
 This molecule is an asymmetric top.
 Rotational symmetry number  1.
 Warning -- assumption of classical behavior for rotation
           may cause significant error
 Rotational temperatures (Kelvin)      0.14254     0.06864     0.05606
 Rotational constants (GHZ):           2.97005     1.43020     1.16808
 Zero-point vibrational energy     423806.9 (Joules/Mol)
                                  101.29229 (Kcal/Mol)
 Warning -- explicit consideration of  10 degrees of freedom as
           vibrations may cause significant error
 Vibrational temperatures:    165.45   217.51   272.63   358.05   535.65
          (Kelvin)            622.65   688.50   737.12   766.74   886.33
                             1016.82  1105.10  1171.20  1197.22  1241.32
                             1276.37  1341.76  1421.25  1444.07  1460.77
                             1478.89  1516.17  1560.86  1565.00  1581.64
                             1620.30  1688.03  1725.00  1762.35  1770.03
                             1783.86  1815.90  1862.56  1870.88  1936.01
                             1994.07  2098.50  2143.63  2179.59  2192.28
                             2640.79  4266.70  4371.56  4399.09  4401.07
                             4413.20  4487.11  4492.79  4499.16  4531.88
                             5369.00

 Zero-point correction=                           0.161420 (Hartree/Particle)
 Thermal correction to Energy=                    0.169024
 Thermal correction to Enthalpy=                  0.169969
 Thermal correction to Gibbs Free Energy=         0.129366
 Sum of electronic and zero-point Energies=           -423.030439
 Sum of electronic and thermal Energies=              -423.022835
 Sum of electronic and thermal Enthalpies=            -423.021890
 Sum of electronic and thermal Free Energies=         -423.062493

                     E (Thermal)             CV                S
                      KCal/Mol        Cal/Mol-Kelvin    Cal/Mol-Kelvin
 Total                  106.064             30.252             85.455
 Electronic               0.000              0.000              0.000
 Translational            0.889              2.981             40.409
 Rotational               0.889              2.981             28.562
 Vibrational            104.287             24.290             16.485
 Vibration     1          0.608              1.937              3.183
 Vibration     2          0.619              1.901              2.657
 Vibration     3          0.633              1.854              2.233
 Vibration     4          0.662              1.765              1.739
 Vibration     5          0.744              1.529              1.070
 Vibration     6          0.794              1.399              0.850
 Vibration     7          0.835              1.298              0.714
 Vibration     8          0.867              1.223              0.628
 Vibration     9          0.888              1.177              0.581
 Vibration    10          0.976              0.998              0.423

 Optimization completed.
    -- Stationary point found.
 Normal termination of Gaussian 09 at Tue Jan 28 14:53:24 2020.
