 Gaussian 09, Revision D.01,
 Gaussian 09:  ES64L-G09RevD.01 24-Apr-2013

 -----------------------------
 # b3lyp 6-31G(2df,p) opt Freq
 -----------------------------

 -----
 titel
 -----
 Symbolic Z-matrix:
 Charge =  0 Multiplicity = 1

 SCF Done:  E(RB3LYP) =  -423.120979227     A.U. after   14 cycles
 SCF Done:  E(RB3LYP) =  -423.120979248     A.U. after    6 cycles
 SCF Done:  E(RB3LYP) =  -423.120979292     A.U. after    7 cycles
 SCF Done:  E(RB3LYP) =  -423.120979341     A.U. after    6 cycles
 Optimization completed.
    -- Stationary point found.
 Normal termination of Gaussian 09 at Tue Jan 28 13:37:35 2020.

 ----------------------------------------------------------------------
 #N Geom=AllCheck Guess=TCheck SCRF=Check GenChk RB3LYP/6-31G(2df,p) Fr
 eq
 ----------------------------------------------------------------------

 Structure from the checkpoint file:  "/scratch/puck/g09_afe14a4c-5b64-4bc7-8e72-2d8d53efa7a1/Gau-109085.chk"
 -----
 titel
 -----
 Charge =  0 Multiplicity = 1

                         Standard orientation:
 ---------------------------------------------------------------------
 Center     Atomic      Atomic             Coordinates (Angstroms)
 Number     Number       Type             X           Y           Z
 ---------------------------------------------------------------------
      1          8           0        3.539880   -1.102952    0.220137
      2          6           0        2.985929    0.194730    0.070283
      3          6           0        1.579339    0.150973   -0.487151
      4          8           0        0.809134    1.347187   -0.339611
      5          6           0        0.394224    0.170483    0.376275
      6          6           0       -0.928083   -0.426161   -0.033748
      7          6           0       -2.113677    0.449735    0.428104
      8          6           0       -3.407237   -0.107699    0.055999
      9          6           0       -4.460034   -0.591636   -0.263687
     10          1           0        3.729085   -1.450682   -0.656885
     11          1           0        2.965280    0.646037    1.066794
     12          1           0        3.614462    0.836206   -0.566116
     13          1           0        1.484049   -0.324846   -1.467227
     14          1           0        0.565269    0.236692    1.453306
     15          1           0       -0.962202   -0.534438   -1.122198
     16          1           0       -1.023133   -1.429234    0.397653
     17          1           0       -2.070392    0.579238    1.517633
     18          1           0       -1.999516    1.450857   -0.004626
     19          1           0       -5.397788   -1.006264   -0.539002
 ---------------------------------------------------------------------

 SCF Done:  E(RB3LYP) =  -423.120979341     A.U. after    1 cycles

 The electronic state is 1-A.
 Alpha  occ. eigenvalues --  -19.15436 -19.14532 -10.24134 -10.23976 -10.23661
 Alpha  occ. eigenvalues --  -10.21034 -10.19733 -10.17982 -10.16868  -1.07426
 Alpha  occ. eigenvalues --   -1.02521  -0.80909  -0.73778  -0.72976  -0.67926
 Alpha  occ. eigenvalues --   -0.61647  -0.59781  -0.52720  -0.51867  -0.49667
 Alpha  occ. eigenvalues --   -0.48300  -0.45945  -0.44906  -0.42425  -0.40426
 Alpha  occ. eigenvalues --   -0.40089  -0.37227  -0.36097  -0.34457  -0.30320
 Alpha  occ. eigenvalues --   -0.29170  -0.26445  -0.26228  -0.26068
 Alpha virt. eigenvalues --    0.05348   0.05798   0.06406   0.09578   0.10289
 Alpha virt. eigenvalues --    0.11114   0.12619   0.13113   0.13314   0.14638
 Alpha virt. eigenvalues --    0.16202   0.16741   0.17724   0.20663   0.22618

 Mulliken charges:
               1
     1  O   -0.409407
     2  C   -0.105626
     3  C    0.030401
     4  O   -0.261513
     5  C    0.065236
     6  C   -0.220155
     7  C   -0.345725
     8  C    0.291089
     9  C   -0.437582
    10  H    0.287638
    11  H    0.120991
    12  H    0.099767
    13  H    0.083525
    14  H    0.093125
    15  H    0.116384
    16  H    0.118468
    17  H    0.129662
    18  H    0.149538
    19  H    0.194185
 Sum of Mulliken charges =   0.00000

 Dipole moment (field-independent basis, Debye):
    X=              0.6236    Y=             -0.9367    Z=             -0.8190  Tot=              1.3918
 Quadrupole moment (field-independent basis, Debye-Ang):
   XX=            -52.1724   YY=            -56.0255   ZZ=            -51.0054
   XY=              1.4642   XZ=             -4.7988   YZ=              3.9216

  Exact polarizability: 110.136   7.810  63.400   1.406   3.862  62.892
 Approx polarizability: 135.487  14.102 101.505   4.970   5.083  97.754

                      1                      2                      3
                      A                      A                      A
 Frequencies --     50.9593                69.8792                78.7980
 Red. masses --      4.2714                 2.8265                 3.7832
 Frc consts  --      0.0065                 0.0081                 0.0138
 IR Inten    --      0.4544                 1.5642                 0.7385

                      4                      5                      6
                      A                      A                      A
 Frequencies --    100.4607               180.2240               201.0305
 Red. masses --      3.1384                 3.6849                 3.2829
 Frc consts  --      0.0187                 0.0705                 0.0782
 IR Inten    --      2.8088                 2.7071                13.4242

                      7                      8                      9
                      A                      A                      A
 Frequencies --    255.4472               323.2051               357.0722
 Red. masses --      1.1927                 2.5263                 3.0666
 Frc consts  --      0.0459                 0.1555                 0.2304
 IR Inten    --     97.0853                14.1978                 4.5101

                     10                     11                     12
                      A                      A                      A
 Frequencies --    401.6463               440.4452               492.2268
 Red. masses --      3.5297                 4.8491                 5.6996
 Frc consts  --      0.3355                 0.5542                 0.8136
 IR Inten    --     20.2965                 6.7911                 3.0068

                     13                     14                     15
                      A                      A                      A
 Frequencies --    561.2907               617.7916               639.5412
 Red. masses --      3.2406                 1.1997                 1.2236
 Frc consts  --      0.6015                 0.2698                 0.2949
 IR Inten    --      4.7639                44.4901                42.8544

                     16                     17                     18
                      A                      A                      A
 Frequencies --    760.9362               822.8203               867.9926
 Red. masses --      1.5039                 3.2402                 2.3172
 Frc consts  --      0.5131                 1.2925                 1.0286
 IR Inten    --      3.9699                16.3461                 4.6778

                     19                     20                     21
                      A                      A                      A
 Frequencies --    952.5728               970.3663              1011.3572
 Red. masses --      2.4822                 3.2620                 2.1588
 Frc consts  --      1.3270                 1.8097                 1.3010
 IR Inten    --     15.3861                20.0810                 8.2652

                     22                     23                     24
                      A                      A                      A
 Frequencies --   1022.3224              1045.0497              1093.5358
 Red. masses --      2.4907                 2.8884                 2.8874
 Frc consts  --      1.5337                 1.8586                 2.0344
 IR Inten    --      2.8908                88.9074                24.7658

                     25                     26                     27
                      A                      A                      A
 Frequencies --   1095.7851              1127.6878              1145.4924
 Red. masses --      2.2482                 1.4366                 1.4654
 Frc consts  --      1.5905                 1.0764                 1.1329
 IR Inten    --      3.0477                 3.4970                 0.5529

                     28                     29                     30
                      A                      A                      A
 Frequencies --   1211.2383              1225.7115              1265.9753
 Red. masses --      1.2805                 1.3790                 1.3441
 Frc consts  --      1.1069                 1.2207                 1.2692
 IR Inten    --      1.9878                10.8792                 8.8372

                     31                     32                     33
                      A                      A                      A
 Frequencies --   1288.4512              1314.5728              1357.7444
 Red. masses --      1.3267                 1.1247                 1.2560
 Frc consts  --      1.2977                 1.1451                 1.3642
 IR Inten    --      3.3021                 0.1247                12.1920

                     34                     35                     36
                      A                      A                      A
 Frequencies --   1378.1884              1394.2673              1409.1359
 Red. masses --      1.3451                 1.2887                 1.2921
 Frc consts  --      1.5053                 1.4761                 1.5117
 IR Inten    --     10.0256                25.1089                23.1733

                     37                     38                     39
                      A                      A                      A
 Frequencies --   1469.7369              1483.9716              1498.2761
 Red. masses --      1.0868                 1.1056                 1.3977
 Frc consts  --      1.3832                 1.4345                 1.8486
 IR Inten    --      1.3867                 4.1214                 1.8318

                     40                     41                     42
                      A                      A                      A
 Frequencies --   1510.0328              2239.9330              2992.6407
 Red. masses --      1.8915                 5.9341                 1.0694
 Frc consts  --      2.5412                17.5420                 5.6428
 IR Inten    --      6.5538                 4.1876                57.8873

                     43                     44                     45
                      A                      A                      A
 Frequencies --   3021.1234              3045.2723              3058.8530
 Red. masses --      1.0610                 1.0635                 1.0942
 Frc consts  --      5.7058                 5.8108                 6.0323
 IR Inten    --     11.6517                13.0278                 4.8674

                     46                     47                     48
                      A                      A                      A
 Frequencies --   3068.2735              3081.0612              3092.1073
 Red. masses --      1.0866                 1.0897                 1.0954
 Frc consts  --      6.0269                 6.0949                 6.1705
 IR Inten    --     11.0684                 4.1282                30.7675

                     49                     50                     51
                      A                      A                      A
 Frequencies --   3102.0009              3507.8449              3821.7956
 Red. masses --      1.0998                 1.1621                 1.0664
 Frc consts  --      6.2352                 8.4252                 9.1771
 IR Inten    --     50.1970                69.5181                23.5176

 - Thermochemistry -
 -------------------
 Temperature   298.150 Kelvin.  Pressure   1.00000 Atm.
 Atom     1 has atomic number  8 and mass  15.99491

 Molecular mass:   126.06808 amu.
 Principal axes and moments of inertia in atomic units:
                           1         2         3
     Eigenvalues --   315.260263179.132973349.35626
           X            0.99999   0.00324  -0.00240
           Y           -0.00306   0.99744   0.07147
           Z            0.00262  -0.07146   0.99744
 This molecule is an asymmetric top.
 Rotational symmetry number  1.
 Rotational temperatures (Kelvin)      0.27474     0.02724     0.02586
 Rotational constants (GHZ):           5.72461     0.56768     0.53883
 Zero-point vibrational energy     409865.4 (Joules/Mol)
                                   97.96018 (Kcal/Mol)
 Warning -- explicit consideration of  14 degrees of freedom as
           vibrations may cause significant error
 Vibrational temperatures:     73.32   100.54   113.37   144.54   259.30
          (Kelvin)            289.24   367.53   465.02   513.75   577.88
                              633.70   708.20   807.57   888.86   920.16
                             1094.82  1183.85  1248.85  1370.54  1396.14
                             1455.12  1470.89  1503.59  1573.35  1576.59
                             1622.49  1648.11  1742.70  1763.52  1821.45
                             1853.79  1891.37  1953.49  1982.90  2006.04
                             2027.43  2114.62  2135.10  2155.68  2172.60
                             3222.76  4305.74  4346.72  4381.46  4401.00
                             4414.56  4432.95  4448.85  4463.08  5047.00
                             5498.70

 Zero-point correction=                           0.156109 (Hartree/Particle)
 Thermal correction to Energy=                    0.166358
 Thermal correction to Enthalpy=                  0.167303
 Thermal correction to Gibbs Free Energy=         0.119670
 Sum of electronic and zero-point Energies=           -422.964870
 Sum of electronic and thermal Energies=              -422.954621
 Sum of electronic and thermal Enthalpies=            -422.953677
 Sum of electronic and thermal Free Energies=         -423.001309

                     E (Thermal)             CV                S
                      KCal/Mol        Cal/Mol-Kelvin    Cal/Mol-Kelvin
 Total                  104.391             36.089            100.251
 Electronic               0.000              0.000              0.000
 Translational            0.889              2.981             40.409
 Rotational               0.889              2.981             29.597
 Vibrational            102.614             30.128             30.246
 Vibration     1          0.595              1.977              4.780
 Vibration     2          0.598              1.968              4.157
 Vibration     3          0.600              1.963              3.921
 Vibration     4          0.604              1.949              3.445
 Vibration     5          0.629              1.867              2.326
 Vibration     6          0.638              1.838              2.124
 Vibration     7          0.666              1.754              1.693
 Vibration     8          0.708              1.629              1.294
 Vibration     9          0.732              1.561              1.135
 Vibration    10          0.767              1.467              0.957
 Vibration    11          0.800              1.382              0.825
 Vibration    12          0.848              1.267              0.678
 Vibration    13          0.917              1.115              0.521
 Vibration    14          0.978              0.994              0.420

 Optimization completed.
    -- Stationary point found.
 Normal termination of Gaussian 09 at Tue Jan 28 14:10:05 2020.
