 Gaussian 09, Revision D.01,
 Gaussian 09:  ES64L-G09RevD.01 24-Apr-2013

 -----------------------------
 # b3lyp 6-31G(2df,p) opt Freq
 -----------------------------

 -----
 titel
 -----
 Symbolic Z-matrix:
 Charge =  0 Multiplicity = 1

 SCF Done:  E(RB3LYP) =  -423.091891383     A.U. after   14 cycles
 Optimization completed.
    -- Stationary point found.
 Normal termination of Gaussian 09 at Tue Jan 28 14:13:37 2020.

 ----------------------------------------------------------------------
 #N Geom=AllCheck Guess=TCheck SCRF=Check GenChk RB3LYP/6-31G(2df,p) Fr
 eq
 ----------------------------------------------------------------------

 Structure from the checkpoint file:  "/scratch/puck/g09_af5d759c-e881-45eb-94b3-41b8997530fb/Gau-111686.chk"
 -----
 titel
 -----
 Charge =  0 Multiplicity = 1

                         Standard orientation:
 ---------------------------------------------------------------------
 Center     Atomic      Atomic             Coordinates (Angstroms)
 Number     Number       Type             X           Y           Z
 ---------------------------------------------------------------------
      1          8           0       -3.779604   -0.159594    0.110125
      2          6           0       -2.437568   -0.568775   -0.097914
      3          6           0       -1.458993    0.609274   -0.151350
      4          6           0       -0.022749    0.162099   -0.334140
      5          6           0        0.760758   -0.187328    0.909381
      6          6           0        2.196937   -0.700027    0.567712
      7          8           0        2.369897   -0.733235   -0.857318
      8          6           0        2.490780    0.522062   -0.171428
      9          6           0        1.067367    1.090697    0.137541
     10          1           0       -4.045948    0.369748   -0.648355
     11          1           0       -2.190079   -1.219519    0.747049
     12          1           0       -2.339154   -1.177151   -1.011469
     13          1           0       -1.740713    1.270864   -0.983278
     14          1           0       -1.569583    1.197554    0.767452
     15          1           0        0.170116   -0.423170   -1.226978
     16          1           0        0.306265   -0.284715    1.886773
     17          1           0        2.819528   -1.356924    1.162848
     18          1           0        3.405900    1.084115   -0.312935
     19          1           0        0.882129    2.113819    0.437628
 ---------------------------------------------------------------------

 SCF Done:  E(RB3LYP) =  -423.091891383     A.U. after    1 cycles

 The electronic state is 1-A.
 Alpha  occ. eigenvalues --  -19.15392 -19.13204 -10.24015 -10.23979 -10.22423
 Alpha  occ. eigenvalues --  -10.19605 -10.19550 -10.19532 -10.18570  -1.07917
 Alpha  occ. eigenvalues --   -1.01297  -0.87492  -0.76015  -0.68042  -0.65183
 Alpha  occ. eigenvalues --   -0.62143  -0.55915  -0.54695  -0.53350  -0.50320
 Alpha  occ. eigenvalues --   -0.47756  -0.45152  -0.44533  -0.40890  -0.39615
 Alpha  occ. eigenvalues --   -0.37977  -0.36847  -0.34535  -0.34486  -0.32594
 Alpha  occ. eigenvalues --   -0.29143  -0.26723  -0.26186  -0.23191
 Alpha virt. eigenvalues --    0.05866   0.07630   0.09181   0.10230   0.12537
 Alpha virt. eigenvalues --    0.13007   0.13884   0.14869   0.15382   0.16385
 Alpha virt. eigenvalues --    0.17408   0.18792   0.19168   0.20454   0.21335

 Mulliken charges:
               1
     1  O   -0.417962
     2  C   -0.050379
     3  C   -0.260281
     4  C   -0.010731
     5  C   -0.102001
     6  C    0.008592
     7  O   -0.240426
     8  C    0.008088
     9  C   -0.126395
    10  H    0.280317
    11  H    0.114277
    12  H    0.088917
    13  H    0.090033
    14  H    0.103142
    15  H    0.111152
    16  H    0.093835
    17  H    0.108840
    18  H    0.109138
    19  H    0.091843
 Sum of Mulliken charges =   0.00000

 Dipole moment (field-independent basis, Debye):
    X=              0.6462    Y=              1.4088    Z=              0.3222  Tot=              1.5831
 Quadrupole moment (field-independent basis, Debye-Ang):
   XX=            -56.6056   YY=            -52.0485   ZZ=            -52.4837
   XY=             -0.5090   XZ=              8.6468   YZ=             -2.3564

  Exact polarizability:  91.468  -1.646  68.647   1.521  -3.564  63.943
 Approx polarizability: 111.693  -1.697 109.353  -1.041  -5.567 105.780

                      1                      2                      3
                      A                      A                      A
 Frequencies --     78.4576                96.5345               108.3320
 Red. masses --      3.9918                 2.0103                 4.4981
 Frc consts  --      0.0145                 0.0110                 0.0311
 IR Inten    --      2.6672                 5.6503                 0.0699

                      4                      5                      6
                      A                      A                      A
 Frequencies --    254.7657               289.4496               325.0135
 Red. masses --      3.2785                 1.5918                 2.1630
 Frc consts  --      0.1254                 0.0786                 0.1346
 IR Inten    --      2.2212                49.4135                50.4580

                      7                      8                      9
                      A                      A                      A
 Frequencies --    351.9837               406.1917               494.3797
 Red. masses --      3.2321                 2.8116                 5.0070
 Frc consts  --      0.2359                 0.2733                 0.7210
 IR Inten    --     23.1167                 2.8967                10.8333

                     10                     11                     12
                      A                      A                      A
 Frequencies --    625.5685               751.4300               764.8109
 Red. masses --      3.6407                 2.1105                 6.0112
 Frc consts  --      0.8394                 0.7021                 2.0717
 IR Inten    --      4.6373                 1.5269                 0.2077

                     13                     14                     15
                      A                      A                      A
 Frequencies --    775.9151               807.9120               834.0123
 Red. masses --      1.9440                 1.3687                 1.8544
 Frc consts  --      0.6896                 0.5264                 0.7600
 IR Inten    --      0.1738                 0.3813                15.3385

                     16                     17                     18
                      A                      A                      A
 Frequencies --    859.3622               873.7592               928.5177
 Red. masses --      3.2811                 1.6529                 2.2690
 Frc consts  --      1.4276                 0.7435                 1.1525
 IR Inten    --      6.1091                29.5988                 5.6220

                     19                     20                     21
                      A                      A                      A
 Frequencies --    948.8099               990.0336              1025.0188
 Red. masses --      2.6959                 2.4815                 1.9000
 Frc consts  --      1.4299                 1.4330                 1.1762
 IR Inten    --      1.1320                28.9841                29.4933

                     22                     23                     24
                      A                      A                      A
 Frequencies --   1030.0456              1034.7261              1047.9650
 Red. masses --      1.7896                 1.8378                 1.5057
 Frc consts  --      1.1187                 1.1593                 0.9743
 IR Inten    --      0.2007                 0.6441                10.2524

                     25                     26                     27
                      A                      A                      A
 Frequencies --   1079.0458              1111.8373              1123.8805
 Red. masses --      4.4364                 1.8179                 1.2878
 Frc consts  --      3.0434                 1.3240                 0.9584
 IR Inten    --    109.6943                 3.8741                 5.9829

                     28                     29                     30
                      A                      A                      A
 Frequencies --   1149.6361              1195.4429              1219.5460
 Red. masses --      1.5007                 1.4567                 1.2925
 Frc consts  --      1.1686                 1.2266                 1.1326
 IR Inten    --      3.1393                 0.9845                 0.0886

                     31                     32                     33
                      A                      A                      A
 Frequencies --   1240.6353              1250.1278              1259.8231
 Red. masses --      1.4652                 1.5722                 1.5561
 Frc consts  --      1.3287                 1.4477                 1.4552
 IR Inten    --      4.1499                 4.7955                16.2868

                     34                     35                     36
                      A                      A                      A
 Frequencies --   1296.9341              1322.6590              1375.2684
 Red. masses --      1.4148                 1.1923                 2.9029
 Frc consts  --      1.4021                 1.2289                 3.2349
 IR Inten    --      2.3850                12.1990                11.8112

                     37                     38                     39
                      A                      A                      A
 Frequencies --   1396.1402              1419.6897              1427.2513
 Red. masses --      1.3308                 1.4029                 2.4824
 Frc consts  --      1.5284                 1.6660                 2.9794
 IR Inten    --      9.1979                44.5109                 4.0752

                     40                     41                     42
                      A                      A                      A
 Frequencies --   1486.8348              1512.9504              2975.3158
 Red. masses --      1.0838                 1.0919                 1.0709
 Frc consts  --      1.4116                 1.4726                 5.5857
 IR Inten    --      1.4369                 0.4816                51.5468

                     43                     44                     45
                      A                      A                      A
 Frequencies --   3005.1512              3055.8647              3080.9448
 Red. masses --      1.0646                 1.0919                 1.0961
 Frc consts  --      5.6647                 6.0076                 6.1301
 IR Inten    --     34.5397                14.7186                39.9993

                     46                     47                     48
                      A                      A                      A
 Frequencies --   3167.7153              3182.3094              3195.2702
 Red. masses --      1.0869                 1.0865                 1.0903
 Frc consts  --      6.4259                 6.4831                 6.5589
 IR Inten    --      9.9359                 6.2283                17.8523

                     49                     50                     51
                      A                      A                      A
 Frequencies --   3196.1665              3206.6148              3814.4577
 Red. masses --      1.0965                 1.1011                 1.0661
 Frc consts  --      6.5999                 6.6710                 9.1393
 IR Inten    --     21.2566                10.1655                17.1974

 - Thermochemistry -
 -------------------
 Temperature   298.150 Kelvin.  Pressure   1.00000 Atm.
 Atom     1 has atomic number  8 and mass  15.99491

 Molecular mass:   126.06808 amu.
 Principal axes and moments of inertia in atomic units:
                           1         2         3
     Eigenvalues --   334.637582354.442012416.10934
           X            0.99993   0.00323   0.01136
           Y           -0.00239   0.99731  -0.07327
           Z           -0.01156   0.07324   0.99725
 This molecule is an asymmetric top.
 Rotational symmetry number  1.
 Rotational temperatures (Kelvin)      0.25883     0.03679     0.03585
 Rotational constants (GHZ):           5.39312     0.76653     0.74696
 Zero-point vibrational energy     415406.3 (Joules/Mol)
                                   99.28448 (Kcal/Mol)
 Warning -- explicit consideration of   9 degrees of freedom as
           vibrations may cause significant error
 Vibrational temperatures:    112.88   138.89   155.87   366.55   416.45
          (Kelvin)            467.62   506.43   584.42   711.30   900.05
                             1081.14  1100.39  1116.37  1162.40  1199.96
                             1236.43  1257.14  1335.93  1365.12  1424.44
                             1474.77  1482.00  1488.74  1507.79  1552.50
                             1599.68  1617.01  1654.07  1719.97  1754.65
                             1785.00  1798.65  1812.60  1866.00  1903.01
                             1978.70  2008.73  2042.61  2053.49  2139.22
                             2176.80  4280.81  4323.74  4396.70  4432.79
                             4557.63  4578.63  4597.28  4598.56  4613.60
                             5488.15

 Zero-point correction=                           0.158220 (Hartree/Particle)
 Thermal correction to Energy=                    0.166655
 Thermal correction to Enthalpy=                  0.167599
 Thermal correction to Gibbs Free Energy=         0.124613
 Sum of electronic and zero-point Energies=           -422.933671
 Sum of electronic and thermal Energies=              -422.925237
 Sum of electronic and thermal Enthalpies=            -422.924292
 Sum of electronic and thermal Free Energies=         -422.967279

                     E (Thermal)             CV                S
                      KCal/Mol        Cal/Mol-Kelvin    Cal/Mol-Kelvin
 Total                  104.577             32.126             90.473
 Electronic               0.000              0.000              0.000
 Translational            0.889              2.981             40.409
 Rotational               0.889              2.981             29.033
 Vibrational            102.800             26.164             21.031
 Vibration     1          0.600              1.964              3.929
 Vibration     2          0.603              1.952              3.523
 Vibration     3          0.606              1.943              3.299
 Vibration     4          0.665              1.755              1.697
 Vibration     5          0.686              1.693              1.477
 Vibration     6          0.709              1.625              1.285
 Vibration     7          0.729              1.571              1.157
 Vibration     8          0.771              1.457              0.940
 Vibration     9          0.850              1.262              0.672

 Normal termination of Gaussian 09 at Tue Jan 28 14:51:37 2020.
