 Gaussian 09, Revision D.01,
 Gaussian 09:  ES64L-G09RevD.01 24-Apr-2013

 -----------------------------
 # b3lyp 6-31G(2df,p) opt Freq
 -----------------------------

 -----
 titel
 -----
 Symbolic Z-matrix:
 Charge =  0 Multiplicity = 1

 SCF Done:  E(RB3LYP) =  -423.205882958     A.U. after   13 cycles
 Optimization completed.
    -- Stationary point found.
 Normal termination of Gaussian 09 at Mon Jan 27 12:20:35 2020.

 ----------------------------------------------------------------------
 #N Geom=AllCheck Guess=TCheck SCRF=Check GenChk RB3LYP/6-31G(2df,p) Fr
 eq
 ----------------------------------------------------------------------

 Structure from the checkpoint file:  "/scratch/puck/g09_c748da1e-688a-475d-9a46-b7d42578deb4/Gau-152680.chk"
 -----
 titel
 -----
 Charge =  0 Multiplicity = 1

                         Standard orientation:
 ---------------------------------------------------------------------
 Center     Atomic      Atomic             Coordinates (Angstroms)
 Number     Number       Type             X           Y           Z
 ---------------------------------------------------------------------
      1          6           0        1.412853   -0.320695   -0.974379
      2          6           0        1.523233    0.970153   -0.157841
      3          6           0        0.211144    1.172832    0.627770
      4          8           0       -0.006652    0.000111    1.421123
      5          6           0       -0.189569   -1.131541    0.600561
      6          6           0       -1.477823   -0.993239   -0.241190
      7          6           0       -1.746571    0.424437   -0.669751
      8          6           0       -0.970143    1.430006   -0.274677
      9          8           0        0.964391   -1.407692   -0.167988
     10          1           0        0.738817   -0.172741   -1.830286
     11          1           0        2.387668   -0.623961   -1.365829
     12          1           0        2.345162    0.886808    0.560543
     13          1           0        1.725917    1.820629   -0.817973
     14          1           0        0.323804    1.991460    1.345301
     15          1           0       -0.274531   -1.982731    1.280710
     16          1           0       -1.400390   -1.658238   -1.109847
     17          1           0       -2.326185   -1.364974    0.349268
     18          1           0       -2.611616    0.600612   -1.304165
     19          1           0       -1.149293    2.452064   -0.595761
 ---------------------------------------------------------------------

 SCF Done:  E(RB3LYP) =  -423.205882958     A.U. after    1 cycles

 The electronic state is 1-A.
 Alpha  occ. eigenvalues --  -19.13741 -19.13566 -10.27228 -10.23623 -10.22652
 Alpha  occ. eigenvalues --  -10.18809 -10.18636 -10.18369 -10.18154  -1.06681
 Alpha  occ. eigenvalues --   -0.99721  -0.80647  -0.79309  -0.71104  -0.67320
 Alpha  occ. eigenvalues --   -0.63416  -0.58866  -0.52608  -0.50232  -0.47497
 Alpha  occ. eigenvalues --   -0.47396  -0.45269  -0.44189  -0.42293  -0.41082
 Alpha  occ. eigenvalues --   -0.39520  -0.38541  -0.35868  -0.35308  -0.31946
 Alpha  occ. eigenvalues --   -0.31006  -0.26420  -0.25329  -0.24119
 Alpha virt. eigenvalues --    0.01638   0.08622   0.11706   0.12364   0.12489
 Alpha virt. eigenvalues --    0.13191   0.15034   0.16102   0.16904   0.17396
 Alpha virt. eigenvalues --    0.18219   0.18689   0.19167   0.22462   0.22915

 Mulliken charges:
               1
     1  C   -0.081484
     2  C   -0.217012
     3  C    0.040349
     4  O   -0.257778
     5  C    0.185194
     6  C   -0.292774
     7  C   -0.065792
     8  C   -0.063045
     9  O   -0.261301
    10  H    0.099135
    11  H    0.109813
    12  H    0.111633
    13  H    0.097128
    14  H    0.085505
    15  H    0.091118
    16  H    0.120502
    17  H    0.116499
    18  H    0.091978
    19  H    0.090330
 Sum of Mulliken charges =   0.00000

 Dipole moment (field-independent basis, Debye):
    X=             -0.5386    Y=              1.1624    Z=             -1.3481  Tot=              1.8598
 Quadrupole moment (field-independent basis, Debye-Ang):
   XX=            -51.1958   YY=            -51.6117   ZZ=            -54.8270
   XY=              3.3456   XZ=              0.0692   YZ=             -0.6313

  Exact polarizability:  79.491   6.987  80.221   3.031  -0.157  64.062
 Approx polarizability: 110.940  13.374 122.304   5.961   2.205  99.774

                      1                      2                      3
                      A                      A                      A
 Frequencies --    145.3726               236.4209               299.5818
 Red. masses --      2.6963                 2.8998                 1.9002
 Frc consts  --      0.0336                 0.0955                 0.1005
 IR Inten    --      1.5474                 0.8698                 0.4435

                      4                      5                      6
                      A                      A                      A
 Frequencies --    384.4091               411.7414               454.1534
 Red. masses --      3.9687                 2.5415                 4.0881
 Frc consts  --      0.3455                 0.2539                 0.4968
 IR Inten    --      1.8242                 2.5715                 8.4080

                      7                      8                      9
                      A                      A                      A
 Frequencies --    501.6008               520.0638               651.9288
 Red. masses --      5.3762                 3.3906                 1.8944
 Frc consts  --      0.7970                 0.5403                 0.4744
 IR Inten    --      4.8409                 1.3668                 7.6071

                     10                     11                     12
                      A                      A                      A
 Frequencies --    691.1122               726.7915               798.9739
 Red. masses --      3.9709                 1.9712                 3.5349
 Frc consts  --      1.1175                 0.6135                 1.3295
 IR Inten    --      1.8224                10.3855                 8.6037

                     13                     14                     15
                      A                      A                      A
 Frequencies --    832.9260               861.2974               901.1150
 Red. masses --      3.4275                 2.8822                 2.7580
 Frc consts  --      1.4010                 1.2597                 1.3195
 IR Inten    --     12.2014                 4.6018                23.8674

                     16                     17                     18
                      A                      A                      A
 Frequencies --    914.0340               949.2102               967.2149
 Red. masses --      2.5349                 2.2006                 2.1545
 Frc consts  --      1.2478                 1.1682                 1.1875
 IR Inten    --     41.0596                 7.9647                 7.6902

                     19                     20                     21
                      A                      A                      A
 Frequencies --    994.4998              1014.5725              1039.0709
 Red. masses --      1.2800                 2.0388                 2.2741
 Frc consts  --      0.7459                 1.2365                 1.4466
 IR Inten    --      8.3762                31.0772                31.5757

                     22                     23                     24
                      A                      A                      A
 Frequencies --   1050.3448              1099.0017              1100.7588
 Red. masses --      3.5594                 3.3172                 1.8702
 Frc consts  --      2.3136                 2.3605                 1.3351
 IR Inten    --      5.8175                 7.0468                17.8566

                     25                     26                     27
                      A                      A                      A
 Frequencies --   1141.8262              1192.3536              1226.1512
 Red. masses --      2.6754                 1.2798                 1.3204
 Frc consts  --      2.0551                 1.0720                 1.1696
 IR Inten    --    103.0812                19.2687                44.0368

                     28                     29                     30
                      A                      A                      A
 Frequencies --   1237.2226              1267.6499              1317.5651
 Red. masses --      1.2310                 1.4887                 1.2501
 Frc consts  --      1.1102                 1.4095                 1.2786
 IR Inten    --      4.2068                26.7194                 0.7871

                     31                     32                     33
                      A                      A                      A
 Frequencies --   1333.7853              1359.8614              1363.3088
 Red. masses --      1.4022                 1.4146                 1.3710
 Frc consts  --      1.4697                 1.5412                 1.5014
 IR Inten    --      7.0923                 7.7905                 1.3026

                     34                     35                     36
                      A                      A                      A
 Frequencies --   1388.6974              1401.6603              1416.0468
 Red. masses --      1.2470                 1.3564                 1.5142
 Frc consts  --      1.4168                 1.5700                 1.7889
 IR Inten    --     10.9803                 7.6437                 1.1564

                     37                     38                     39
                      A                      A                      A
 Frequencies --   1423.9251              1461.0425              1469.2195
 Red. masses --      1.3690                 1.0906                 1.1001
 Frc consts  --      1.6354                 1.3716                 1.3991
 IR Inten    --     10.2215                 6.1163                 2.5679

                     40                     41                     42
                      A                      A                      A
 Frequencies --   1508.7087              1722.6233              3006.0902
 Red. masses --      1.0879                 6.5571                 1.0684
 Frc consts  --      1.4590                11.4641                 5.6886
 IR Inten    --      3.9043                 2.7090                40.3697

                     43                     44                     45
                      A                      A                      A
 Frequencies --   3017.5966              3041.3371              3055.9917
 Red. masses --      1.0647                 1.0612                 1.0960
 Frc consts  --      5.7119                 5.7834                 6.0304
 IR Inten    --     20.3099                14.1210                16.3201

                     46                     47                     48
                      A                      A                      A
 Frequencies --   3059.7982              3083.3043              3086.5351
 Red. masses --      1.0844                 1.0896                 1.0950
 Frc consts  --      5.9816                 6.1030                 6.1460
 IR Inten    --     42.2654                55.7303                15.1071

                     49                     50                     51
                      A                      A                      A
 Frequencies --   3095.4925              3150.9253              3176.9268
 Red. masses --      1.1043                 1.0843                 1.0980
 Frc consts  --      6.2345                 6.3429                 6.5291
 IR Inten    --     36.6988                 9.2462                24.6277

 - Thermochemistry -
 -------------------
 Temperature   298.150 Kelvin.  Pressure   1.00000 Atm.
 Atom     1 has atomic number  6 and mass  12.00000

 Molecular mass:   126.06808 amu.
 Principal axes and moments of inertia in atomic units:
                           1         2         3
     Eigenvalues --   752.68915 881.791961109.17905
           X            0.98646   0.16402   0.00157
           Y           -0.16400   0.98642  -0.00932
           Z           -0.00308   0.00893   0.99996
 This molecule is an asymmetric top.
 Rotational symmetry number  1.
 Warning -- assumption of classical behavior for rotation
           may cause significant error
 Rotational temperatures (Kelvin)      0.11507     0.09822     0.07809
 Rotational constants (GHZ):           2.39772     2.04667     1.62710
 Zero-point vibrational energy     427975.0 (Joules/Mol)
                                  102.28849 (Kcal/Mol)
 Warning -- explicit consideration of   8 degrees of freedom as
           vibrations may cause significant error
 Vibrational temperatures:    209.16   340.16   431.03   553.08   592.40
          (Kelvin)            653.42   721.69   748.25   937.98   994.36
                             1045.69  1149.54  1198.39  1239.21  1296.50
                             1315.09  1365.70  1391.60  1430.86  1459.74
                             1494.99  1511.21  1581.22  1583.74  1642.83
                             1715.53  1764.16  1780.09  1823.86  1895.68
                             1919.02  1956.53  1961.49  1998.02  2016.67
                             2037.37  2048.71  2102.11  2113.88  2170.69
                             2478.47  4325.09  4341.64  4375.80  4396.88
                             4402.36  4436.18  4440.83  4453.72  4533.47
                             4570.88

 Zero-point correction=                           0.163007 (Hartree/Particle)
 Thermal correction to Energy=                    0.169837
 Thermal correction to Enthalpy=                  0.170781
 Thermal correction to Gibbs Free Energy=         0.132133
 Sum of electronic and zero-point Energies=           -423.042876
 Sum of electronic and thermal Energies=              -423.036046
 Sum of electronic and thermal Enthalpies=            -423.035102
 Sum of electronic and thermal Free Energies=         -423.073750

                     E (Thermal)             CV                S
                      KCal/Mol        Cal/Mol-Kelvin    Cal/Mol-Kelvin
 Total                  106.574             28.426             81.343
 Electronic               0.000              0.000              0.000
 Translational            0.889              2.981             40.409
 Rotational               0.889              2.981             28.089
 Vibrational            104.797             22.465             12.845
 Vibration     1          0.617              1.908              2.732
 Vibration     2          0.655              1.785              1.830
 Vibration     3          0.692              1.674              1.419
 Vibration     4          0.753              1.503              1.022
 Vibration     5          0.776              1.445              0.920
 Vibration     6          0.813              1.352              0.783
 Vibration     7          0.857              1.246              0.654
 Vibration     8          0.875              1.206              0.610

 Normal termination of Gaussian 09 at Mon Jan 27 13:11:16 2020.
