 Gaussian 09, Revision D.01,
 Gaussian 09:  ES64L-G09RevD.01 24-Apr-2013

 -----------------------------
 # b3lyp 6-31G(2df,p) opt Freq
 -----------------------------

 -----
 titel
 -----
 Symbolic Z-matrix:
 Charge =  0 Multiplicity = 1

 SCF Done:  E(RB3LYP) =  -423.150253526     A.U. after   14 cycles
 Optimization completed.
    -- Stationary point found.
 Normal termination of Gaussian 09 at Mon Jan 27 12:06:37 2020.

 ----------------------------------------------------------------------
 #N Geom=AllCheck Guess=TCheck SCRF=Check GenChk RB3LYP/6-31G(2df,p) Fr
 eq
 ----------------------------------------------------------------------

 Structure from the checkpoint file:  "/scratch/puck/g09_40788d6f-2ffb-4e45-9d57-719f4fda8a93/Gau-165429.chk"
 -----
 titel
 -----
 Charge =  0 Multiplicity = 1

                         Standard orientation:
 ---------------------------------------------------------------------
 Center     Atomic      Atomic             Coordinates (Angstroms)
 Number     Number       Type             X           Y           Z
 ---------------------------------------------------------------------
      1          6           0        2.865797   -0.606649   -0.405939
      2          8           0        2.688726    0.802983   -0.254561
      3          6           0        1.760514   -0.070613    0.398586
      4          6           0        0.354022   -0.047784   -0.091273
      5          6           0       -0.674745    0.753016    0.673329
      6          6           0       -1.908336    1.162649   -0.110950
      7          8           0       -2.315916   -0.006040   -0.819907
      8          6           0       -1.965686   -1.148322   -0.043295
      9          6           0       -0.711007   -0.755319    0.715930
     10          1           0        2.660321   -0.998798   -1.401508
     11          1           0        3.743658   -1.026190    0.084293
     12          1           0        1.870896   -0.094388    1.485281
     13          1           0        0.249708   -0.070417   -1.173302
     14          1           0       -0.367081    1.345559    1.527197
     15          1           0       -2.696115    1.507577    0.578589
     16          1           0       -1.732411    1.945937   -0.855310
     17          1           0       -2.766293   -1.411647    0.667405
     18          1           0       -1.834237   -1.983353   -0.739501
     19          1           0       -0.434272   -1.311692    1.604259
 ---------------------------------------------------------------------

 SCF Done:  E(RB3LYP) =  -423.150253526     A.U. after    1 cycles

 The electronic state is 1-A.
 Alpha  occ. eigenvalues --  -19.14733 -19.13966 -10.24109 -10.23206 -10.23151
 Alpha  occ. eigenvalues --  -10.23000 -10.19871 -10.19720 -10.19657  -1.06757
 Alpha  occ. eigenvalues --   -1.03818  -0.86910  -0.73809  -0.70048  -0.65616
 Alpha  occ. eigenvalues --   -0.61704  -0.57918  -0.57518  -0.51872  -0.50074
 Alpha  occ. eigenvalues --   -0.47506  -0.45354  -0.44917  -0.43618  -0.40260
 Alpha  occ. eigenvalues --   -0.39481  -0.37304  -0.36872  -0.33535  -0.32171
 Alpha  occ. eigenvalues --   -0.29135  -0.27570  -0.26206  -0.25333
 Alpha virt. eigenvalues --    0.08950   0.09422   0.10864   0.11090   0.11964
 Alpha virt. eigenvalues --    0.13104   0.13442   0.13966   0.15129   0.15899
 Alpha virt. eigenvalues --    0.16983   0.17626   0.18720   0.19602   0.19986

 Mulliken charges:
               1
     1  C   -0.188811
     2  O   -0.240105
     3  C    0.073217
     4  C   -0.031759
     5  C   -0.076597
     6  C   -0.102921
     7  O   -0.253863
     8  C   -0.100065
     9  C   -0.085842
    10  H    0.112794
    11  H    0.113167
    12  H    0.087390
    13  H    0.100352
    14  H    0.093507
    15  H    0.092782
    16  H    0.114644
    17  H    0.092642
    18  H    0.109983
    19  H    0.089486
 Sum of Mulliken charges =   0.00000

 Dipole moment (field-independent basis, Debye):
    X=             -0.1231    Y=             -1.5152    Z=              1.6029  Tot=              2.2092
 Quadrupole moment (field-independent basis, Debye-Ang):
   XX=            -57.7954   YY=            -51.8773   ZZ=            -52.0950
   XY=             -5.0946   XZ=             -2.1522   YZ=              0.8281

  Exact polarizability:  90.550  -3.707  71.825  -3.931   1.440  66.127
 Approx polarizability: 112.540  -1.998 110.751  -6.389   1.129 102.970

                      1                      2                      3
                      A                      A                      A
 Frequencies --     70.0988               134.0494               148.6701
 Red. masses --      3.3651                 5.3687                 3.4644
 Frc consts  --      0.0097                 0.0568                 0.0451
 IR Inten    --      2.0651                 1.5351                 2.9010

                      4                      5                      6
                      A                      A                      A
 Frequencies --    254.3469               307.6903               341.2611
 Red. masses --      2.4300                 2.1802                 4.0836
 Frc consts  --      0.0926                 0.1216                 0.2802
 IR Inten    --      8.4538                 1.1143                 1.3142

                      7                      8                      9
                      A                      A                      A
 Frequencies --    401.4836               464.7447               668.3541
 Red. masses --      2.5213                 3.5497                 3.9985
 Frc consts  --      0.2394                 0.4517                 1.0523
 IR Inten    --      1.4229                 8.9448                 0.3217

                     10                     11                     12
                      A                      A                      A
 Frequencies --    733.9391               815.8729               845.2433
 Red. masses --      5.2589                 1.7674                 4.0549
 Frc consts  --      1.6690                 0.6932                 1.7068
 IR Inten    --      6.2508                 2.9918                23.6270

                     13                     14                     15
                      A                      A                      A
 Frequencies --    862.8767               880.7615               917.5938
 Red. masses --      1.8712                 3.8034                 2.8157
 Frc consts  --      0.8209                 1.7383                 1.3968
 IR Inten    --     11.3044                 5.5141                23.3122

                     16                     17                     18
                      A                      A                      A
 Frequencies --    926.1228               978.5330               990.2044
 Red. masses --      4.2035                 1.5940                 1.7315
 Frc consts  --      2.1242                 0.8993                 1.0003
 IR Inten    --     12.6277                10.9815                 5.1146

                     19                     20                     21
                      A                      A                      A
 Frequencies --   1000.4368              1018.7123              1087.8849
 Red. masses --      2.0367                 1.7148                 1.4625
 Frc consts  --      1.2011                 1.0485                 1.0198
 IR Inten    --     14.7604                 9.0816                 8.1361

                     22                     23                     24
                      A                      A                      A
 Frequencies --   1097.1711              1100.4863              1111.2565
 Red. masses --      1.5361                 1.7554                 2.4073
 Frc consts  --      1.0895                 1.2525                 1.7515
 IR Inten    --      4.9483                 9.8329                49.8680

                     25                     26                     27
                      A                      A                      A
 Frequencies --   1122.9195              1150.2215              1161.0332
 Red. masses --      1.6660                 1.5468                 1.3675
 Frc consts  --      1.2377                 1.2057                 1.0861
 IR Inten    --      1.5685                 1.6856                 5.6993

                     28                     29                     30
                      A                      A                      A
 Frequencies --   1174.4227              1205.7276              1220.2173
 Red. masses --      1.3987                 2.4352                 1.1202
 Frc consts  --      1.1366                 2.0859                 0.9827
 IR Inten    --      2.5254                 9.6259                12.2324

                     31                     32                     33
                      A                      A                      A
 Frequencies --   1241.2722              1269.5375              1296.4220
 Red. masses --      1.2552                 1.2919                 1.5747
 Frc consts  --      1.1394                 1.2268                 1.5594
 IR Inten    --      1.1858                 4.6739                 6.3543

                     34                     35                     36
                      A                      A                      A
 Frequencies --   1313.1062              1352.2594              1369.8728
 Red. masses --      1.6573                 1.3182                 1.9432
 Frc consts  --      1.6837                 1.4202                 2.1485
 IR Inten    --      1.2744                 0.2642                26.0633

                     37                     38                     39
                      A                      A                      A
 Frequencies --   1418.6950              1479.7139              1509.6117
 Red. masses --      1.5726                 1.9134                 1.0860
 Frc consts  --      1.8649                 2.4684                 1.4582
 IR Inten    --      2.7670                16.2993                 0.4200

                     40                     41                     42
                      A                      A                      A
 Frequencies --   1521.6630              1532.7300              2968.5330
 Red. masses --      1.0981                 1.4798                 1.0696
 Frc consts  --      1.4981                 2.0482                 5.5533
 IR Inten    --      0.1147                 8.2805                66.0251

                     43                     44                     45
                      A                      A                      A
 Frequencies --   2974.4947              3067.3040              3072.4917
 Red. masses --      1.0715                 1.0918                 1.0932
 Frc consts  --      5.5855                 6.0520                 6.0802
 IR Inten    --    105.1144                35.4545                27.7989

                     46                     47                     48
                      A                      A                      A
 Frequencies --   3077.0173              3082.1877              3142.5622
 Red. masses --      1.0566                 1.0807                 1.0886
 Frc consts  --      5.8944                 6.0488                 6.3340
 IR Inten    --     32.2235                18.9905                 4.6713

                     49                     50                     51
                      A                      A                      A
 Frequencies --   3164.3084              3173.7471              3183.2237
 Red. masses --      1.1192                 1.0887                 1.0929
 Frc consts  --      6.6027                 6.4608                 6.5250
 IR Inten    --     29.4404                 9.4724                13.0469

 - Thermochemistry -
 -------------------
 Temperature   298.150 Kelvin.  Pressure   1.00000 Atm.
 Atom     1 has atomic number  6 and mass  12.00000

 Molecular mass:   126.06808 amu.
 Principal axes and moments of inertia in atomic units:
                           1         2         3
     Eigenvalues --   422.121291882.256742018.07749
           X            0.99986  -0.01555  -0.00649
           Y            0.01571   0.99957   0.02474
           Z            0.00610  -0.02484   0.99967
 This molecule is an asymmetric top.
 Rotational symmetry number  1.
 Rotational temperatures (Kelvin)      0.20519     0.04602     0.04292
 Rotational constants (GHZ):           4.27541     0.95882     0.89429
 Zero-point vibrational energy     421104.0 (Joules/Mol)
                                  100.64627 (Kcal/Mol)
 Warning -- explicit consideration of   8 degrees of freedom as
           vibrations may cause significant error
 Vibrational temperatures:    100.86   192.87   213.90   365.95   442.70
          (Kelvin)            491.00   577.64   668.66   961.61  1055.97
                             1173.86  1216.12  1241.49  1267.22  1320.21
                             1332.48  1407.89  1424.68  1439.40  1465.70
                             1565.22  1578.58  1583.35  1598.85  1615.63
                             1654.91  1670.47  1689.73  1734.77  1755.62
                             1785.91  1826.58  1865.26  1889.26  1945.60
                             1970.94  2041.18  2128.98  2171.99  2189.33
                             2205.25  4271.05  4279.63  4413.16  4420.62
                             4427.14  4434.58  4521.44  4552.73  4566.31
                             4579.94

 Zero-point correction=                           0.160390 (Hartree/Particle)
 Thermal correction to Energy=                    0.168195
 Thermal correction to Enthalpy=                  0.169139
 Thermal correction to Gibbs Free Energy=         0.127483
 Sum of electronic and zero-point Energies=           -422.989863
 Sum of electronic and thermal Energies=              -422.982058
 Sum of electronic and thermal Enthalpies=            -422.981114
 Sum of electronic and thermal Free Energies=         -423.022771

                     E (Thermal)             CV                S
                      KCal/Mol        Cal/Mol-Kelvin    Cal/Mol-Kelvin
 Total                  105.544             29.698             87.674
 Electronic               0.000              0.000              0.000
 Translational            0.889              2.981             40.409
 Rotational               0.889              2.981             28.863
 Vibrational            103.767             23.737             18.403
 Vibration     1          0.598              1.968              4.151
 Vibration     2          0.613              1.919              2.887
 Vibration     3          0.618              1.904              2.689
 Vibration     4          0.665              1.755              1.700
 Vibration     5          0.698              1.659              1.375
 Vibration     6          0.721              1.593              1.206
 Vibration     7          0.767              1.467              0.957
 Vibration     8          0.822              1.328              0.752

 Optimization completed.
    -- Stationary point found.
 Normal termination of Gaussian 09 at Mon Jan 27 12:44:39 2020.
