 Gaussian 09, Revision D.01,
 Gaussian 09:  ES64L-G09RevD.01 24-Apr-2013

 -----------------------------
 # b3lyp 6-31G(2df,p) opt Freq
 -----------------------------

 -----
 titel
 -----
 Symbolic Z-matrix:
 Charge =  0 Multiplicity = 1

 SCF Done:  E(RB3LYP) =  -423.173927297     A.U. after   14 cycles
 Optimization completed.
    -- Stationary point found.
 Normal termination of Gaussian 09 at Mon Jan 27 22:15:03 2020.

 ----------------------------------------------------------------------
 #N Geom=AllCheck Guess=TCheck SCRF=Check GenChk RB3LYP/6-31G(2df,p) Fr
 eq
 ----------------------------------------------------------------------

 Structure from the checkpoint file:  "/scratch/puck/g09_c681c3f1-7d5e-4089-a428-57ab16bf95c9/Gau-28619.chk"
 -----
 titel
 -----
 Charge =  0 Multiplicity = 1

                         Standard orientation:
 ---------------------------------------------------------------------
 Center     Atomic      Atomic             Coordinates (Angstroms)
 Number     Number       Type             X           Y           Z
 ---------------------------------------------------------------------
      1          6           0        1.016358    0.723433    1.429392
      2          6           0        1.184372    0.028631    0.087910
      3          6           0        2.644374   -0.201565   -0.278714
      4          6           0        0.286307    0.251850   -1.086321
      5          6           0        0.272180   -1.127733   -0.346944
      6          6           0       -1.132177   -0.854164    0.088258
      7          8           0       -1.969570   -1.461217    0.697325
      8          6           0       -1.175289    0.482326   -0.713899
      9          8           0       -1.501550    1.704521   -0.098843
     10          1           0        1.440650    0.105999    2.228984
     11          1           0        1.553054    1.678909    1.424746
     12          1           0       -0.025190    0.936199    1.666564
     13          1           0        2.748423   -0.714367   -1.239518
     14          1           0        3.173550    0.755357   -0.345281
     15          1           0        3.145760   -0.806491    0.484139
     16          1           0        0.686497    0.438453   -2.075338
     17          1           0        0.687155   -2.083555   -0.642673
     18          1           0       -1.811953    0.293601   -1.595157
     19          1           0       -2.405734    1.632792    0.227586
 ---------------------------------------------------------------------

 SCF Done:  E(RB3LYP) =  -423.173927297     A.U. after    1 cycles

 The electronic state is 1-A.
 Alpha  occ. eigenvalues --  -19.14931 -19.13228 -10.26563 -10.24420 -10.22173
 Alpha  occ. eigenvalues --  -10.20916 -10.20432 -10.18794 -10.17649  -1.04541
 Alpha  occ. eigenvalues --   -1.02801  -0.90878  -0.77193  -0.69914  -0.67907
 Alpha  occ. eigenvalues --   -0.64021  -0.54921  -0.54380  -0.51791  -0.47571
 Alpha  occ. eigenvalues --   -0.46677  -0.43710  -0.42831  -0.41048  -0.40429
 Alpha  occ. eigenvalues --   -0.39657  -0.38504  -0.37474  -0.36160  -0.34484
 Alpha  occ. eigenvalues --   -0.30051  -0.29420  -0.28177  -0.22941
 Alpha virt. eigenvalues --   -0.01675   0.06587   0.09365   0.10380   0.11625
 Alpha virt. eigenvalues --    0.13530   0.13852   0.15204   0.16156   0.17167
 Alpha virt. eigenvalues --    0.17755   0.18272   0.19664   0.20619   0.21597

 Mulliken charges:
               1
     1  C   -0.450997
     2  C    0.309957
     3  C   -0.452451
     4  C   -0.111478
     5  C   -0.228426
     6  C    0.360495
     7  O   -0.327536
     8  C   -0.015545
     9  O   -0.425877
    10  H    0.115258
    11  H    0.118438
    12  H    0.140323
    13  H    0.116826
    14  H    0.125319
    15  H    0.124919
    16  H    0.098186
    17  H    0.107740
    18  H    0.099094
    19  H    0.295755
 Sum of Mulliken charges =   0.00000

 Dipole moment (field-independent basis, Debye):
    X=              1.5972    Y=              0.6339    Z=             -1.4073  Tot=              2.2211
 Quadrupole moment (field-independent basis, Debye-Ang):
   XX=            -51.2697   YY=            -57.8457   ZZ=            -52.1571
   XY=             -5.3020   XZ=              1.8949   YZ=              2.8822

  Exact polarizability:  90.103   1.276  71.583  -1.219  -0.716  68.855
 Approx polarizability: 125.383   6.975 113.578  -6.942  -6.848 104.971

                      1                      2                      3
                      A                      A                      A
 Frequencies --    107.9922               163.3817               178.9691
 Red. masses --      4.7193                 2.6227                 1.5060
 Frc consts  --      0.0324                 0.0412                 0.0284
 IR Inten    --      3.0775                12.5814                 8.8801

                      4                      5                      6
                      A                      A                      A
 Frequencies --    206.4540               209.5401               247.6576
 Red. masses --      1.7444                 1.8288                 1.2252
 Frc consts  --      0.0438                 0.0473                 0.0443
 IR Inten    --     16.8279                 1.1814                 8.2202

                      7                      8                      9
                      A                      A                      A
 Frequencies --    287.4659               343.1933               364.6410
 Red. masses --      1.7469                 3.4728                 2.5689
 Frc consts  --      0.0851                 0.2410                 0.2012
 IR Inten    --     80.2446                 2.1805                 1.3724

                     10                     11                     12
                      A                      A                      A
 Frequencies --    403.4277               506.8514               543.4621
 Red. masses --      2.4611                 3.8794                 4.4904
 Frc consts  --      0.2360                 0.5872                 0.7814
 IR Inten    --      0.2127                 5.1335                 4.3213

                     13                     14                     15
                      A                      A                      A
 Frequencies --    651.9423               665.8053               708.7203
 Red. masses --      4.6093                 3.7470                 4.3179
 Frc consts  --      1.1543                 0.9787                 1.2778
 IR Inten    --      2.7052                17.0234                 4.5539

                     16                     17                     18
                      A                      A                      A
 Frequencies --    823.8963               844.2599               911.3449
 Red. masses --      4.0069                 1.7357                 2.4030
 Frc consts  --      1.6025                 0.7289                 1.1759
 IR Inten    --     18.8266                 9.2372                 2.4019

                     19                     20                     21
                      A                      A                      A
 Frequencies --    923.9260               974.8888               983.3791
 Red. masses --      2.0733                 1.4292                 2.2211
 Frc consts  --      1.0428                 0.8003                 1.2655
 IR Inten    --     18.7701                 2.7980                12.2562

                     22                     23                     24
                      A                      A                      A
 Frequencies --   1004.5346              1033.3640              1046.0917
 Red. masses --      1.7320                 1.3240                 1.5219
 Frc consts  --      1.0298                 0.8330                 0.9813
 IR Inten    --     13.3085                 0.5301                 3.3996

                     25                     26                     27
                      A                      A                      A
 Frequencies --   1099.5644              1121.7384              1143.1765
 Red. masses --      2.8122                 1.4994                 1.8569
 Frc consts  --      2.0033                 1.1116                 1.4298
 IR Inten    --     56.8807                 4.0273                14.2635

                     28                     29                     30
                      A                      A                      A
 Frequencies --   1162.3579              1221.3667              1267.7802
 Red. masses --      3.2936                 1.5141                 2.1055
 Frc consts  --      2.6218                 1.3308                 1.9938
 IR Inten    --     79.5866                10.2561                12.3350

                     31                     32                     33
                      A                      A                      A
 Frequencies --   1297.0970              1302.4211              1394.0703
 Red. masses --      1.6223                 1.6421                 3.0589
 Frc consts  --      1.6081                 1.6412                 3.5025
 IR Inten    --     43.5788                 4.5065                13.2393

                     34                     35                     36
                      A                      A                      A
 Frequencies --   1410.6060              1413.9101              1433.5538
 Red. masses --      1.3308                 1.5278                 1.2165
 Frc consts  --      1.5602                 1.7995                 1.4730
 IR Inten    --      5.0528                 3.4351                 0.9344

                     37                     38                     39
                      A                      A                      A
 Frequencies --   1478.4849              1489.9723              1500.2597
 Red. masses --      1.0461                 1.0513                 1.0462
 Frc consts  --      1.3473                 1.3751                 1.3874
 IR Inten    --      1.5330                 4.7176                 8.4610

                     40                     41                     42
                      A                      A                      A
 Frequencies --   1512.5009              1876.1241              2964.2839
 Red. masses --      1.1141                12.5445                 1.0819
 Frc consts  --      1.5017                26.0151                 5.6011
 IR Inten    --      0.4547               323.3964                42.6984

                     43                     44                     45
                      A                      A                      A
 Frequencies --   3029.4468              3035.3364              3089.4783
 Red. masses --      1.0360                 1.0395                 1.1010
 Frc consts  --      5.6019                 5.6426                 6.1917
 IR Inten    --     18.0126                37.3030                 8.3196

                     46                     47                     48
                      A                      A                      A
 Frequencies --   3096.5142              3107.6385              3155.6138
 Red. masses --      1.1009                 1.1018                 1.0963
 Frc consts  --      6.2192                 6.2691                 6.4320
 IR Inten    --     29.3849                22.8317                 6.9780

                     49                     50                     51
                      A                      A                      A
 Frequencies --   3187.0447              3195.4159              3804.7229
 Red. masses --      1.0899                 1.0960                 1.0658
 Frc consts  --      6.5227                 6.5933                 9.0905
 IR Inten    --      8.7717                 6.4496                35.5911

 - Thermochemistry -
 -------------------
 Temperature   298.150 Kelvin.  Pressure   1.00000 Atm.
 Atom     1 has atomic number  6 and mass  12.00000

 Molecular mass:   126.06808 amu.
 Principal axes and moments of inertia in atomic units:
                           1         2         3
     Eigenvalues --   721.325321288.947861481.89277
           X            0.99944  -0.03138   0.01146
           Y            0.03028   0.99581   0.08632
           Z           -0.01412  -0.08593   0.99620
 This molecule is an asymmetric top.
 Rotational symmetry number  1.
 Warning -- assumption of classical behavior for rotation
           may cause significant error
 Rotational temperatures (Kelvin)      0.12008     0.06720     0.05845
 Rotational constants (GHZ):           2.50198     1.40017     1.21786
 Zero-point vibrational energy     412267.0 (Joules/Mol)
                                   98.53419 (Kcal/Mol)
 Warning -- explicit consideration of  12 degrees of freedom as
           vibrations may cause significant error
 Vibrational temperatures:    155.38   235.07   257.50   297.04   301.48
          (Kelvin)            356.32   413.60   493.78   524.64   580.44
                              729.25   781.92   938.00   957.94  1019.69
                             1185.40  1214.70  1311.22  1329.32  1402.65
                             1414.86  1445.30  1486.78  1505.09  1582.03
                             1613.93  1644.77  1672.37  1757.27  1824.05
                             1866.23  1873.89  2005.75  2029.54  2034.30
                             2062.56  2127.21  2143.74  2158.54  2176.15
                             2699.32  4264.94  4358.69  4367.17  4445.06
                             4455.19  4471.19  4540.22  4585.44  4597.49
                             5474.14

 Zero-point correction=                           0.157024 (Hartree/Particle)
 Thermal correction to Energy=                    0.166224
 Thermal correction to Enthalpy=                  0.167168
 Thermal correction to Gibbs Free Energy=         0.123628
 Sum of electronic and zero-point Energies=           -423.016903
 Sum of electronic and thermal Energies=              -423.007704
 Sum of electronic and thermal Enthalpies=            -423.006760
 Sum of electronic and thermal Free Energies=         -423.050299

                     E (Thermal)             CV                S
                      KCal/Mol        Cal/Mol-Kelvin    Cal/Mol-Kelvin
 Total                  104.307             34.791             91.636
 Electronic               0.000              0.000              0.000
 Translational            0.889              2.981             40.409
 Rotational               0.889              2.981             28.712
 Vibrational            102.529             28.829             22.516
 Vibration     1          0.606              1.943              3.305
 Vibration     2          0.623              1.887              2.510
 Vibration     3          0.629              1.868              2.339
 Vibration     4          0.641              1.831              2.075
 Vibration     5          0.642              1.826              2.048
 Vibration     6          0.661              1.767              1.747
 Vibration     7          0.685              1.697              1.489
 Vibration     8          0.722              1.589              1.197
 Vibration     9          0.738              1.545              1.102
 Vibration    10          0.769              1.463              0.950
 Vibration    11          0.862              1.235              0.641
 Vibration    12          0.899              1.154              0.558

 Normal termination of Gaussian 09 at Tue Jan 28 00:26:20 2020.
