 Gaussian 09, Revision D.01,
 Gaussian 09:  ES64L-G09RevD.01 24-Apr-2013

 -----------------------------
 # b3lyp 6-31G(2df,p) opt Freq
 -----------------------------

 -----
 titel
 -----
 Symbolic Z-matrix:
 Charge =  0 Multiplicity = 1

 SCF Done:  E(RB3LYP) =  -423.158478753     A.U. after   13 cycles
 Optimization completed.
    -- Stationary point found.
 Normal termination of Gaussian 09 at Mon Jan 27 11:19:03 2020.

 ----------------------------------------------------------------------
 #N Geom=AllCheck Guess=TCheck SCRF=Check GenChk RB3LYP/6-31G(2df,p) Fr
 eq
 ----------------------------------------------------------------------

 Structure from the checkpoint file:  "/scratch/puck/g09_02e2b329-41ac-4047-aece-869fef9364af/Gau-42018.chk"
 -----
 titel
 -----
 Charge =  0 Multiplicity = 1

                         Standard orientation:
 ---------------------------------------------------------------------
 Center     Atomic      Atomic             Coordinates (Angstroms)
 Number     Number       Type             X           Y           Z
 ---------------------------------------------------------------------
      1          6           0       -1.854789   -0.116453    0.543600
      2          6           0       -0.945765    1.038068    0.050157
      3          8           0       -0.873945    0.340069   -1.230593
      4          6           0       -0.976680   -0.895223   -0.466668
      5          6           0        0.461675   -1.193995    0.115057
      6          6           0        0.656208   -0.365412    1.391069
      7          6           0        0.490310    0.996469    0.683539
      8          6           0        1.521617    0.780198   -0.447831
      9          8           0        1.445494   -0.630685   -0.753631
     10          1           0       -1.905787   -0.398211    1.594729
     11          1           0       -2.860684    0.010630    0.141958
     12          1           0       -1.348159    2.048253   -0.053092
     13          1           0       -1.393486   -1.715025   -1.055048
     14          1           0        0.657538   -2.264657    0.203811
     15          1           0       -0.047678   -0.558892    2.197687
     16          1           0        1.669597   -0.500215    1.780085
     17          1           0        0.700881    1.871166    1.301936
     18          1           0        1.303346    1.355288   -1.350174
     19          1           0        2.536587    1.014679   -0.101637
 ---------------------------------------------------------------------

 SCF Done:  E(RB3LYP) =  -423.158478753     A.U. after    1 cycles

 The electronic state is 1-A.
 Alpha  occ. eigenvalues --  -19.13117 -19.12675 -10.23988 -10.23492 -10.23012
 Alpha  occ. eigenvalues --  -10.21864 -10.19450 -10.19071 -10.18318  -1.05451
 Alpha  occ. eigenvalues --   -1.01193  -0.80304  -0.75665  -0.72027  -0.66165
 Alpha  occ. eigenvalues --   -0.62301  -0.56698  -0.53788  -0.52501  -0.50026
 Alpha  occ. eigenvalues --   -0.47174  -0.43367  -0.42441  -0.40615  -0.39673
 Alpha  occ. eigenvalues --   -0.38616  -0.37429  -0.35799  -0.35111  -0.31971
 Alpha  occ. eigenvalues --   -0.30459  -0.29345  -0.24958  -0.23516
 Alpha virt. eigenvalues --    0.07394   0.09055   0.10847   0.12272   0.13475
 Alpha virt. eigenvalues --    0.13776   0.15342   0.15644   0.16361   0.16682
 Alpha virt. eigenvalues --    0.17885   0.18703   0.19449   0.20321   0.21447

 Mulliken charges:
               1
     1  C   -0.244403
     2  C    0.071449
     3  O   -0.266832
     4  C    0.058845
     5  C    0.093195
     6  C   -0.234930
     7  C   -0.074279
     8  C   -0.058288
     9  O   -0.262709
    10  H    0.099444
    11  H    0.113299
    12  H    0.078901
    13  H    0.080564
    14  H    0.072882
    15  H    0.100329
    16  H    0.102204
    17  H    0.068799
    18  H    0.113518
    19  H    0.088012
 Sum of Mulliken charges =   0.00000

 Dipole moment (field-independent basis, Debye):
    X=             -0.9303    Y=              0.3699    Z=              2.5000  Tot=              2.6930
 Quadrupole moment (field-independent basis, Debye-Ang):
   XX=            -53.4180   YY=            -49.6284   ZZ=            -55.9315
   XY=              2.4595   XZ=              0.5568   YZ=             -0.1114

  Exact polarizability:  77.427   2.642  73.501   0.492  -0.315  66.328
 Approx polarizability: 106.684   2.159 111.133  -0.981  -0.271 105.381

                      1                      2                      3
                      A                      A                      A
 Frequencies --    269.0158               367.3874               379.1465
 Red. masses --      3.5254                 2.6334                 5.2115
 Frc consts  --      0.1503                 0.2094                 0.4414
 IR Inten    --      2.3387                 3.7408                 1.6492

                      4                      5                      6
                      A                      A                      A
 Frequencies --    480.8753               507.0951               517.4465
 Red. masses --      2.3373                 3.4681                 2.8978
 Frc consts  --      0.3184                 0.5254                 0.4571
 IR Inten    --      0.4789                 0.5122                 1.6363

                      7                      8                      9
                      A                      A                      A
 Frequencies --    571.2055               734.6182               756.9368
 Red. masses --      4.2709                 3.0882                 3.1447
 Frc consts  --      0.8210                 0.9819                 1.0616
 IR Inten    --     12.4889                 3.6363                 2.3104

                     10                     11                     12
                      A                      A                      A
 Frequencies --    785.2543               836.6087               872.0531
 Red. masses --      4.3163                 3.4519                 2.4333
 Frc consts  --      1.5681                 1.4235                 1.0902
 IR Inten    --      8.7320                 4.8672                 8.9061

                     13                     14                     15
                      A                      A                      A
 Frequencies --    890.8655               896.7786               910.5817
 Red. masses --      2.8625                 2.1591                 3.5777
 Frc consts  --      1.3385                 1.0231                 1.7478
 IR Inten    --     16.2480                 3.1564                 4.8608

                     16                     17                     18
                      A                      A                      A
 Frequencies --    926.4019               939.3046               947.9073
 Red. masses --      2.1866                 3.6285                 2.4442
 Frc consts  --      1.1057                 1.8862                 1.2940
 IR Inten    --     12.3225                49.9520                 3.8822

                     19                     20                     21
                      A                      A                      A
 Frequencies --    977.2863              1009.5572              1035.2963
 Red. masses --      1.9243                 2.5488                 1.8553
 Frc consts  --      1.0828                 1.5306                 1.1716
 IR Inten    --     15.9695                15.2993                 6.2367

                     22                     23                     24
                      A                      A                      A
 Frequencies --   1068.6723              1080.2479              1087.0476
 Red. masses --      1.8483                 2.0263                 1.4131
 Frc consts  --      1.2437                 1.3931                 0.9838
 IR Inten    --     29.9239                30.1817                 3.7988

                     25                     26                     27
                      A                      A                      A
 Frequencies --   1119.2786              1137.4995              1181.5551
 Red. masses --      2.5833                 1.1836                 1.4513
 Frc consts  --      1.9068                 0.9023                 1.1938
 IR Inten    --      9.5322                 0.3824                 7.2917

                     28                     29                     30
                      A                      A                      A
 Frequencies --   1206.0109              1234.3614              1244.3066
 Red. masses --      1.2051                 1.4854                 1.5439
 Frc consts  --      1.0327                 1.3335                 1.4084
 IR Inten    --      4.8880                 2.2025                 4.0055

                     31                     32                     33
                      A                      A                      A
 Frequencies --   1280.6683              1292.4535              1310.6256
 Red. masses --      1.5533                 1.3606                 1.5762
 Frc consts  --      1.5010                 1.3391                 1.5952
 IR Inten    --      0.5444                 1.5689                 2.6813

                     34                     35                     36
                      A                      A                      A
 Frequencies --   1314.8880              1319.8468              1336.5370
 Red. masses --      1.5560                 1.3182                 1.4396
 Frc consts  --      1.5850                 1.3529                 1.5152
 IR Inten    --      2.0327                 0.6585                 5.5169

                     37                     38                     39
                      A                      A                      A
 Frequencies --   1357.2276              1384.0509              1485.4930
 Red. masses --      1.3847                 1.3799                 1.1274
 Frc consts  --      1.5029                 1.5574                 1.4658
 IR Inten    --      4.8178                 1.3084                 3.6401

                     40                     41                     42
                      A                      A                      A
 Frequencies --   1510.9917              1532.6092              3018.4005
 Red. masses --      1.0953                 1.0969                 1.0677
 Frc consts  --      1.4733                 1.5180                 5.7313
 IR Inten    --      1.9699                 3.7518                69.6461

                     43                     44                     45
                      A                      A                      A
 Frequencies --   3066.8807              3081.1149              3085.7455
 Red. masses --      1.0684                 1.0788                 1.0830
 Frc consts  --      5.9207                 6.0338                 6.0760
 IR Inten    --     17.5723                24.7657                 9.5767

                     46                     47                     48
                      A                      A                      A
 Frequencies --   3090.4333              3097.8842              3100.0349
 Red. masses --      1.0765                 1.0869                 1.0975
 Frc consts  --      6.0577                 6.1455                 6.2142
 IR Inten    --     30.1405               127.1997                23.9740

                     49                     50                     51
                      A                      A                      A
 Frequencies --   3104.3271              3137.1043              3155.2690
 Red. masses --      1.0904                 1.1049                 1.0985
 Frc consts  --      6.1909                 6.4064                 6.4436
 IR Inten    --      8.4739                22.3815                33.5247

 - Thermochemistry -
 -------------------
 Temperature   298.150 Kelvin.  Pressure   1.00000 Atm.
 Atom     1 has atomic number  6 and mass  12.00000

 Molecular mass:   126.06808 amu.
 Principal axes and moments of inertia in atomic units:
                           1         2         3
     Eigenvalues --   622.38167 932.01239 942.25321
           X            0.99911   0.03935  -0.01524
           Y           -0.04220   0.93078  -0.36312
           Z           -0.00010   0.36344   0.93162
 This molecule is an asymmetric top.
 Rotational symmetry number  1.
 Warning -- assumption of classical behavior for rotation
           may cause significant error
 Rotational temperatures (Kelvin)      0.13917     0.09293     0.09192
 Rotational constants (GHZ):           2.89973     1.93639     1.91535
 Zero-point vibrational energy     430854.1 (Joules/Mol)
                                  102.97661 (Kcal/Mol)
 Warning -- explicit consideration of   7 degrees of freedom as
           vibrations may cause significant error
 Vibrational temperatures:    387.05   528.59   545.51   691.87   729.60
          (Kelvin)            744.49   821.84  1056.95  1089.06  1129.80
                             1203.69  1254.69  1281.76  1290.26  1310.12
                             1332.88  1351.45  1363.83  1406.10  1452.53
                             1489.56  1537.58  1554.23  1564.02  1610.39
                             1636.61  1699.99  1735.18  1775.97  1790.28
                             1842.59  1859.55  1885.70  1891.83  1898.96
                             1922.98  1952.75  1991.34  2137.29  2173.98
                             2205.08  4342.80  4412.55  4433.03  4439.69
                             4446.44  4457.16  4460.25  4466.43  4513.59
                             4539.72

 Zero-point correction=                           0.164104 (Hartree/Particle)
 Thermal correction to Energy=                    0.170013
 Thermal correction to Enthalpy=                  0.170957
 Thermal correction to Gibbs Free Energy=         0.134263
 Sum of electronic and zero-point Energies=           -422.994375
 Sum of electronic and thermal Energies=              -422.988466
 Sum of electronic and thermal Enthalpies=            -422.987522
 Sum of electronic and thermal Free Energies=         -423.024216

                     E (Thermal)             CV                S
                      KCal/Mol        Cal/Mol-Kelvin    Cal/Mol-Kelvin
 Total                  106.685             26.342             77.230
 Electronic               0.000              0.000              0.000
 Translational            0.889              2.981             40.409
 Rotational               0.889              2.981             27.793
 Vibrational            104.907             20.381              9.028
 Vibration     1          0.673              1.730              1.603
 Vibration     2          0.740              1.539              1.091
 Vibration     3          0.749              1.515              1.043
 Vibration     4          0.837              1.292              0.708
 Vibration     5          0.862              1.234              0.641
 Vibration     6          0.872              1.211              0.616
 Vibration     7          0.927              1.094              0.502

 Optimization completed.
    -- Stationary point found.
 Normal termination of Gaussian 09 at Mon Jan 27 12:10:25 2020.
