 Gaussian 09, Revision D.01,
 Gaussian 09:  ES64L-G09RevD.01 24-Apr-2013

 -----------------------------
 # b3lyp 6-31G(2df,p) opt Freq
 -----------------------------

 -----
 titel
 -----
 Symbolic Z-matrix:
 Charge =  0 Multiplicity = 1

 SCF Done:  E(RB3LYP) =  -423.171900914     A.U. after   14 cycles
 Optimization completed.
    -- Stationary point found.
 Normal termination of Gaussian 09 at Tue Jan 28 12:46:29 2020.

 ----------------------------------------------------------------------
 #N Geom=AllCheck Guess=TCheck SCRF=Check GenChk RB3LYP/6-31G(2df,p) Fr
 eq
 ----------------------------------------------------------------------

 Structure from the checkpoint file:  "/scratch/puck/g09_604c69ab-56e6-4892-865f-f131c7917e21/Gau-10507.chk"
 -----
 titel
 -----
 Charge =  0 Multiplicity = 1

                         Standard orientation:
 ---------------------------------------------------------------------
 Center     Atomic      Atomic             Coordinates (Angstroms)
 Number     Number       Type             X           Y           Z
 ---------------------------------------------------------------------
      1          6           0        2.755399   -1.061831    0.116038
      2          6           0        1.445148   -0.558717   -0.484224
      3          6           0        0.147397   -0.949728    0.254415
      4          6           0       -1.016776   -0.284863   -0.382268
      5          6           0       -2.415403   -0.619654    0.092264
      6          8           0       -3.347886    0.410037   -0.181167
      7          6           0       -0.160258    0.535129    0.589952
      8          6           0        1.136150    0.908145   -0.058995
      9          8           0        1.805974    1.902843   -0.060042
     10          1           0        2.890331   -2.130915   -0.075329
     11          1           0        3.600543   -0.523371   -0.321172
     12          1           0        2.782165   -0.903089    1.199243
     13          1           0        1.418171   -0.749257   -1.563069
     14          1           0        0.053605   -1.787266    0.934505
     15          1           0       -0.963924   -0.041924   -1.442136
     16          1           0       -2.784603   -1.500601   -0.443508
     17          1           0       -2.391032   -0.875645    1.164352
     18          1           0       -3.025719    1.216190    0.235899
     19          1           0       -0.594192    0.981956    1.477792
 ---------------------------------------------------------------------

 SCF Done:  E(RB3LYP) =  -423.171900914     A.U. after    1 cycles

 The electronic state is 1-A.
 Alpha  occ. eigenvalues --  -19.14295 -19.13120 -10.26860 -10.24223 -10.21688
 Alpha  occ. eigenvalues --  -10.21559 -10.21019 -10.20403 -10.18734  -1.04166
 Alpha  occ. eigenvalues --   -1.02553  -0.91505  -0.77724  -0.71811  -0.64519
 Alpha  occ. eigenvalues --   -0.63610  -0.59251  -0.53168  -0.50849  -0.49821
 Alpha  occ. eigenvalues --   -0.46675  -0.45944  -0.44049  -0.41293  -0.41127
 Alpha  occ. eigenvalues --   -0.39520  -0.37954  -0.37626  -0.35370  -0.33620
 Alpha  occ. eigenvalues --   -0.31357  -0.28783  -0.27671  -0.24096
 Alpha virt. eigenvalues --   -0.01209   0.07010   0.08921   0.09509   0.10270
 Alpha virt. eigenvalues --    0.11107   0.13826   0.14816   0.15249   0.16512
 Alpha virt. eigenvalues --    0.16578   0.17048   0.18782   0.20543   0.21570

 Mulliken charges:
               1
     1  C   -0.410717
     2  C   -0.131633
     3  C   -0.070236
     4  C   -0.055887
     5  C   -0.092671
     6  O   -0.413868
     7  C   -0.194904
     8  C    0.414503
     9  O   -0.326615
    10  H    0.119496
    11  H    0.140081
    12  H    0.122290
    13  H    0.093473
    14  H    0.104833
    15  H    0.103168
    16  H    0.120679
    17  H    0.087844
    18  H    0.285948
    19  H    0.104215
 Sum of Mulliken charges =   0.00000

 Dipole moment (field-independent basis, Debye):
    X=             -0.3563    Y=             -2.4470    Z=              0.8853  Tot=              2.6265
 Quadrupole moment (field-independent basis, Debye-Ang):
   XX=            -62.3940   YY=            -55.7091   ZZ=            -51.2721
   XY=             -6.0940   XZ=             -2.7290   YZ=              1.0822

  Exact polarizability:  93.317   1.479  76.227  -1.615   1.592  62.091
 Approx polarizability: 119.482   8.421 123.607  -0.960   3.103  97.718

                      1                      2                      3
                      A                      A                      A
 Frequencies --     81.4812               117.4306               148.1514
 Red. masses --      3.6290                 5.3653                 3.4918
 Frc consts  --      0.0142                 0.0436                 0.0452
 IR Inten    --      3.6025                 1.7032                 3.3189

                      4                      5                      6
                      A                      A                      A
 Frequencies --    196.5944               213.7203               221.4233
 Red. masses --      1.8163                 1.7947                 1.5865
 Frc consts  --      0.0414                 0.0483                 0.0458
 IR Inten    --      2.1288                 4.9486                 1.9251

                      7                      8                      9
                      A                      A                      A
 Frequencies --    323.6586               336.2150               387.9996
 Red. masses --      2.7967                 1.4105                 3.1177
 Frc consts  --      0.1726                 0.0939                 0.2765
 IR Inten    --      6.4174                93.7416                14.9207

                     10                     11                     12
                      A                      A                      A
 Frequencies --    461.1875               510.7496               631.2491
 Red. masses --      3.8311                 3.3484                 4.7791
 Frc consts  --      0.4801                 0.5146                 1.1220
 IR Inten    --      7.2191                 1.3643                 2.2263

                     13                     14                     15
                      A                      A                      A
 Frequencies --    726.9022               782.3934               819.9846
 Red. masses --      3.0290                 3.1976                 2.5659
 Frc consts  --      0.9430                 1.1533                 1.0165
 IR Inten    --      3.6804                 9.2510                 7.4458

                     16                     17                     18
                      A                      A                      A
 Frequencies --    866.0569               883.0658               925.0390
 Red. masses --      1.4924                 2.3860                 3.0142
 Frc consts  --      0.6595                 1.0962                 1.5196
 IR Inten    --     10.5208                 3.2980                24.5627

                     19                     20                     21
                      A                      A                      A
 Frequencies --    966.8275              1007.4775              1033.3270
 Red. masses --      1.7145                 1.4713                 1.4911
 Frc consts  --      0.9442                 0.8799                 0.9380
 IR Inten    --     14.3140                13.6810                 9.0222

                     22                     23                     24
                      A                      A                      A
 Frequencies --   1056.1077              1071.0961              1096.3538
 Red. masses --      1.7521                 3.2887                 1.6857
 Frc consts  --      1.1514                 2.2229                 1.1938
 IR Inten    --     16.1847               132.1980                 5.2617

                     25                     26                     27
                      A                      A                      A
 Frequencies --   1104.4766              1119.8875              1144.2742
 Red. masses --      1.8925                 2.0907                 1.7634
 Frc consts  --      1.3602                 1.5448                 1.3604
 IR Inten    --     25.0430                 2.4432                 3.4441

                     28                     29                     30
                      A                      A                      A
 Frequencies --   1170.0841              1226.5625              1231.8320
 Red. masses --      1.6071                 1.6615                 1.5122
 Frc consts  --      1.2964                 1.4727                 1.3519
 IR Inten    --      2.0087                11.1306                 0.5934

                     31                     32                     33
                      A                      A                      A
 Frequencies --   1254.3181              1273.4786              1339.0707
 Red. masses --      1.7160                 1.4886                 1.5314
 Frc consts  --      1.5906                 1.4224                 1.6179
 IR Inten    --     21.1401                 1.6138                 0.7708

                     34                     35                     36
                      A                      A                      A
 Frequencies --   1364.2570              1406.2021              1412.0305
 Red. masses --      1.5235                 1.2389                 1.3286
 Frc consts  --      1.6706                 1.4434                 1.5607
 IR Inten    --      1.8389                 9.9721                33.3357

                     37                     38                     39
                      A                      A                      A
 Frequencies --   1436.1733              1493.3479              1496.8262
 Red. masses --      1.6831                 1.0462                 1.0486
 Frc consts  --      2.0454                 1.3747                 1.3842
 IR Inten    --     39.3640                 4.8331                 2.9136

                     40                     41                     42
                      A                      A                      A
 Frequencies --   1504.2991              1875.4871              2970.1774
 Red. masses --      1.0849                12.3787                 1.0710
 Frc consts  --      1.4464                25.6539                 5.5666
 IR Inten    --      0.9758               329.7799                49.8252

                     43                     44                     45
                      A                      A                      A
 Frequencies --   3037.0805              3042.5952              3071.2540
 Red. masses --      1.0352                 1.0837                 1.0909
 Frc consts  --      5.6260                 5.9107                 6.0625
 IR Inten    --     22.7437                17.5333                24.5436

                     46                     47                     48
                      A                      A                      A
 Frequencies --   3105.0806              3119.8014              3122.3125
 Red. masses --      1.1020                 1.1012                 1.0889
 Frc consts  --      6.2600                 6.3148                 6.2546
 IR Inten    --     25.2256                13.0864                18.0157

                     49                     50                     51
                      A                      A                      A
 Frequencies --   3175.0888              3196.3286              3809.4583
 Red. masses --      1.0918                 1.0941                 1.0660
 Frc consts  --      6.4848                 6.5859                 9.1148
 IR Inten    --      8.6665                 5.0948                13.4886

 - Thermochemistry -
 -------------------
 Temperature   298.150 Kelvin.  Pressure   1.00000 Atm.
 Atom     1 has atomic number  6 and mass  12.00000

 Molecular mass:   126.06808 amu.
 Principal axes and moments of inertia in atomic units:
                           1         2         3
     Eigenvalues --   511.515321867.496362227.53322
           X            0.99967  -0.02535  -0.00405
           Y            0.02536   0.99968   0.00168
           Z            0.00400  -0.00179   0.99999
 This molecule is an asymmetric top.
 Rotational symmetry number  1.
 Warning -- assumption of classical behavior for rotation
           may cause significant error
 Rotational temperatures (Kelvin)      0.16933     0.04638     0.03888
 Rotational constants (GHZ):           3.52823     0.96640     0.81020
 Zero-point vibrational energy     414902.5 (Joules/Mol)
                                   99.16407 (Kcal/Mol)
 Warning -- explicit consideration of  11 degrees of freedom as
           vibrations may cause significant error
 Vibrational temperatures:    117.23   168.96   213.16   282.86   307.50
          (Kelvin)            318.58   465.67   483.74   558.24   663.55
                              734.85   908.23  1045.85  1125.69  1179.77
                             1246.06  1270.53  1330.92  1391.05  1449.53
                             1486.73  1519.50  1541.07  1577.41  1589.09
                             1611.27  1646.35  1683.49  1764.75  1772.33
                             1804.68  1832.25  1926.62  1962.86  2023.21
                             2031.59  2066.33  2148.59  2153.60  2164.35
                             2698.40  4273.42  4369.68  4377.61  4418.84
                             4467.51  4488.69  4492.31  4568.24  4598.80
                             5480.95

 Zero-point correction=                           0.158028 (Hartree/Particle)
 Thermal correction to Energy=                    0.167134
 Thermal correction to Enthalpy=                  0.168079
 Thermal correction to Gibbs Free Energy=         0.123991
 Sum of electronic and zero-point Energies=           -423.013873
 Sum of electronic and thermal Energies=              -423.004767
 Sum of electronic and thermal Enthalpies=            -423.003822
 Sum of electronic and thermal Free Energies=         -423.047910

                     E (Thermal)             CV                S
                      KCal/Mol        Cal/Mol-Kelvin    Cal/Mol-Kelvin
 Total                  104.878             33.652             92.791
 Electronic               0.000              0.000              0.000
 Translational            0.889              2.981             40.409
 Rotational               0.889              2.981             29.144
 Vibrational            103.101             27.691             23.238
 Vibration     1          0.600              1.962              3.855
 Vibration     2          0.608              1.935              3.142
 Vibration     3          0.618              1.905              2.696
 Vibration     4          0.636              1.845              2.165
 Vibration     5          0.644              1.820              2.012
 Vibration     6          0.648              1.808              1.947
 Vibration     7          0.708              1.628              1.292
 Vibration     8          0.717              1.603              1.230
 Vibration     9          0.756              1.496              1.008
 Vibration    10          0.819              1.336              0.763
 Vibration    11          0.866              1.226              0.632

 Optimization completed.
    -- Stationary point found.
 Normal termination of Gaussian 09 at Tue Jan 28 14:34:58 2020.
