 Gaussian 09, Revision D.01,
 Gaussian 09:  ES64L-G09RevD.01 24-Apr-2013

 -----------------------------
 # b3lyp 6-31G(2df,p) opt Freq
 -----------------------------

 -----
 titel
 -----
 Symbolic Z-matrix:
 Charge =  0 Multiplicity = 1

 SCF Done:  E(RB3LYP) =  -423.126692770     A.U. after   14 cycles
 Optimization completed.
    -- Stationary point found.
 Normal termination of Gaussian 09 at Tue Jan 28 13:25:49 2020.

 ----------------------------------------------------------------------
 #N Geom=AllCheck Guess=TCheck SCRF=Check GenChk RB3LYP/6-31G(2df,p) Fr
 eq
 ----------------------------------------------------------------------

 Structure from the checkpoint file:  "/scratch/puck/g09_70feda71-4da4-41e9-935e-a28b880c86b0/Gau-118415.chk"
 -----
 titel
 -----
 Charge =  0 Multiplicity = 1

                         Standard orientation:
 ---------------------------------------------------------------------
 Center     Atomic      Atomic             Coordinates (Angstroms)
 Number     Number       Type             X           Y           Z
 ---------------------------------------------------------------------
      1          8           0        3.121802   -0.786338   -0.152574
      2          6           0        2.077398    0.163575   -0.303676
      3          6           0        0.915872   -0.096543    0.651981
      4          6           0       -0.020300   -1.263401    0.222442
      5          6           0       -1.010538   -0.215550   -0.385824
      6          6           0       -2.435559   -0.408456   -0.226616
      7          6           0       -3.615409   -0.575631   -0.062694
      8          6           0       -0.294918    0.872455    0.461311
      9          8           0       -0.102237    2.082823   -0.229502
     10          1           0        2.762573   -1.655133   -0.359212
     11          1           0        2.526107    1.137339   -0.085724
     12          1           0        1.722569    0.206420   -1.344743
     13          1           0        1.312519   -0.162992    1.668830
     14          1           0        0.379048   -2.003881   -0.476592
     15          1           0       -0.461441   -1.788779    1.071149
     16          1           0       -0.765108   -0.035470   -1.437659
     17          1           0       -4.658872   -0.719084    0.070779
     18          1           0       -0.827329    1.028013    1.407620
     19          1           0        0.154146    2.762992    0.400612
 ---------------------------------------------------------------------

 SCF Done:  E(RB3LYP) =  -423.126692771     A.U. after    1 cycles

 The electronic state is 1-A.
 Alpha  occ. eigenvalues --  -19.14844 -19.13336 -10.24279 -10.22548 -10.21134
 Alpha  occ. eigenvalues --  -10.19517 -10.18823 -10.17889 -10.17011  -1.03185
 Alpha  occ. eigenvalues --   -1.01396  -0.85618  -0.75492  -0.70606  -0.66309
 Alpha  occ. eigenvalues --   -0.64333  -0.56271  -0.54385  -0.52223  -0.50088
 Alpha  occ. eigenvalues --   -0.48584  -0.45234  -0.44359  -0.40808  -0.40317
 Alpha  occ. eigenvalues --   -0.37267  -0.35745  -0.35241  -0.32927  -0.31460
 Alpha  occ. eigenvalues --   -0.28486  -0.26347  -0.26021  -0.25118
 Alpha virt. eigenvalues --    0.04218   0.05124   0.06097   0.07981   0.10391
 Alpha virt. eigenvalues --    0.11319   0.13038   0.13726   0.14978   0.16131
 Alpha virt. eigenvalues --    0.18112   0.19022   0.19581   0.20322   0.22685

 Mulliken charges:
               1
     1  O   -0.424637
     2  C   -0.055770
     3  C   -0.087925
     4  C   -0.262694
     5  C   -0.163933
     6  C    0.290292
     7  C   -0.442093
     8  C    0.110697
     9  O   -0.422646
    10  H    0.281320
    11  H    0.106757
    12  H    0.094451
    13  H    0.075479
    14  H    0.097909
    15  H    0.117988
    16  H    0.116977
    17  H    0.193771
    18  H    0.084434
    19  H    0.289623
 Sum of Mulliken charges =   0.00000

 Dipole moment (field-independent basis, Debye):
    X=             -0.6048    Y=             -0.0737    Z=              1.1052  Tot=              1.2620
 Quadrupole moment (field-independent basis, Debye-Ang):
   XX=            -59.5743   YY=            -48.2326   ZZ=            -52.5091
   XY=              1.2044   XZ=             -1.6156   YZ=              4.2951

  Exact polarizability: 105.188   4.529  70.638  -1.043   0.654  59.329
 Approx polarizability: 145.849   7.398 101.329  -3.414  -0.043  92.136

                      1                      2                      3
                      A                      A                      A
 Frequencies --     69.5459                97.2352               138.7124
 Red. masses --      3.9188                 3.5546                 2.8258
 Frc consts  --      0.0112                 0.0198                 0.0320
 IR Inten    --      0.9433                 2.2001                 4.0828

                      4                      5                      6
                      A                      A                      A
 Frequencies --    166.8155               197.8188               232.6873
 Red. masses --      3.7317                 3.2933                 1.2488
 Frc consts  --      0.0612                 0.0759                 0.0398
 IR Inten    --      2.0330                20.7048                77.4513

                      7                      8                      9
                      A                      A                      A
 Frequencies --    268.3908               321.5460               347.6244
 Red. masses --      1.5579                 2.0551                 2.9750
 Frc consts  --      0.0661                 0.1252                 0.2118
 IR Inten    --     50.2780                60.7930                 5.8586

                     10                     11                     12
                      A                      A                      A
 Frequencies --    422.7348               463.4110               512.0440
 Red. masses --      3.2734                 5.4509                 3.5106
 Frc consts  --      0.3447                 0.6897                 0.5423
 IR Inten    --      2.5116                 7.6413                 3.8809

                     13                     14                     15
                      A                      A                      A
 Frequencies --    574.9230               618.7460               630.3500
 Red. masses --      3.8504                 1.2195                 1.2261
 Frc consts  --      0.7499                 0.2751                 0.2870
 IR Inten    --      6.2309                45.1702                43.6757

                     16                     17                     18
                      A                      A                      A
 Frequencies --    689.6797               816.5342               837.6122
 Red. masses --      4.2160                 2.1089                 2.5412
 Frc consts  --      1.1815                 0.8284                 1.0505
 IR Inten    --      1.9339                 0.5331                 2.6875

                     19                     20                     21
                      A                      A                      A
 Frequencies --    900.1340               921.6777               977.3144
 Red. masses --      1.5367                 1.9960                 4.1361
 Frc consts  --      0.7336                 0.9990                 2.3276
 IR Inten    --     10.2912                 2.6566                 9.1984

                     22                     23                     24
                      A                      A                      A
 Frequencies --   1030.0815              1060.6418              1071.3451
 Red. masses --      1.9208                 2.1381                 4.9011
 Frc consts  --      1.2008                 1.4172                 3.3144
 IR Inten    --     43.8871                20.1439                91.0394

                     25                     26                     27
                      A                      A                      A
 Frequencies --   1092.9194              1128.5659              1146.1282
 Red. masses --      2.1954                 2.3284                 1.8203
 Frc consts  --      1.5451                 1.7472                 1.4088
 IR Inten    --      3.9275                34.5581                62.7396

                     28                     29                     30
                      A                      A                      A
 Frequencies --   1198.7692              1207.1942              1230.1726
 Red. masses --      1.2991                 1.4131                 1.2755
 Frc consts  --      1.0999                 1.2134                 1.1373
 IR Inten    --      4.0883                 6.6502                 0.8819

                     31                     32                     33
                      A                      A                      A
 Frequencies --   1248.6587              1261.2421              1306.0290
 Red. masses --      1.2611                 1.4387                 1.4325
 Frc consts  --      1.1585                 1.3484                 1.4396
 IR Inten    --     39.1734                 3.7797                38.3764

                     34                     35                     36
                      A                      A                      A
 Frequencies --   1332.6218              1356.6009              1389.6126
 Red. masses --      1.4101                 1.4252                 1.2048
 Frc consts  --      1.4754                 1.5454                 1.3707
 IR Inten    --      5.1257                 1.0963                17.6117

                     37                     38                     39
                      A                      A                      A
 Frequencies --   1418.7200              1433.5504              1488.0367
 Red. masses --      1.3418                 1.3860                 1.1115
 Frc consts  --      1.5912                 1.6781                 1.4501
 IR Inten    --     47.5504                 7.2187                 4.3332

                     40                     41                     42
                      A                      A                      A
 Frequencies --   1501.4746              2234.1799              2990.0378
 Red. masses --      1.0969                 5.9804                 1.0704
 Frc consts  --      1.4569                17.5879                 5.6381
 IR Inten    --      1.1661                 4.6294                39.0387

                     43                     44                     45
                      A                      A                      A
 Frequencies --   3025.6393              3056.6629              3059.3174
 Red. masses --      1.0853                 1.0711                 1.0749
 Frc consts  --      5.8537                 5.8960                 5.9276
 IR Inten    --     26.2973                19.3380                21.5575

                     46                     47                     48
                      A                      A                      A
 Frequencies --   3068.6278              3084.3347              3123.2232
 Red. masses --      1.0854                 1.0936                 1.1034
 Frc consts  --      6.0218                 6.1295                 6.3413
 IR Inten    --     28.3876                42.1833                21.1952

                     49                     50                     51
                      A                      A                      A
 Frequencies --   3504.7541              3814.7435              3826.8694
 Red. masses --      1.1610                 1.0660                 1.0664
 Frc consts  --      8.4021                 9.1395                 9.2014
 IR Inten    --     74.0333                11.7334                32.4986

 - Thermochemistry -
 -------------------
 Temperature   298.150 Kelvin.  Pressure   1.00000 Atm.
 Atom     1 has atomic number  8 and mass  15.99491

 Molecular mass:   126.06808 amu.
 Principal axes and moments of inertia in atomic units:
                           1         2         3
     Eigenvalues --   566.393311874.770592274.17938
           X            0.99998   0.00395  -0.00479
           Y           -0.00388   0.99990   0.01351
           Z            0.00485  -0.01349   0.99990
 This molecule is an asymmetric top.
 Rotational symmetry number  1.
 Warning -- assumption of classical behavior for rotation
           may cause significant error
 Rotational temperatures (Kelvin)      0.15292     0.04620     0.03809
 Rotational constants (GHZ):           3.18637     0.96265     0.79358
 Zero-point vibrational energy     412091.3 (Joules/Mol)
                                   98.49219 (Kcal/Mol)
 Warning -- explicit consideration of  14 degrees of freedom as
           vibrations may cause significant error
 Vibrational temperatures:    100.06   139.90   199.58   240.01   284.62
          (Kelvin)            334.78   386.15   462.63   500.15   608.22
                              666.74   736.72   827.18   890.24   906.93
                              992.29  1174.81  1205.14  1295.09  1326.09
                             1406.14  1482.06  1526.03  1541.42  1572.47
                             1623.75  1649.02  1724.76  1736.88  1769.94
                             1796.54  1814.64  1879.08  1917.34  1951.84
                             1999.34  2041.22  2062.56  2140.95  2160.28
                             3214.48  4301.99  4353.21  4397.85  4401.67
                             4415.07  4437.66  4493.62  5042.55  5488.56
                             5506.00

 Zero-point correction=                           0.156957 (Hartree/Particle)
 Thermal correction to Energy=                    0.166818
 Thermal correction to Enthalpy=                  0.167762
 Thermal correction to Gibbs Free Energy=         0.122095
 Sum of electronic and zero-point Energies=           -422.969735
 Sum of electronic and thermal Energies=              -422.959875
 Sum of electronic and thermal Enthalpies=            -422.958931
 Sum of electronic and thermal Free Energies=         -423.004598

                     E (Thermal)             CV                S
                      KCal/Mol        Cal/Mol-Kelvin    Cal/Mol-Kelvin
 Total                  104.680             36.265             96.115
 Electronic               0.000              0.000              0.000
 Translational            0.889              2.981             40.409
 Rotational               0.889              2.981             29.270
 Vibrational            102.902             30.303             26.437
 Vibration     1          0.598              1.969              4.166
 Vibration     2          0.603              1.951              3.509
 Vibration     3          0.614              1.915              2.822
 Vibration     4          0.624              1.883              2.471
 Vibration     5          0.637              1.843              2.153
 Vibration     6          0.653              1.791              1.858
 Vibration     7          0.673              1.731              1.607
 Vibration     8          0.707              1.632              1.302
 Vibration     9          0.725              1.580              1.177
 Vibration    10          0.785              1.421              0.883
 Vibration    11          0.821              1.331              0.756
 Vibration    12          0.867              1.223              0.629
 Vibration    13          0.931              1.085              0.495
 Vibration    14          0.979              0.992              0.419

 Optimization completed.
    -- Stationary point found.
 Normal termination of Gaussian 09 at Tue Jan 28 14:05:14 2020.
