 Gaussian 09, Revision D.01,
 Gaussian 09:  ES64L-G09RevD.01 24-Apr-2013

 -----------------------------
 # b3lyp 6-31G(2df,p) opt Freq
 -----------------------------

 -----
 titel
 -----
 Symbolic Z-matrix:
 Charge =  0 Multiplicity = 1

 SCF Done:  E(RB3LYP) =  -423.128492526     A.U. after   14 cycles
 Optimization completed.
    -- Stationary point found.
 Normal termination of Gaussian 09 at Tue Jan 28 03:25:43 2020.

 ----------------------------------------------------------------------
 #N Geom=AllCheck Guess=TCheck SCRF=Check GenChk RB3LYP/6-31G(2df,p) Fr
 eq
 ----------------------------------------------------------------------

 Structure from the checkpoint file:  "/scratch/puck/g09_75c3caf9-5314-40c1-bb63-ee7f8e9f4785/Gau-7579.chk"
 -----
 titel
 -----
 Charge =  0 Multiplicity = 1

                         Standard orientation:
 ---------------------------------------------------------------------
 Center     Atomic      Atomic             Coordinates (Angstroms)
 Number     Number       Type             X           Y           Z
 ---------------------------------------------------------------------
      1          8           0       -2.526162   -1.100368   -0.219643
      2          6           0       -1.348354   -0.562643    0.348016
      3          6           0       -1.552082    0.950218    0.619684
      4          6           0       -0.483733    1.312584   -0.447673
      5          6           0        0.967359    1.480127    0.083953
      6          6           0        1.159929   -0.035760   -0.049966
      7          6           0        1.959345   -0.969205    0.750008
      8          8           0        2.339911   -0.610776   -0.584961
      9          6           0       -0.225369   -0.225639   -0.677320
     10          1           0       -2.332294   -1.996316   -0.515144
     11          1           0       -1.014685   -1.163088    1.206821
     12          1           0       -2.566221    1.251885    0.350535
     13          1           0       -1.340005    1.288283    1.637626
     14          1           0       -0.794099    1.989046   -1.242618
     15          1           0        1.615458    2.018366   -0.613660
     16          1           0        1.082822    1.915973    1.080943
     17          1           0        2.607187   -0.587691    1.538704
     18          1           0        1.630421   -2.000059    0.880168
     19          1           0       -0.261150   -0.725344   -1.646752
 ---------------------------------------------------------------------

 SCF Done:  E(RB3LYP) =  -423.128492526     A.U. after    1 cycles

 The electronic state is 1-A.
 Alpha  occ. eigenvalues --  -19.14954 -19.13898 -10.24020 -10.23353 -10.23172
 Alpha  occ. eigenvalues --  -10.19025 -10.18425 -10.18391 -10.17999  -1.07023
 Alpha  occ. eigenvalues --   -1.02149  -0.86625  -0.74093  -0.67808  -0.66056
 Alpha  occ. eigenvalues --   -0.61815  -0.57791  -0.52416  -0.51306  -0.49650
 Alpha  occ. eigenvalues --   -0.49316  -0.46910  -0.43199  -0.40771  -0.39302
 Alpha  occ. eigenvalues --   -0.38706  -0.35705  -0.34516  -0.32162  -0.31802
 Alpha  occ. eigenvalues --   -0.29406  -0.28753  -0.26500  -0.24940
 Alpha virt. eigenvalues --    0.06732   0.07473   0.09464   0.10184   0.11763
 Alpha virt. eigenvalues --    0.12426   0.13214   0.15223   0.15959   0.16135
 Alpha virt. eigenvalues --    0.16621   0.19253   0.19444   0.21195   0.21355

 Mulliken charges:
               1
     1  O   -0.438399
     2  C    0.140002
     3  C   -0.243113
     4  C   -0.016936
     5  C   -0.329979
     6  C    0.458058
     7  C   -0.267112
     8  O   -0.273993
     9  C   -0.183420
    10  H    0.280163
    11  H    0.061874
    12  H    0.120187
    13  H    0.096443
    14  H    0.075187
    15  H    0.118609
    16  H    0.100861
    17  H    0.114175
    18  H    0.110326
    19  H    0.077068
 Sum of Mulliken charges =   0.00000

 Dipole moment (field-independent basis, Debye):
    X=             -0.2129    Y=             -0.3392    Z=              1.0647  Tot=              1.1375
 Quadrupole moment (field-independent basis, Debye-Ang):
   XX=            -62.1068   YY=            -47.8524   ZZ=            -52.1318
   XY=              1.7964   XZ=              3.9039   YZ=             -0.3490

  Exact polarizability:  81.458  -1.183  77.132   3.652  -1.099  66.219
 Approx polarizability: 109.779  -2.503 109.457   2.633  -1.096 103.545

                      1                      2                      3
                      A                      A                      A
 Frequencies --     41.9447               129.3855               236.4180
 Red. masses --      2.5608                 3.8851                 4.2826
 Frc consts  --      0.0027                 0.0383                 0.1410
 IR Inten    --      0.9079                 1.2984                10.0140

                      4                      5                      6
                      A                      A                      A
 Frequencies --    281.5269               327.6507               350.0000
 Red. masses --      2.1173                 1.3640                 2.4544
 Frc consts  --      0.0989                 0.0863                 0.1771
 IR Inten    --     13.6059                73.5078                 5.4267

                      7                      8                      9
                      A                      A                      A
 Frequencies --    382.6164               415.0458               473.9322
 Red. masses --      3.5925                 2.5442                 2.5103
 Frc consts  --      0.3099                 0.2582                 0.3322
 IR Inten    --     21.3236                 3.4844                 6.3993

                     10                     11                     12
                      A                      A                      A
 Frequencies --    533.1131               743.5792               789.4585
 Red. masses --      3.9975                 2.5655                 2.3127
 Frc consts  --      0.6694                 0.8358                 0.8492
 IR Inten    --      1.1243                 0.3136                 3.5681

                     13                     14                     15
                      A                      A                      A
 Frequencies --    806.0998               843.5579               863.5321
 Red. masses --      2.5678                 1.8167                 2.2842
 Frc consts  --      0.9831                 0.7617                 1.0036
 IR Inten    --     15.8285                10.0227                 5.6868

                     16                     17                     18
                      A                      A                      A
 Frequencies --    881.8979               904.2646               922.3170
 Red. masses --      2.6506                 1.7596                 2.7632
 Frc consts  --      1.2146                 0.8477                 1.3849
 IR Inten    --      9.9373                 4.8201                 5.5334

                     19                     20                     21
                      A                      A                      A
 Frequencies --    964.8471               977.8269              1026.4729
 Red. masses --      2.6159                 2.6119                 2.3298
 Frc consts  --      1.4348                 1.4714                 1.4463
 IR Inten    --     14.7587                 8.1808                52.6154

                     22                     23                     24
                      A                      A                      A
 Frequencies --   1040.9083              1098.2190              1114.6692
 Red. masses --      2.2994                 1.3395                 1.9603
 Frc consts  --      1.4679                 0.9519                 1.4350
 IR Inten    --     11.2834                 5.9579                 3.1020

                     25                     26                     27
                      A                      A                      A
 Frequencies --   1126.2142              1129.1694              1158.2438
 Red. masses --      1.8847                 1.3006                 1.7664
 Frc consts  --      1.4084                 0.9771                 1.3961
 IR Inten    --     18.8646                 1.8648                 3.6147

                     28                     29                     30
                      A                      A                      A
 Frequencies --   1168.7005              1190.6726              1213.5693
 Red. masses --      1.4470                 1.5174                 1.3804
 Frc consts  --      1.1645                 1.2674                 1.1978
 IR Inten    --      4.4388                 4.6863                 8.5943

                     31                     32                     33
                      A                      A                      A
 Frequencies --   1237.0195              1242.8246              1256.2627
 Red. masses --      1.6908                 1.9289                 1.4017
 Frc consts  --      1.5244                 1.7554                 1.3034
 IR Inten    --     36.9530                 1.6192                 7.3998

                     34                     35                     36
                      A                      A                      A
 Frequencies --   1277.4190              1305.3104              1323.5170
 Red. masses --      1.5236                 1.4808                 1.4409
 Frc consts  --      1.4648                 1.4866                 1.4872
 IR Inten    --      3.6399                 3.5991                63.2818

                     37                     38                     39
                      A                      A                      A
 Frequencies --   1416.4732              1422.8209              1462.9713
 Red. masses --      1.6603                 1.9496                 1.1384
 Frc consts  --      1.9627                 2.3253                 1.4355
 IR Inten    --     23.8595                11.0985                 0.5721

                     40                     41                     42
                      A                      A                      A
 Frequencies --   1473.5031              1530.3764              2986.2867
 Red. masses --      1.1207                 1.4859                 1.0849
 Frc consts  --      1.4337                 2.0504                 5.7006
 IR Inten    --      5.8413                 7.5838                57.1779

                     43                     44                     45
                      A                      A                      A
 Frequencies --   3049.0813              3062.5243              3075.2199
 Red. masses --      1.0589                 1.0607                 1.0500
 Frc consts  --      5.8002                 5.8616                 5.8507
 IR Inten    --     25.5557                30.9230                25.7226

                     46                     47                     48
                      A                      A                      A
 Frequencies --   3100.4815              3103.6827              3116.0867
 Red. masses --      1.0954                 1.0985                 1.0963
 Frc consts  --      6.2044                 6.2345                 6.2719
 IR Inten    --     25.7574                 3.8672                15.5492

                     49                     50                     51
                      A                      A                      A
 Frequencies --   3127.4717              3160.2202              3807.3435
 Red. masses --      1.1008                 1.1191                 1.0660
 Frc consts  --      6.3440                 6.5850                 9.1040
 IR Inten    --     33.7842                23.4304                17.9314

 - Thermochemistry -
 -------------------
 Temperature   298.150 Kelvin.  Pressure   1.00000 Atm.
 Atom     1 has atomic number  8 and mass  15.99491

 Molecular mass:   126.06808 amu.
 Principal axes and moments of inertia in atomic units:
                           1         2         3
     Eigenvalues --   588.101331381.358271679.90201
           X            0.99992   0.00034   0.01263
           Y           -0.00021   0.99994  -0.01057
           Z           -0.01263   0.01057   0.99986
 This molecule is an asymmetric top.
 Rotational symmetry number  1.
 Warning -- assumption of classical behavior for rotation
           may cause significant error
 Rotational temperatures (Kelvin)      0.14728     0.06270     0.05156
 Rotational constants (GHZ):           3.06876     1.30650     1.07431
 Zero-point vibrational energy     416735.6 (Joules/Mol)
                                   99.60220 (Kcal/Mol)
 Warning -- explicit consideration of  10 degrees of freedom as
           vibrations may cause significant error
 Vibrational temperatures:     60.35   186.16   340.15   405.05   471.42
          (Kelvin)            503.57   550.50   597.16   681.88   767.03
                             1069.84  1135.85  1159.80  1213.69  1242.43
                             1268.85  1301.03  1327.01  1388.20  1406.87
                             1476.86  1497.63  1580.09  1603.76  1620.37
                             1624.62  1666.45  1681.50  1713.11  1746.05
                             1779.79  1788.15  1807.48  1837.92  1878.05
                             1904.24  2037.99  2047.12  2104.89  2120.04
                             2201.87  4296.60  4386.94  4406.28  4424.55
                             4460.90  4465.50  4483.35  4499.73  4546.85
                             5477.91

 Zero-point correction=                           0.158726 (Hartree/Particle)
 Thermal correction to Energy=                    0.166815
 Thermal correction to Enthalpy=                  0.167760
 Thermal correction to Gibbs Free Energy=         0.125599
 Sum of electronic and zero-point Energies=           -422.969766
 Sum of electronic and thermal Energies=              -422.961677
 Sum of electronic and thermal Enthalpies=            -422.960733
 Sum of electronic and thermal Free Energies=         -423.002894

                     E (Thermal)             CV                S
                      KCal/Mol        Cal/Mol-Kelvin    Cal/Mol-Kelvin
 Total                  104.678             31.505             88.735
 Electronic               0.000              0.000              0.000
 Translational            0.889              2.981             40.409
 Rotational               0.889              2.981             28.703
 Vibrational            102.901             25.543             19.624
 Vibration     1          0.595              1.980              5.165
 Vibration     2          0.612              1.924              2.955
 Vibration     3          0.655              1.785              1.830
 Vibration     4          0.681              1.708              1.524
 Vibration     5          0.711              1.620              1.272
 Vibration     6          0.727              1.575              1.166
 Vibration     7          0.752              1.507              1.029
 Vibration     8          0.778              1.438              0.909
 Vibration     9          0.831              1.308              0.727
 Vibration    10          0.888              1.177              0.580

 Optimization completed.
    -- Stationary point found.
 Normal termination of Gaussian 09 at Tue Jan 28 04:09:01 2020.
