 Gaussian 09, Revision D.01,
 Gaussian 09:  ES64L-G09RevD.01 24-Apr-2013

 -----------------------------
 # b3lyp 6-31G(2df,p) opt Freq
 -----------------------------

 -----
 titel
 -----
 Symbolic Z-matrix:
 Charge =  0 Multiplicity = 1

 SCF Done:  E(RB3LYP) =  -423.155716398     A.U. after   14 cycles
 SCF Done:  E(RB3LYP) =  -423.155716368     A.U. after    6 cycles
 Optimization completed.
    -- Stationary point found.
 Normal termination of Gaussian 09 at Tue Jan 28 01:57:32 2020.

 ----------------------------------------------------------------------
 #N Geom=AllCheck Guess=TCheck SCRF=Check GenChk RB3LYP/6-31G(2df,p) Fr
 eq
 ----------------------------------------------------------------------

 Structure from the checkpoint file:  "/scratch/puck/g09_fc22fdb5-59a1-465d-8195-7eebd7bd7d81/Gau-110108.chk"
 -----
 titel
 -----
 Charge =  0 Multiplicity = 1

                         Standard orientation:
 ---------------------------------------------------------------------
 Center     Atomic      Atomic             Coordinates (Angstroms)
 Number     Number       Type             X           Y           Z
 ---------------------------------------------------------------------
      1          6           0       -2.593991   -0.552012   -0.459118
      2          6           0       -1.121332   -0.184665   -0.565209
      3          8           0       -0.342701   -1.317579   -0.132925
      4          6           0        0.729247   -0.869156    0.688662
      5          6           0        0.141445    0.348673    1.427020
      6          6           0       -0.680732    1.022345    0.312786
      7          8           0        0.052011    1.994762   -0.410349
      8          6           0        1.921909   -0.525772   -0.104941
      9          6           0        2.883652   -0.235608   -0.767912
     10          1           0       -2.882978   -0.705547    0.585899
     11          1           0       -3.217381    0.242529   -0.880883
     12          1           0       -2.795244   -1.477024   -1.006207
     13          1           0       -0.866945    0.050815   -1.607283
     14          1           0        0.979135   -1.691781    1.366166
     15          1           0       -0.511587   -0.013309    2.226552
     16          1           0        0.887332    1.023323    1.849037
     17          1           0       -1.547579    1.554073    0.712594
     18          1           0        0.857969    1.576070   -0.738782
     19          1           0        3.741615    0.000545   -1.348625
 ---------------------------------------------------------------------

 SCF Done:  E(RB3LYP) =  -423.155716368     A.U. after    1 cycles

 The electronic state is 1-A.
 Alpha  occ. eigenvalues --  -19.14381 -19.13163 -10.26183 -10.23511 -10.23023
 Alpha  occ. eigenvalues --  -10.19392 -10.19195 -10.18951 -10.17795  -1.04565
 Alpha  occ. eigenvalues --   -1.01240  -0.79723  -0.77441  -0.74510  -0.67880
 Alpha  occ. eigenvalues --   -0.62000  -0.59396  -0.54089  -0.51790  -0.50354
 Alpha  occ. eigenvalues --   -0.47398  -0.46227  -0.42354  -0.41103  -0.40076
 Alpha  occ. eigenvalues --   -0.38509  -0.36810  -0.35952  -0.34679  -0.32213
 Alpha  occ. eigenvalues --   -0.28916  -0.27896  -0.26385  -0.25829
 Alpha virt. eigenvalues --    0.02823   0.03757   0.09299   0.10528   0.11381
 Alpha virt. eigenvalues --    0.11849   0.13458   0.14038   0.14948   0.16250
 Alpha virt. eigenvalues --    0.16577   0.18250   0.19410   0.19972   0.22736

 Mulliken charges:
               1
     1  C   -0.403034
     2  C    0.118076
     3  O   -0.268243
     4  C   -0.075973
     5  C   -0.256772
     6  C    0.093709
     7  O   -0.440956
     8  C    0.331957
     9  C   -0.474816
    10  H    0.116644
    11  H    0.120963
    12  H    0.129163
    13  H    0.084641
    14  H    0.113015
    15  H    0.110979
    16  H    0.121048
    17  H    0.089945
    18  H    0.281847
    19  H    0.207810
 Sum of Mulliken charges =   0.00000

 Dipole moment (field-independent basis, Debye):
    X=              0.3706    Y=             -0.2553    Z=              0.7216  Tot=              0.8505
 Quadrupole moment (field-independent basis, Debye-Ang):
   XX=            -46.8507   YY=            -60.5379   ZZ=            -50.2212
   XY=              0.6028   XZ=             -2.4637   YZ=             -0.7479

  Exact polarizability:  95.358   1.669  65.136  -7.648  -2.693  69.502
 Approx polarizability: 130.637   6.157  99.402 -18.551  -7.917 106.746

                      1                      2                      3
                      A                      A                      A
 Frequencies --     38.1178               117.7341               169.2152
 Red. masses --      3.7858                 4.8867                 3.6420
 Frc consts  --      0.0032                 0.0399                 0.0614
 IR Inten    --      2.0542                 0.1337                 2.6749

                      4                      5                      6
                      A                      A                      A
 Frequencies --    234.9067               247.8657               289.0928
 Red. masses --      1.0637                 4.4757                 2.4856
 Frc consts  --      0.0346                 0.1620                 0.1224
 IR Inten    --      0.2340                 0.9014                 0.7124

                      7                      8                      9
                      A                      A                      A
 Frequencies --    325.0020               396.4208               431.2318
 Red. masses --      3.2639                 1.2355                 2.5894
 Frc consts  --      0.2031                 0.1144                 0.2837
 IR Inten    --      4.4804                42.4937                37.1907

                     10                     11                     12
                      A                      A                      A
 Frequencies --    454.7206               503.8942               570.2928
 Red. masses --      2.9629                 4.3377                 4.6855
 Frc consts  --      0.3610                 0.6489                 0.8978
 IR Inten    --      3.3520                 2.1254                 8.4811

                     13                     14                     15
                      A                      A                      A
 Frequencies --    638.0988               671.3045               697.1308
 Red. masses --      1.2315                 1.2796                 4.7594
 Frc consts  --      0.2954                 0.3398                 1.3628
 IR Inten    --     42.0481                37.5070                 4.2639

                     16                     17                     18
                      A                      A                      A
 Frequencies --    760.7497               831.4671               845.9467
 Red. masses --      4.1818                 2.5014                 3.0305
 Frc consts  --      1.4259                 1.0189                 1.2778
 IR Inten    --      2.1627                 8.9367                 9.2725

                     19                     20                     21
                      A                      A                      A
 Frequencies --    866.4740               934.5763               977.3349
 Red. masses --      2.5082                 2.4072                 2.3817
 Frc consts  --      1.1095                 1.2388                 1.3404
 IR Inten    --     16.9875                 2.1225                13.7977

                     22                     23                     24
                      A                      A                      A
 Frequencies --   1011.6164              1021.4071              1075.2524
 Red. masses --      1.9270                 2.9491                 2.3321
 Frc consts  --      1.1619                 1.8128                 1.5886
 IR Inten    --      8.8440                31.1599                56.6796

                     25                     26                     27
                      A                      A                      A
 Frequencies --   1112.1302              1122.4471              1133.9621
 Red. masses --      3.9349                 1.8623                 1.9345
 Frc consts  --      2.8675                 1.3824                 1.4656
 IR Inten    --    132.6552                41.7335                 7.5479

                     28                     29                     30
                      A                      A                      A
 Frequencies --   1194.7530              1218.1464              1276.9628
 Red. masses --      1.2193                 1.7564                 1.2828
 Frc consts  --      1.0255                 1.5356                 1.2325
 IR Inten    --     20.4539                 7.2870                10.0530

                     31                     32                     33
                      A                      A                      A
 Frequencies --   1303.8799              1327.5591              1344.3979
 Red. masses --      1.4245                 1.3762                 1.3842
 Frc consts  --      1.4269                 1.4290                 1.4740
 IR Inten    --      0.1437                 2.0779                13.2037

                     34                     35                     36
                      A                      A                      A
 Frequencies --   1365.1448              1388.5521              1407.3331
 Red. masses --      1.3193                 1.3472                 1.3195
 Frc consts  --      1.4486                 1.5304                 1.5397
 IR Inten    --     15.0997                 2.8728                 8.7473

                     37                     38                     39
                      A                      A                      A
 Frequencies --   1447.1663              1474.5496              1485.5558
 Red. masses --      1.1838                 1.1069                 1.0540
 Frc consts  --      1.4607                 1.4180                 1.3704
 IR Inten    --     39.7335                 8.7191                 3.5314

                     40                     41                     42
                      A                      A                      A
 Frequencies --   1496.8435              2219.5424              3015.7474
 Red. masses --      1.0473                 5.9032                 1.0845
 Frc consts  --      1.3825                17.1344                 5.8110
 IR Inten    --      5.5211                 1.1905                28.2065

                     43                     44                     45
                      A                      A                      A
 Frequencies --   3037.5526              3057.7499              3068.1474
 Red. masses --      1.0352                 1.0773                 1.0724
 Frc consts  --      5.6273                 5.9345                 5.9479
 IR Inten    --     15.7726                 7.0907                22.2730

                     46                     47                     48
                      A                      A                      A
 Frequencies --   3087.5005              3110.1486              3119.8757
 Red. masses --      1.0856                 1.1015                 1.1017
 Frc consts  --      6.0970                 6.2779                 6.3179
 IR Inten    --     31.9976                27.2702                18.8768

                     49                     50                     51
                      A                      A                      A
 Frequencies --   3135.9668              3497.3572              3763.9140
 Red. masses --      1.1027                 1.1618                 1.0660
 Frc consts  --      6.3893                 8.3723                 8.8978
 IR Inten    --     11.4158                67.9023                58.6018

 - Thermochemistry -
 -------------------
 Temperature   298.150 Kelvin.  Pressure   1.00000 Atm.
 Atom     1 has atomic number  6 and mass  12.00000

 Molecular mass:   126.06808 amu.
 Principal axes and moments of inertia in atomic units:
                           1         2         3
     Eigenvalues --   713.854661308.562251552.41613
           X            0.99978   0.02100   0.00158
           Y           -0.02100   0.99977   0.00404
           Z           -0.00149  -0.00407   0.99999
 This molecule is an asymmetric top.
 Rotational symmetry number  1.
 Warning -- assumption of classical behavior for rotation
           may cause significant error
 Rotational temperatures (Kelvin)      0.12133     0.06619     0.05579
 Rotational constants (GHZ):           2.52816     1.37918     1.16254
 Zero-point vibrational energy     414642.1 (Joules/Mol)
                                   99.10183 (Kcal/Mol)
 Warning -- explicit consideration of  12 degrees of freedom as
           vibrations may cause significant error
 Vibrational temperatures:     54.84   169.39   243.46   337.98   356.62
          (Kelvin)            415.94   467.60   570.36   620.45   654.24
                              724.99   820.52   918.08   965.86  1003.01
                             1094.55  1196.29  1217.13  1246.66  1344.65
                             1406.17  1455.49  1469.58  1547.05  1600.11
                             1614.95  1631.52  1718.98  1752.64  1837.26
                             1875.99  1910.06  1934.29  1964.14  1997.81
                             2024.84  2082.15  2121.55  2137.38  2153.62
                             3193.42  4338.98  4370.36  4399.41  4414.37
                             4442.22  4474.80  4488.80  4511.95  5031.91
                             5415.43

 Zero-point correction=                           0.157929 (Hartree/Particle)
 Thermal correction to Energy=                    0.167046
 Thermal correction to Enthalpy=                  0.167990
 Thermal correction to Gibbs Free Energy=         0.123825
 Sum of electronic and zero-point Energies=           -422.997788
 Sum of electronic and thermal Energies=              -422.988671
 Sum of electronic and thermal Enthalpies=            -422.987727
 Sum of electronic and thermal Free Energies=         -423.031892

                     E (Thermal)             CV                S
                      KCal/Mol        Cal/Mol-Kelvin    Cal/Mol-Kelvin
 Total                  104.823             34.611             92.953
 Electronic               0.000              0.000              0.000
 Translational            0.889              2.981             40.409
 Rotational               0.889              2.981             28.763
 Vibrational            103.045             28.649             23.782
 Vibration     1          0.594              1.982              5.355
 Vibration     2          0.608              1.935              3.137
 Vibration     3          0.625              1.880              2.444
 Vibration     4          0.655              1.787              1.841
 Vibration     5          0.661              1.766              1.746
 Vibration     6          0.686              1.694              1.479
 Vibration     7          0.709              1.625              1.285
 Vibration     8          0.763              1.478              0.976
 Vibration     9          0.792              1.402              0.855
 Vibration    10          0.813              1.350              0.782
 Vibration    11          0.859              1.241              0.648
 Vibration    12          0.926              1.096              0.504

 Normal termination of Gaussian 09 at Tue Jan 28 02:43:09 2020.
