 Gaussian 09, Revision D.01,
 Gaussian 09:  ES64L-G09RevD.01 24-Apr-2013

 -----------------------------
 # b3lyp 6-31G(2df,p) opt Freq
 -----------------------------

 -----
 titel
 -----
 Symbolic Z-matrix:
 Charge =  0 Multiplicity = 1

 SCF Done:  E(RB3LYP) =  -423.173491424     A.U. after   14 cycles
 Optimization completed.
    -- Stationary point found.
 Normal termination of Gaussian 09 at Tue Jan 28 03:09:46 2020.

 ----------------------------------------------------------------------
 #N Geom=AllCheck Guess=TCheck SCRF=Check GenChk RB3LYP/6-31G(2df,p) Fr
 eq
 ----------------------------------------------------------------------

 Structure from the checkpoint file:  "/scratch/puck/g09_a15f4534-0cf9-42a4-9d02-abf5c15e9cd2/Gau-44871.chk"
 -----
 titel
 -----
 Charge =  0 Multiplicity = 1

                         Standard orientation:
 ---------------------------------------------------------------------
 Center     Atomic      Atomic             Coordinates (Angstroms)
 Number     Number       Type             X           Y           Z
 ---------------------------------------------------------------------
      1          6           0       -2.720004   -0.551700   -0.338284
      2          6           0       -1.273672   -0.118556   -0.438135
      3          8           0       -1.093716    1.301834   -0.197658
      4          6           0        0.055516    1.058688    0.669100
      5          6           0        1.355352    1.310217   -0.029123
      6          6           0        2.088282    0.307303   -0.507639
      7          6           0        1.705770   -1.136884   -0.360389
      8          8           0        0.712769   -1.390758    0.620585
      9          6           0       -0.306797   -0.438644    0.733678
     10          1           0       -3.325392   -0.058809   -1.105466
     11          1           0       -2.802509   -1.634628   -0.481650
     12          1           0       -3.133833   -0.294375    0.641679
     13          1           0       -0.852941   -0.399809   -1.414750
     14          1           0       -0.035869    1.639469    1.593448
     15          1           0        1.658563    2.343804   -0.171755
     16          1           0        3.006694    0.497373   -1.058024
     17          1           0        1.386888   -1.530245   -1.341952
     18          1           0        2.576506   -1.731878   -0.060242
     19          1           0       -0.857209   -0.702059    1.640056
 ---------------------------------------------------------------------

 SCF Done:  E(RB3LYP) =  -423.173491425     A.U. after    1 cycles

 The electronic state is 1-A.
 Alpha  occ. eigenvalues --  -19.14815 -19.12928 -10.23896 -10.23389 -10.23086
 Alpha  occ. eigenvalues --  -10.22877 -10.19350 -10.18595 -10.17645  -1.05066
 Alpha  occ. eigenvalues --   -1.02248  -0.80010  -0.75496  -0.74638  -0.65966
 Alpha  occ. eigenvalues --   -0.64234  -0.58784  -0.51871  -0.50865  -0.49142
 Alpha  occ. eigenvalues --   -0.47964  -0.44875  -0.43635  -0.42109  -0.40308
 Alpha  occ. eigenvalues --   -0.38233  -0.37749  -0.36968  -0.35551  -0.35050
 Alpha  occ. eigenvalues --   -0.29004  -0.26285  -0.25036  -0.24240
 Alpha virt. eigenvalues --    0.00636   0.08770   0.10077   0.10434   0.11473
 Alpha virt. eigenvalues --    0.13597   0.14005   0.15540   0.16555   0.17420
 Alpha virt. eigenvalues --    0.17470   0.18355   0.19754   0.20303   0.23045

 Mulliken charges:
               1
     1  C   -0.411206
     2  C    0.119750
     3  O   -0.316460
     4  C    0.038390
     5  C   -0.072583
     6  C   -0.073563
     7  C   -0.122680
     8  O   -0.264684
     9  C    0.057141
    10  H    0.128053
    11  H    0.121078
    12  H    0.119852
    13  H    0.074724
    14  H    0.080802
    15  H    0.098385
    16  H    0.100278
    17  H    0.108722
    18  H    0.120742
    19  H    0.093259
 Sum of Mulliken charges =   0.00000

 Dipole moment (field-independent basis, Debye):
    X=              0.8833    Y=             -0.5586    Z=             -0.3617  Tot=              1.1059
 Quadrupole moment (field-independent basis, Debye-Ang):
   XX=            -49.7827   YY=            -55.7668   ZZ=            -52.2682
   XY=              2.7275   XZ=             -2.4229   YZ=              3.0491

  Exact polarizability:  89.612  -1.560  76.151  -5.718   5.555  63.245
 Approx polarizability: 117.239 -11.321 119.524  -9.027   9.866  98.565

                      1                      2                      3
                      A                      A                      A
 Frequencies --     91.0355               149.2691               209.4385
 Red. masses --      3.4822                 2.5076                 1.5337
 Frc consts  --      0.0170                 0.0329                 0.0396
 IR Inten    --      1.9231                 1.3466                 1.4673

                      4                      5                      6
                      A                      A                      A
 Frequencies --    229.3068               293.6136               342.9015
 Red. masses --      1.6350                 2.8183                 3.5413
 Frc consts  --      0.0507                 0.1431                 0.2453
 IR Inten    --      1.1995                 0.4303                 6.6031

                      7                      8                      9
                      A                      A                      A
 Frequencies --    415.3560               492.9540               521.3575
 Red. masses --      3.2574                 3.3470                 3.7864
 Frc consts  --      0.3311                 0.4792                 0.6064
 IR Inten    --      2.9193                 8.1254                 7.8599

                     10                     11                     12
                      A                      A                      A
 Frequencies --    585.3249               694.8133               737.0311
 Red. masses --      5.6688                 1.8822                 3.2761
 Frc consts  --      1.1443                 0.5354                 1.0485
 IR Inten    --      1.0626                 9.9474                 6.5698

                     13                     14                     15
                      A                      A                      A
 Frequencies --    823.4151               857.7607               894.8362
 Red. masses --      2.6939                 2.6023                 2.4738
 Frc consts  --      1.0761                 1.1281                 1.1671
 IR Inten    --      3.7521                 2.0145                 1.6701

                     16                     17                     18
                      A                      A                      A
 Frequencies --    903.3503               934.9876               965.6953
 Red. masses --      2.6948                 2.2596                 6.4059
 Frc consts  --      1.2956                 1.1638                 3.5197
 IR Inten    --     17.9260                 4.0091               110.7014

                     19                     20                     21
                      A                      A                      A
 Frequencies --   1000.7413              1009.5181              1043.4394
 Red. masses --      1.2821                 2.8456                 1.8348
 Frc consts  --      0.7565                 1.7087                 1.1770
 IR Inten    --      0.9780                22.2146                 3.8686

                     22                     23                     24
                      A                      A                      A
 Frequencies --   1063.8499              1103.5029              1110.1394
 Red. masses --      1.7510                 1.8475                 2.4377
 Frc consts  --      1.1676                 1.3255                 1.7701
 IR Inten    --      9.1338                 9.9822                 6.2020

                     25                     26                     27
                      A                      A                      A
 Frequencies --   1144.6454              1158.9279              1215.8776
 Red. masses --      2.4501                 1.7783                 1.9889
 Frc consts  --      1.8913                 1.4073                 1.7324
 IR Inten    --     11.8379                72.7723                62.6737

                     28                     29                     30
                      A                      A                      A
 Frequencies --   1250.2557              1266.6728              1280.3147
 Red. masses --      1.3304                 1.1883                 1.3317
 Frc consts  --      1.2253                 1.1234                 1.2862
 IR Inten    --      7.5336                12.5777                 1.7915

                     31                     32                     33
                      A                      A                      A
 Frequencies --   1309.3790              1356.6867              1365.4720
 Red. masses --      1.3890                 1.5142                 1.2185
 Frc consts  --      1.4031                 1.6421                 1.3386
 IR Inten    --      2.4936                17.7005                 1.9473

                     34                     35                     36
                      A                      A                      A
 Frequencies --   1393.4621              1405.7333              1415.3888
 Red. masses --      1.4059                 1.3387                 1.7213
 Frc consts  --      1.6084                 1.5586                 2.0317
 IR Inten    --      1.6271                 6.9330                 5.0993

                     37                     38                     39
                      A                      A                      A
 Frequencies --   1430.2371              1482.3430              1495.1383
 Red. masses --      1.4778                 1.0604                 1.0633
 Frc consts  --      1.7811                 1.3728                 1.4005
 IR Inten    --     11.8836                 4.6885                 0.2640

                     40                     41                     42
                      A                      A                      A
 Frequencies --   1497.2288              1723.3638              2948.4208
 Red. masses --      1.0714                 6.7085                 1.0732
 Frc consts  --      1.4150                11.7390                 5.4966
 IR Inten    --      7.4800                 1.0517                37.8675

                     43                     44                     45
                      A                      A                      A
 Frequencies --   2995.6476              3033.6824              3042.8755
 Red. masses --      1.0832                 1.0349                 1.0858
 Frc consts  --      5.7272                 5.6118                 5.9234
 IR Inten    --     44.6636                17.9573                37.9802

                     46                     47                     48
                      A                      A                      A
 Frequencies --   3048.9188              3084.2420              3106.6514
 Red. masses --      1.0867                 1.0877                 1.1008
 Frc consts  --      5.9517                 6.0963                 6.2596
 IR Inten    --     32.8207                31.8221                16.9953

                     49                     50                     51
                      A                      A                      A
 Frequencies --   3111.8088              3151.0442              3174.2185
 Red. masses --      1.1022                 1.0839                 1.0976
 Frc consts  --      6.2886                 6.3411                 6.5158
 IR Inten    --     27.1226                 7.6437                23.3016

 - Thermochemistry -
 -------------------
 Temperature   298.150 Kelvin.  Pressure   1.00000 Atm.
 Atom     1 has atomic number  6 and mass  12.00000

 Molecular mass:   126.06808 amu.
 Principal axes and moments of inertia in atomic units:
                           1         2         3
     Eigenvalues --   610.758681199.725921532.74557
           X            0.99940   0.03317  -0.00947
           Y           -0.03275   0.99861   0.04132
           Z            0.01082  -0.04099   0.99910
 This molecule is an asymmetric top.
 Rotational symmetry number  1.
 Warning -- assumption of classical behavior for rotation
           may cause significant error
 Rotational temperatures (Kelvin)      0.14181     0.07219     0.05651
 Rotational constants (GHZ):           2.95492     1.50429     1.17746
 Zero-point vibrational energy     420859.9 (Joules/Mol)
                                  100.58792 (Kcal/Mol)
 Warning -- explicit consideration of  10 degrees of freedom as
           vibrations may cause significant error
 Vibrational temperatures:    130.98   214.76   301.33   329.92   422.44
          (Kelvin)            493.36   597.60   709.25   750.12   842.15
                              999.68  1060.42  1184.71  1234.12  1287.47
                             1299.72  1345.24  1389.42  1439.84  1452.47
                             1501.27  1530.64  1587.69  1597.24  1646.89
                             1667.44  1749.37  1798.84  1822.46  1842.08
                             1883.90  1951.97  1964.61  2004.88  2022.53
                             2036.43  2057.79  2132.76  2151.17  2154.18
                             2479.53  4242.11  4310.06  4364.79  4378.01
                             4386.71  4437.53  4469.77  4477.19  4533.64
                             4566.99

 Zero-point correction=                           0.160297 (Hartree/Particle)
 Thermal correction to Energy=                    0.168183
 Thermal correction to Enthalpy=                  0.169127
 Thermal correction to Gibbs Free Energy=         0.127887
 Sum of electronic and zero-point Energies=           -423.013194
 Sum of electronic and thermal Energies=              -423.005309
 Sum of electronic and thermal Enthalpies=            -423.004364
 Sum of electronic and thermal Free Energies=         -423.045604

                     E (Thermal)             CV                S
                      KCal/Mol        Cal/Mol-Kelvin    Cal/Mol-Kelvin
 Total                  105.536             30.497             86.796
 Electronic               0.000              0.000              0.000
 Translational            0.889              2.981             40.409
 Rotational               0.889              2.981             28.509
 Vibrational            103.759             24.536             17.879
 Vibration     1          0.602              1.956              3.638
 Vibration     2          0.618              1.903              2.682
 Vibration     3          0.642              1.826              2.049
 Vibration     4          0.652              1.796              1.884
 Vibration     5          0.688              1.686              1.453
 Vibration     6          0.722              1.590              1.199
 Vibration     7          0.779              1.437              0.908
 Vibration     8          0.849              1.266              0.676
 Vibration     9          0.876              1.203              0.607
 Vibration    10          0.942              1.063              0.476

 Optimization completed.
    -- Stationary point found.
 Normal termination of Gaussian 09 at Tue Jan 28 05:08:54 2020.
