 Gaussian 09, Revision D.01,
 Gaussian 09:  ES64L-G09RevD.01 24-Apr-2013

 -----------------------------
 # b3lyp 6-31G(2df,p) opt Freq
 -----------------------------

 -----
 titel
 -----
 Symbolic Z-matrix:
 Charge =  0 Multiplicity = 1

 SCF Done:  E(RB3LYP) =  -423.131022003     A.U. after   14 cycles
 Optimization completed.
    -- Stationary point found.
 Normal termination of Gaussian 09 at Tue Jan 28 08:57:13 2020.

 ----------------------------------------------------------------------
 #N Geom=AllCheck Guess=TCheck SCRF=Check GenChk RB3LYP/6-31G(2df,p) Fr
 eq
 ----------------------------------------------------------------------

 Structure from the checkpoint file:  "/scratch/puck/g09_5c5f16d0-a757-4ed9-a8a2-b32d03f12e84/Gau-144001.chk"
 -----
 titel
 -----
 Charge =  0 Multiplicity = 1

                         Standard orientation:
 ---------------------------------------------------------------------
 Center     Atomic      Atomic             Coordinates (Angstroms)
 Number     Number       Type             X           Y           Z
 ---------------------------------------------------------------------
      1          6           0        3.667142   -0.153688    0.438273
      2          6           0        2.320049   -0.290155   -0.099620
      3          6           0        1.216462   -0.407825   -0.569285
      4          6           0       -0.135829   -0.571668   -1.098926
      5          6           0       -1.211986   -0.196030   -0.078274
      6          6           0       -1.500485    1.289637    0.077476
      7          8           0       -0.340591    2.097557    0.063704
      8          6           0       -1.507683   -1.132293    1.014728
      9          8           0       -2.394523   -0.997263   -0.102874
     10          1           0        4.340064   -0.906451    0.013103
     11          1           0        4.089021    0.832018    0.213658
     12          1           0        3.678222   -0.279673    1.526588
     13          1           0       -0.263288    0.037471   -2.002156
     14          1           0       -0.304847   -1.614738   -1.390076
     15          1           0       -2.105460    1.613542   -0.778062
     16          1           0       -2.108651    1.444666    0.981962
     17          1           0        0.333674    1.676183    0.608078
     18          1           0       -0.971523   -2.078520    1.072823
     19          1           0       -1.892325   -0.754723    1.961202
 ---------------------------------------------------------------------

 SCF Done:  E(RB3LYP) =  -423.131022004     A.U. after    1 cycles

 The electronic state is 1-A.
 Alpha  occ. eigenvalues --  -19.15612 -19.13617 -10.24874 -10.23656 -10.23132
 Alpha  occ. eigenvalues --  -10.21160 -10.20874 -10.18061 -10.17750  -1.07753
 Alpha  occ. eigenvalues --   -1.01808  -0.79969  -0.76581  -0.71374  -0.67600
 Alpha  occ. eigenvalues --   -0.66654  -0.58246  -0.52464  -0.49553  -0.48085
 Alpha  occ. eigenvalues --   -0.46629  -0.45162  -0.43354  -0.43126  -0.43009
 Alpha  occ. eigenvalues --   -0.42098  -0.39390  -0.38528  -0.33847  -0.30376
 Alpha  occ. eigenvalues --   -0.28588  -0.27462  -0.25391  -0.24740
 Alpha virt. eigenvalues --    0.04671   0.05545   0.07695   0.09650   0.10090
 Alpha virt. eigenvalues --    0.10920   0.13953   0.14173   0.14844   0.15660
 Alpha virt. eigenvalues --    0.16089   0.17745   0.18341   0.20687   0.21305

 Mulliken charges:
               1
     1  C   -0.498534
     2  C    0.047572
     3  C    0.070331
     4  C   -0.415856
     5  C    0.351519
     6  C   -0.111710
     7  O   -0.410149
     8  C   -0.219726
     9  O   -0.273221
    10  H    0.151837
    11  H    0.151770
    12  H    0.146900
    13  H    0.138348
    14  H    0.138607
    15  H    0.119101
    16  H    0.092067
    17  H    0.286723
    18  H    0.119276
    19  H    0.115144
 Sum of Mulliken charges =   0.00000

 Dipole moment (field-independent basis, Debye):
    X=              1.8923    Y=             -0.8478    Z=              1.3968  Tot=              2.5001
 Quadrupole moment (field-independent basis, Debye-Ang):
   XX=            -51.1900   YY=            -57.4951   ZZ=            -49.9109
   XY=             -1.7431   XZ=              0.7942   YZ=              0.0667

  Exact polarizability: 102.710   1.492  68.084   6.044  -1.905  67.838
 Approx polarizability: 144.695   6.337  96.760  18.558  -2.565 103.870

                      1                      2                      3
                      A                      A                      A
 Frequencies --     41.1659                57.8842                74.6210
 Red. masses --      1.0238                 3.9084                 2.7348
 Frc consts  --      0.0010                 0.0077                 0.0090
 IR Inten    --      0.0364                 0.5770                 2.1317

                      4                      5                      6
                      A                      A                      A
 Frequencies --     93.4635               204.2167               224.3773
 Red. masses --      3.8696                 3.6344                 3.4386
 Frc consts  --      0.0199                 0.0893                 0.1020
 IR Inten    --      1.0156                 9.7058                 7.1815

                      7                      8                      9
                      A                      A                      A
 Frequencies --    275.8075               294.9284               345.2058
 Red. masses --      3.0730                 1.2583                 3.9851
 Frc consts  --      0.1377                 0.0645                 0.2798
 IR Inten    --     47.8689               102.3994                23.8477

                     10                     11                     12
                      A                      A                      A
 Frequencies --    375.8394               381.6877               387.8094
 Red. masses --      2.6719                 2.1648                 4.1037
 Frc consts  --      0.2224                 0.1858                 0.3636
 IR Inten    --      0.3064                17.9956                 0.4322

                     13                     14                     15
                      A                      A                      A
 Frequencies --    469.0267               507.8176               758.7431
 Red. masses --      4.3378                 7.6951                 3.4720
 Frc consts  --      0.5622                 1.1692                 1.1777
 IR Inten    --      7.4405                 1.6356                23.0081

                     16                     17                     18
                      A                      A                      A
 Frequencies --    773.9301               866.9097               919.4074
 Red. masses --      4.2643                 3.4226                 1.5485
 Frc consts  --      1.5049                 1.5155                 0.7712
 IR Inten    --      7.4790                13.7016                 8.0788

                     19                     20                     21
                      A                      A                      A
 Frequencies --    938.9067               945.8676              1045.9080
 Red. masses --      2.5131                 1.8595                 2.0932
 Frc consts  --      1.3053                 0.9802                 1.3491
 IR Inten    --     15.5931                 1.7694                10.6797

                     22                     23                     24
                      A                      A                      A
 Frequencies --   1053.9992              1055.3605              1097.5462
 Red. masses --      1.4458                 1.4610                 5.4427
 Frc consts  --      0.9463                 0.9587                 3.8629
 IR Inten    --      1.6180                 5.2515                72.7723

                     25                     26                     27
                      A                      A                      A
 Frequencies --   1129.5875              1155.7019              1162.5314
 Red. masses --      1.2710                 1.5036                 2.6226
 Frc consts  --      0.9555                 1.1832                 2.0883
 IR Inten    --      3.6975                 0.4060                 0.1037

                     28                     29                     30
                      A                      A                      A
 Frequencies --   1184.3414              1218.1442              1282.8430
 Red. masses --      1.3231                 1.1944                 2.1626
 Frc consts  --      1.0934                 1.0443                 2.0969
 IR Inten    --      2.1673                19.4319                15.3670

                     31                     32                     33
                      A                      A                      A
 Frequencies --   1325.9501              1354.8352              1415.0687
 Red. masses --      1.6145                 1.4090                 1.4481
 Frc consts  --      1.6724                 1.5239                 1.7085
 IR Inten    --      2.1031                 1.2247                16.6034

                     34                     35                     36
                      A                      A                      A
 Frequencies --   1416.0567              1441.3777              1465.5163
 Red. masses --      1.3710                 1.5315                 1.0927
 Frc consts  --      1.6198                 1.8746                 1.3827
 IR Inten    --     22.9436                14.1446                 7.9798

                     37                     38                     39
                      A                      A                      A
 Frequencies --   1478.7589              1479.7039              1507.5017
 Red. masses --      1.0394                 1.0398                 1.1050
 Frc consts  --      1.3392                 1.3414                 1.4795
 IR Inten    --      5.3796                 5.8826                 0.6068

                     40                     41                     42
                      A                      A                      A
 Frequencies --   1532.0128              2366.6862              2986.1100
 Red. masses --      1.3402                11.8163                 1.0684
 Frc consts  --      1.8532                38.9952                 5.6128
 IR Inten    --      3.4183                 0.5670                62.2482

                     43                     44                     45
                      A                      A                      A
 Frequencies --   3027.7821              3030.4760              3055.8960
 Red. masses --      1.0348                 1.0586                 1.0941
 Frc consts  --      5.5894                 5.7281                 6.0200
 IR Inten    --     28.8587                15.2926                26.3257

                     46                     47                     48
                      A                      A                      A
 Frequencies --   3070.6772              3082.5774              3088.0142
 Red. masses --      1.1020                 1.0505                 1.1001
 Frc consts  --      6.1220                 5.8810                 6.1807
 IR Inten    --      7.4791                20.8954                10.6123

                     49                     50                     51
                      A                      A                      A
 Frequencies --   3089.8021              3170.9743              3802.3737
 Red. masses --      1.1003                 1.1197                 1.0663
 Frc consts  --      6.1893                 6.6331                 9.0828
 IR Inten    --      9.0119                21.5310                33.5399

 - Thermochemistry -
 -------------------
 Temperature   298.150 Kelvin.  Pressure   1.00000 Atm.
 Atom     1 has atomic number  6 and mass  12.00000

 Molecular mass:   126.06808 amu.
 Principal axes and moments of inertia in atomic units:
                           1         2         3
     Eigenvalues --   695.787021862.017112208.86855
           X            0.99992  -0.01060   0.00614
           Y            0.01064   0.99992  -0.00653
           Z           -0.00607   0.00660   0.99996
 This molecule is an asymmetric top.
 Rotational symmetry number  1.
 Warning -- assumption of classical behavior for rotation
           may cause significant error
 Rotational temperatures (Kelvin)      0.12448     0.04652     0.03921
 Rotational constants (GHZ):           2.59381     0.96924     0.81704
 Zero-point vibrational energy     409791.1 (Joules/Mol)
                                   97.94243 (Kcal/Mol)
 Warning -- explicit consideration of  14 degrees of freedom as
           vibrations may cause significant error
 Vibrational temperatures:     59.23    83.28   107.36   134.47   293.82
          (Kelvin)            322.83   396.82   424.34   496.67   540.75
                              549.16   557.97   674.82   730.64  1091.66
                             1113.51  1247.29  1322.82  1350.88  1360.89
                             1504.83  1516.47  1518.43  1579.12  1625.22
                             1662.80  1672.62  1704.00  1752.64  1845.72
                             1907.74  1949.30  2035.97  2037.39  2073.82
                             2108.55  2127.60  2128.96  2168.96  2204.22
                             3405.13  4296.34  4356.30  4360.17  4396.75
                             4418.01  4435.14  4442.96  4445.53  4562.32
                             5470.76

 Zero-point correction=                           0.156081 (Hartree/Particle)
 Thermal correction to Energy=                    0.166557
 Thermal correction to Enthalpy=                  0.167501
 Thermal correction to Gibbs Free Energy=         0.119233
 Sum of electronic and zero-point Energies=           -422.974941
 Sum of electronic and thermal Energies=              -422.964465
 Sum of electronic and thermal Enthalpies=            -422.963521
 Sum of electronic and thermal Free Energies=         -423.011789

                     E (Thermal)             CV                S
                      KCal/Mol        Cal/Mol-Kelvin    Cal/Mol-Kelvin
 Total                  104.516             36.348            101.588
 Electronic               0.000              0.000              0.000
 Translational            0.889              2.981             40.409
 Rotational               0.889              2.981             29.438
 Vibrational            102.738             30.386             31.741
 Vibration     1          0.594              1.981              5.202
 Vibration     2          0.596              1.974              4.528
 Vibration     3          0.599              1.966              4.028
 Vibration     4          0.602              1.954              3.586
 Vibration     5          0.640              1.834              2.095
 Vibration     6          0.649              1.804              1.923
 Vibration     7          0.677              1.718              1.560
 Vibration     8          0.689              1.683              1.446
 Vibration     9          0.724              1.585              1.188
 Vibration    10          0.747              1.522              1.056
 Vibration    11          0.751              1.509              1.032
 Vibration    12          0.756              1.496              1.009
 Vibration    13          0.826              1.319              0.740
 Vibration    14          0.863              1.233              0.639

 Optimization completed.
    -- Stationary point found.
 Normal termination of Gaussian 09 at Tue Jan 28 09:35:26 2020.
