 Gaussian 09, Revision D.01,
 Gaussian 09:  ES64L-G09RevD.01 24-Apr-2013

 -----------------------------
 # b3lyp 6-31G(2df,p) opt Freq
 -----------------------------

 -----
 titel
 -----
 Symbolic Z-matrix:
 Charge =  0 Multiplicity = 1

 SCF Done:  E(RB3LYP) =  -423.221256599     A.U. after   14 cycles
 Optimization completed.
    -- Stationary point found.
 Normal termination of Gaussian 09 at Mon Jan 27 13:05:50 2020.

 ----------------------------------------------------------------------
 #N Geom=AllCheck Guess=TCheck SCRF=Check GenChk RB3LYP/6-31G(2df,p) Fr
 eq
 ----------------------------------------------------------------------

 Structure from the checkpoint file:  "/scratch/puck/g09_c720de61-51d0-4e8e-88fa-db23ac6a2ad2/Gau-157889.chk"
 -----
 titel
 -----
 Charge =  0 Multiplicity = 1

                         Standard orientation:
 ---------------------------------------------------------------------
 Center     Atomic      Atomic             Coordinates (Angstroms)
 Number     Number       Type             X           Y           Z
 ---------------------------------------------------------------------
      1          8           0       -0.725039    2.100056    0.275552
      2          6           0       -0.885235    0.920186    0.158242
      3          8           0       -2.005610    0.390709   -0.407667
      4          6           0       -1.928295   -1.042953   -0.464080
      5          6           0       -0.845668   -1.444691    0.550670
      6          6           0        0.069718   -0.209924    0.564480
      7          6           0        1.234823   -0.285996   -0.409310
      8          6           0        2.371023    0.693765   -0.298803
      9          6           0        2.588222   -0.753664    0.068642
     10          1           0       -2.918344   -1.439960   -0.230244
     11          1           0       -1.668912   -1.338273   -1.487607
     12          1           0       -1.295867   -1.598396    1.535590
     13          1           0       -0.327513   -2.362911    0.266306
     14          1           0        0.457142    0.017155    1.560997
     15          1           0        0.955260   -0.582423   -1.417668
     16          1           0        2.816223    1.066979   -1.213879
     17          1           0        2.322575    1.425587    0.499543
     18          1           0        3.181680   -1.372669   -0.594939
     19          1           0        2.695431   -1.001551    1.119781
 ---------------------------------------------------------------------

 SCF Done:  E(RB3LYP) =  -423.221256599     A.U. after    1 cycles

 The electronic state is 1-A.
 Alpha  occ. eigenvalues --  -19.17786 -19.11772 -10.29712 -10.24956 -10.20870
 Alpha  occ. eigenvalues --  -10.20363 -10.20244 -10.19207 -10.18817  -1.09524
 Alpha  occ. eigenvalues --   -1.01623  -0.86921  -0.80036  -0.73076  -0.63769
 Alpha  occ. eigenvalues --   -0.60499  -0.58728  -0.55968  -0.51336  -0.50524
 Alpha  occ. eigenvalues --   -0.47812  -0.45968  -0.45015  -0.41959  -0.40234
 Alpha  occ. eigenvalues --   -0.39544  -0.37449  -0.36847  -0.35493  -0.33958
 Alpha  occ. eigenvalues --   -0.30336  -0.29719  -0.28888  -0.25473
 Alpha virt. eigenvalues --    0.01401   0.07365   0.08894   0.10430   0.11795
 Alpha virt. eigenvalues --    0.12382   0.13434   0.14285   0.15672   0.16558
 Alpha virt. eigenvalues --    0.17091   0.19354   0.20161   0.20309   0.22290

 Mulliken charges:
               1
     1  O   -0.343646
     2  C    0.441121
     3  O   -0.219355
     4  C   -0.078826
     5  C   -0.256396
     6  C   -0.166135
     7  C    0.027883
     8  C   -0.258129
     9  C   -0.285145
    10  H    0.125054
    11  H    0.117263
    12  H    0.116545
    13  H    0.116193
    14  H    0.100916
    15  H    0.086630
    16  H    0.117371
    17  H    0.130959
    18  H    0.114534
    19  H    0.113163
 Sum of Mulliken charges =   0.00000

 Dipole moment (field-independent basis, Debye):
    X=              0.8730    Y=             -4.0704    Z=              0.0491  Tot=              4.1632
 Quadrupole moment (field-independent basis, Debye-Ang):
   XX=            -53.1372   YY=            -58.8632   ZZ=            -50.3323
   XY=              5.1537   XZ=             -1.1272   YZ=              0.1138

  Exact polarizability:  83.807   4.233  77.894   0.927   1.188  62.890
 Approx polarizability: 109.049   5.758 119.642   3.516   4.123  96.440

                      1                      2                      3
                      A                      A                      A
 Frequencies --     57.3504                80.6045               153.2272
 Red. masses --      2.9278                 3.9603                 3.2720
 Frc consts  --      0.0057                 0.0152                 0.0453
 IR Inten    --      1.3985                 0.7107                 3.2900

                      4                      5                      6
                      A                      A                      A
 Frequencies --    186.5257               274.9807               298.7508
 Red. masses --      2.8364                 2.3236                 3.2978
 Frc consts  --      0.0581                 0.1035                 0.1734
 IR Inten    --      0.2385                 1.9922                 0.4035

                      7                      8                      9
                      A                      A                      A
 Frequencies --    391.2407               513.6596               658.1101
 Red. masses --      3.3045                 4.3453                 2.8534
 Frc consts  --      0.2980                 0.6755                 0.7281
 IR Inten    --      0.6170                 4.6567                 1.0104

                     10                     11                     12
                      A                      A                      A
 Frequencies --    682.2152               697.9774               767.1258
 Red. masses --      6.3544                 4.1946                 1.2095
 Frc consts  --      1.7425                 1.2040                 0.4194
 IR Inten    --      7.0460                 2.9818                 1.1588

                     13                     14                     15
                      A                      A                      A
 Frequencies --    813.6302               831.4010               865.1821
 Red. masses --      1.6819                 1.3898                 2.8128
 Frc consts  --      0.6560                 0.5660                 1.2405
 IR Inten    --      0.6416                 8.2051                 2.9057

                     16                     17                     18
                      A                      A                      A
 Frequencies --    893.8231               925.5118               960.8144
 Red. masses --      2.3573                 3.1484                 2.6801
 Frc consts  --      1.1096                 1.5889                 1.4577
 IR Inten    --      3.0432                13.3430                 4.4744

                     19                     20                     21
                      A                      A                      A
 Frequencies --    973.1609              1036.2072              1051.4954
 Red. masses --      2.4210                 2.1766                 1.4222
 Frc consts  --      1.3508                 1.3770                 0.9265
 IR Inten    --     24.8077                28.1606                11.5679

                     22                     23                     24
                      A                      A                      A
 Frequencies --   1060.2706              1069.5352              1078.6598
 Red. masses --      1.4188                 3.1994                 1.4785
 Frc consts  --      0.9397                 2.1563                 1.0135
 IR Inten    --     15.2583                34.8962                12.1969

                     25                     26                     27
                      A                      A                      A
 Frequencies --   1133.0716              1172.6078              1179.0888
 Red. masses --      1.1332                 3.4975                 1.9856
 Frc consts  --      0.8572                 2.8334                 1.6264
 IR Inten    --      0.4706               184.1319                12.3272

                     28                     29                     30
                      A                      A                      A
 Frequencies --   1194.5141              1218.2620              1227.6622
 Red. masses --      1.3933                 1.4751                 1.8777
 Frc consts  --      1.1713                 1.2899                 1.6674
 IR Inten    --      1.3243                21.7771                 0.8008

                     31                     32                     33
                      A                      A                      A
 Frequencies --   1241.2664              1274.0959              1293.3797
 Red. masses --      1.3395                 1.3913                 1.3293
 Frc consts  --      1.2160                 1.3307                 1.3101
 IR Inten    --      9.8175                 0.9022                 3.8121

                     34                     35                     36
                      A                      A                      A
 Frequencies --   1338.6550              1401.0438              1414.5487
 Red. masses --      1.3922                 1.4486                 1.5905
 Frc consts  --      1.4699                 1.6753                 1.8751
 IR Inten    --      6.3073                21.8187                 2.9688

                     37                     38                     39
                      A                      A                      A
 Frequencies --   1473.6997              1492.7513              1508.1725
 Red. masses --      1.0882                 1.0941                 1.3583
 Frc consts  --      1.3924                 1.4364                 1.8203
 IR Inten    --      1.8806                 3.2565                 0.9733

                     40                     41                     42
                      A                      A                      A
 Frequencies --   1525.5144              1878.2730              3036.4880
 Red. masses --      1.0894                12.7901                 1.0670
 Frc consts  --      1.4937                26.5853                 5.7966
 IR Inten    --      1.9203               304.1386                38.5757

                     43                     44                     45
                      A                      A                      A
 Frequencies --   3060.3687              3079.2516              3104.5525
 Red. masses --      1.0645                 1.0830                 1.0976
 Frc consts  --      5.8741                 6.0503                 6.2328
 IR Inten    --     14.9445                 7.2875                22.1118

                     46                     47                     48
                      A                      A                      A
 Frequencies --   3118.5579              3130.5475              3132.7015
 Red. masses --      1.1049                 1.0621                 1.0774
 Frc consts  --      6.3313                 6.1330                 6.2295
 IR Inten    --     25.3816                18.8122                13.9321

                     49                     50                     51
                      A                      A                      A
 Frequencies --   3144.6023              3211.8967              3230.5363
 Red. masses --      1.0583                 1.1175                 1.1156
 Frc consts  --      6.1658                 6.7924                 6.8600
 IR Inten    --      6.7675                 3.4861                12.8082

 - Thermochemistry -
 -------------------
 Temperature   298.150 Kelvin.  Pressure   1.00000 Atm.
 Atom     1 has atomic number  8 and mass  15.99491

 Molecular mass:   126.06808 amu.
 Principal axes and moments of inertia in atomic units:
                           1         2         3
     Eigenvalues --   653.928301345.397961785.62190
           X            0.99923   0.03905  -0.00232
           Y           -0.03906   0.99922  -0.00654
           Z            0.00206   0.00663   0.99998
 This molecule is an asymmetric top.
 Rotational symmetry number  1.
 Warning -- assumption of classical behavior for rotation
           may cause significant error
 Rotational temperatures (Kelvin)      0.13245     0.06438     0.04851
 Rotational constants (GHZ):           2.75985     1.34142     1.01071
 Zero-point vibrational energy     421908.4 (Joules/Mol)
                                  100.83852 (Kcal/Mol)
 Warning -- explicit consideration of   8 degrees of freedom as
           vibrations may cause significant error
 Vibrational temperatures:     82.51   115.97   220.46   268.37   395.64
          (Kelvin)            429.84   562.91   739.04   946.87   981.55
                             1004.23  1103.72  1170.63  1196.20  1244.80
                             1286.01  1331.60  1382.40  1400.16  1490.87
                             1512.87  1525.49  1538.82  1551.95  1630.24
                             1687.12  1696.44  1718.64  1752.81  1766.33
                             1785.90  1833.14  1860.88  1926.02  2015.79
                             2035.22  2120.32  2147.73  2169.92  2194.87
                             2702.41  4368.82  4403.18  4430.35  4466.75
                             4486.90  4504.15  4507.25  4524.38  4621.20
                             4648.02

 Zero-point correction=                           0.160696 (Hartree/Particle)
 Thermal correction to Energy=                    0.168929
 Thermal correction to Enthalpy=                  0.169874
 Thermal correction to Gibbs Free Energy=         0.126986
 Sum of electronic and zero-point Energies=           -423.060560
 Sum of electronic and thermal Energies=              -423.052327
 Sum of electronic and thermal Enthalpies=            -423.051383
 Sum of electronic and thermal Free Energies=         -423.094270

                     E (Thermal)             CV                S
                      KCal/Mol        Cal/Mol-Kelvin    Cal/Mol-Kelvin
 Total                  106.005             30.676             90.264
 Electronic               0.000              0.000              0.000
 Translational            0.889              2.981             40.409
 Rotational               0.889              2.981             28.842
 Vibrational            104.227             24.714             21.013
 Vibration     1          0.596              1.975              4.546
 Vibration     2          0.600              1.962              3.876
 Vibration     3          0.619              1.899              2.632
 Vibration     4          0.632              1.858              2.262
 Vibration     5          0.677              1.720              1.565
 Vibration     6          0.692              1.676              1.424
 Vibration     7          0.759              1.489              0.995
 Vibration     8          0.869              1.220              0.625

 Optimization completed.
    -- Stationary point found.
 Normal termination of Gaussian 09 at Mon Jan 27 13:51:23 2020.
