 Gaussian 09, Revision D.01,
 Gaussian 09:  ES64L-G09RevD.01 24-Apr-2013

 -----------------------------
 # b3lyp 6-31G(2df,p) opt Freq
 -----------------------------

 -----
 titel
 -----
 Symbolic Z-matrix:
 Charge =  0 Multiplicity = 1

 SCF Done:  E(RB3LYP) =  -423.159173424     A.U. after   14 cycles
 Optimization completed.
    -- Stationary point found.
 Normal termination of Gaussian 09 at Tue Jan 28 11:43:27 2020.

 ----------------------------------------------------------------------
 #N Geom=AllCheck Guess=TCheck SCRF=Check GenChk RB3LYP/6-31G(2df,p) Fr
 eq
 ----------------------------------------------------------------------

 Structure from the checkpoint file:  "/scratch/puck/g09_363150d8-0a24-459e-abbb-ebc2757d1dcf/Gau-24727.chk"
 -----
 titel
 -----
 Charge =  0 Multiplicity = 1

                         Standard orientation:
 ---------------------------------------------------------------------
 Center     Atomic      Atomic             Coordinates (Angstroms)
 Number     Number       Type             X           Y           Z
 ---------------------------------------------------------------------
      1          6           0       -2.614445   -0.136464   -0.392817
      2          8           0       -1.455993    0.665807   -0.475854
      3          6           0       -0.590696    0.558536    0.634875
      4          6           0        0.511510    1.608919    0.428249
      5          6           0        1.666750    1.137129   -0.417811
      6          6           0        2.026510   -0.142293   -0.513102
      7          6           0        1.285347   -1.198213    0.218706
      8          8           0        0.053287   -1.672827   -0.361569
      9          6           0       -0.019186   -0.863570    0.811326
     10          1           0       -3.180364    0.067138    0.530981
     11          1           0       -3.240839    0.121944   -1.250065
     12          1           0       -2.378459   -1.206784   -0.437045
     13          1           0       -1.148927    0.804859    1.554593
     14          1           0        0.040847    2.486516   -0.025376
     15          1           0        0.892585    1.937341    1.405723
     16          1           0        2.232600    1.900176   -0.945999
     17          1           0        2.873151   -0.444490   -1.122224
     18          1           0        1.879440   -1.992610    0.670309
     19          1           0       -0.343126   -1.402197    1.701935
 ---------------------------------------------------------------------

 SCF Done:  E(RB3LYP) =  -423.159173424     A.U. after    1 cycles

 The electronic state is 1-A.
 Alpha  occ. eigenvalues --  -19.14747 -19.13601 -10.23762 -10.23636 -10.23258
 Alpha  occ. eigenvalues --  -10.21600 -10.19103 -10.18912 -10.18231  -1.06845
 Alpha  occ. eigenvalues --   -1.02711  -0.81502  -0.75049  -0.69315  -0.67051
 Alpha  occ. eigenvalues --   -0.62956  -0.59157  -0.52804  -0.50907  -0.48322
 Alpha  occ. eigenvalues --   -0.47541  -0.45419  -0.44419  -0.42506  -0.39886
 Alpha  occ. eigenvalues --   -0.38757  -0.38331  -0.36036  -0.35048  -0.30774
 Alpha  occ. eigenvalues --   -0.30416  -0.26801  -0.25140  -0.24557
 Alpha virt. eigenvalues --    0.00257   0.07688   0.09284   0.11409   0.12944
 Alpha virt. eigenvalues --    0.13207   0.14952   0.16349   0.16660   0.17061
 Alpha virt. eigenvalues --    0.17907   0.18329   0.19353   0.20817   0.22474

 Mulliken charges:
               1
     1  C   -0.239451
     2  O   -0.232450
     3  C    0.105958
     4  C   -0.295363
     5  C   -0.044898
     6  C   -0.077295
     7  C    0.022520
     8  O   -0.238019
     9  C   -0.019037
    10  H    0.094925
    11  H    0.125692
    12  H    0.130944
    13  H    0.056508
    14  H    0.123412
    15  H    0.113585
    16  H    0.096344
    17  H    0.093398
    18  H    0.091561
    19  H    0.091665
 Sum of Mulliken charges =   0.00000

 Dipole moment (field-independent basis, Debye):
    X=              0.5400    Y=              0.6680    Z=              1.8264  Tot=              2.0183
 Quadrupole moment (field-independent basis, Debye-Ang):
   XX=            -48.4429   YY=            -53.6450   ZZ=            -52.7650
   XY=              0.4024   XZ=             -1.4434   YZ=             -1.2735

  Exact polarizability:  84.886  -1.737  80.873  -5.676  -0.317  62.940
 Approx polarizability: 111.683  -4.532 126.791  -6.881   3.437  98.570

                      1                      2                      3
                      A                      A                      A
 Frequencies --     53.3326               137.1218               192.7779
 Red. masses --      3.3586                 2.2433                 1.7171
 Frc consts  --      0.0056                 0.0249                 0.0376
 IR Inten    --      0.4715                 5.0823                 0.9720

                      4                      5                      6
                      A                      A                      A
 Frequencies --    234.7686               280.8116               306.9070
 Red. masses --      2.0521                 2.2627                 4.8476
 Frc consts  --      0.0666                 0.1051                 0.2690
 IR Inten    --      3.1668                 2.5490                 2.1818

                      7                      8                      9
                      A                      A                      A
 Frequencies --    365.4487               484.2031               501.5625
 Red. masses --      3.4877                 2.7842                 4.2538
 Frc consts  --      0.2744                 0.3846                 0.6305
 IR Inten    --      0.5757                 3.2283                 2.7533

                     10                     11                     12
                      A                      A                      A
 Frequencies --    565.4497               666.2547               718.9129
 Red. masses --      4.1837                 3.5474                 1.9859
 Frc consts  --      0.7881                 0.9278                 0.6047
 IR Inten    --      1.7712                20.5061                13.3473

                     13                     14                     15
                      A                      A                      A
 Frequencies --    767.1468               844.5672               857.1351
 Red. masses --      3.7472                 3.4571                 2.3845
 Frc consts  --      1.2993                 1.4529                 1.0321
 IR Inten    --      6.2959                 4.9891                34.2607

                     16                     17                     18
                      A                      A                      A
 Frequencies --    890.9827               931.6005               957.0065
 Red. masses --      2.8608                 2.8963                 4.9660
 Frc consts  --      1.3381                 1.4810                 2.6797
 IR Inten    --      3.8088                11.7962                 4.0372

                     19                     20                     21
                      A                      A                      A
 Frequencies --    990.7996              1000.5134              1044.8581
 Red. masses --      1.6976                 2.0471                 2.0783
 Frc consts  --      0.9819                 1.2073                 1.3368
 IR Inten    --     12.3758                12.9457                 8.7728

                     22                     23                     24
                      A                      A                      A
 Frequencies --   1056.3489              1107.2522              1145.5007
 Red. masses --      1.8794                 1.4728                 2.0723
 Frc consts  --      1.2357                 1.0639                 1.6021
 IR Inten    --      3.9740                 3.3708                67.7557

                     25                     26                     27
                      A                      A                      A
 Frequencies --   1157.0545              1182.4070              1195.0154
 Red. masses --      1.9982                 1.2874                 1.1697
 Frc consts  --      1.5761                 1.0604                 0.9842
 IR Inten    --     66.7752                 5.3220                 0.4309

                     28                     29                     30
                      A                      A                      A
 Frequencies --   1212.3589              1260.3995              1289.1973
 Red. masses --      1.2533                 1.3801                 1.2808
 Frc consts  --      1.0854                 1.2918                 1.2542
 IR Inten    --      2.9282                26.7210                11.7753

                     31                     32                     33
                      A                      A                      A
 Frequencies --   1332.3008              1354.9172              1371.0335
 Red. masses --      2.1054                 1.2390                 1.2121
 Frc consts  --      2.2018                 1.3401                 1.3424
 IR Inten    --      3.5157                 0.7501                19.6787

                     34                     35                     36
                      A                      A                      A
 Frequencies --   1395.3605              1423.4345              1458.5853
 Red. masses --      1.4752                 1.5511                 1.4414
 Frc consts  --      1.6923                 1.8516                 1.8068
 IR Inten    --      5.8751                 0.9658                 0.6430

                     37                     38                     39
                      A                      A                      A
 Frequencies --   1463.8235              1479.7275              1490.4808
 Red. masses --      1.8566                 1.1244                 1.0958
 Frc consts  --      2.3439                 1.4506                 1.4343
 IR Inten    --     20.7362                 2.9949                 1.4275

                     40                     41                     42
                      A                      A                      A
 Frequencies --   1512.3013              1716.5774              2945.9076
 Red. masses --      1.0471                 6.6448                 1.0819
 Frc consts  --      1.4109                11.5361                 5.5320
 IR Inten    --      4.5703                 6.0600                44.9387

                     43                     44                     45
                      A                      A                      A
 Frequencies --   2973.9935              3013.0061              3054.8018
 Red. masses --      1.0477                 1.0702                 1.0885
 Frc consts  --      5.4594                 5.7240                 5.9847
 IR Inten    --     73.0826                30.1352                32.9134

                     46                     47                     48
                      A                      A                      A
 Frequencies --   3081.3013              3099.3673              3112.6659
 Red. masses --      1.0908                 1.0859                 1.0903
 Frc consts  --      6.1020                 6.1460                 6.2240
 IR Inten    --     10.8882                20.0882                45.6960

                     49                     50                     51
                      A                      A                      A
 Frequencies --   3115.8068              3155.7779              3180.2016
 Red. masses --      1.0993                 1.0844                 1.0973
 Frc consts  --      6.2879                 6.3628                 6.5387
 IR Inten    --     34.4097                 7.9271                27.3095

 - Thermochemistry -
 -------------------
 Temperature   298.150 Kelvin.  Pressure   1.00000 Atm.
 Atom     1 has atomic number  6 and mass  12.00000

 Molecular mass:   126.06808 amu.
 Principal axes and moments of inertia in atomic units:
                           1         2         3
     Eigenvalues --   682.044131113.182411507.40090
           X            0.99970   0.02310  -0.00792
           Y           -0.02315   0.99971  -0.00613
           Z            0.00777   0.00631   0.99995
 This molecule is an asymmetric top.
 Rotational symmetry number  1.
 Warning -- assumption of classical behavior for rotation
           may cause significant error
 Rotational temperatures (Kelvin)      0.12699     0.07781     0.05746
 Rotational constants (GHZ):           2.64608     1.62124     1.19725
 Zero-point vibrational energy     419465.0 (Joules/Mol)
                                  100.25453 (Kcal/Mol)
 Warning -- explicit consideration of  10 degrees of freedom as
           vibrations may cause significant error
 Vibrational temperatures:     76.73   197.29   277.36   337.78   404.02
          (Kelvin)            441.57   525.80   696.66   721.64   813.55
                              958.59  1034.35  1103.75  1215.14  1233.22
                             1281.92  1340.36  1376.92  1425.54  1439.51
                             1503.32  1519.85  1593.09  1648.12  1664.74
                             1701.22  1719.36  1744.31  1813.43  1854.87
                             1916.88  1949.42  1972.61  2007.61  2048.00
                             2098.58  2106.11  2129.00  2144.47  2175.86
                             2469.77  4238.50  4278.91  4335.04  4395.17
                             4433.30  4459.29  4478.43  4482.95  4540.45
                             4575.60

 Zero-point correction=                           0.159766 (Hartree/Particle)
 Thermal correction to Energy=                    0.167957
 Thermal correction to Enthalpy=                  0.168901
 Thermal correction to Gibbs Free Energy=         0.126693
 Sum of electronic and zero-point Energies=           -422.999408
 Sum of electronic and thermal Energies=              -422.991217
 Sum of electronic and thermal Enthalpies=            -422.990273
 Sum of electronic and thermal Free Energies=         -423.032480

                     E (Thermal)             CV                S
                      KCal/Mol        Cal/Mol-Kelvin    Cal/Mol-Kelvin
 Total                  105.394             31.101             88.833
 Electronic               0.000              0.000              0.000
 Translational            0.889              2.981             40.409
 Rotational               0.889              2.981             28.528
 Vibrational            103.617             25.140             19.897
 Vibration     1          0.596              1.976              4.690
 Vibration     2          0.614              1.916              2.844
 Vibration     3          0.635              1.850              2.201
 Vibration     4          0.655              1.788              1.842
 Vibration     5          0.680              1.709              1.529
 Vibration     6          0.697              1.661              1.379
 Vibration     7          0.739              1.543              1.099
 Vibration     8          0.840              1.285              0.699
 Vibration     9          0.857              1.247              0.654
 Vibration    10          0.921              1.106              0.513

 Normal termination of Gaussian 09 at Tue Jan 28 12:25:31 2020.
