 Gaussian 09, Revision D.01,
 Gaussian 09:  ES64L-G09RevD.01 24-Apr-2013

 -----------------------------
 # b3lyp 6-31G(2df,p) opt Freq
 -----------------------------

 -----
 titel
 -----
 Symbolic Z-matrix:
 Charge =  0 Multiplicity = 1

 SCF Done:  E(RB3LYP) =  -423.153122441     A.U. after   14 cycles
 Optimization completed.
    -- Stationary point found.
 Normal termination of Gaussian 09 at Mon Jan 27 18:12:04 2020.

 ----------------------------------------------------------------------
 #N Geom=AllCheck Guess=TCheck SCRF=Check GenChk RB3LYP/6-31G(2df,p) Fr
 eq
 ----------------------------------------------------------------------

 Structure from the checkpoint file:  "/scratch/puck/g09_152c24de-9b75-4c2a-a0d6-bd833a1c2d63/Gau-89300.chk"
 -----
 titel
 -----
 Charge =  0 Multiplicity = 1

                         Standard orientation:
 ---------------------------------------------------------------------
 Center     Atomic      Atomic             Coordinates (Angstroms)
 Number     Number       Type             X           Y           Z
 ---------------------------------------------------------------------
      1          6           0        1.888711   -1.210466    0.282398
      2          6           0        0.557269   -0.604315   -0.032981
      3          8           0        0.116345   -0.697322   -1.400879
      4          6           0       -0.883387    0.294772   -1.019465
      5          6           0       -1.816277   -0.543067   -0.129790
      6          6           0       -0.722571   -0.793208    0.928636
      7          6           0       -0.468546    0.646193    1.463208
      8          6           0        0.112392    0.885361    0.073387
      9          8           0        0.882985    2.001564   -0.195478
     10          1           0        1.876448   -2.288577    0.089647
     11          1           0        2.676939   -0.762460   -0.330706
     12          1           0        2.142007   -1.056862    1.335634
     13          1           0       -1.274430    0.874577   -1.855670
     14          1           0       -2.676776   -0.001168    0.272129
     15          1           0       -2.154661   -1.435286   -0.661037
     16          1           0       -0.815535   -1.641660    1.602928
     17          1           0       -1.334397    1.226565    1.793278
     18          1           0        0.320079    0.689503    2.219176
     19          1           0        1.240136    1.909812   -1.086889
 ---------------------------------------------------------------------

 SCF Done:  E(RB3LYP) =  -423.153122441     A.U. after    1 cycles

 The electronic state is 1-A.
 Alpha  occ. eigenvalues --  -19.14951 -19.13175 -10.23632 -10.23252 -10.23196
 Alpha  occ. eigenvalues --  -10.19193 -10.18292 -10.18234 -10.18201  -1.05871
 Alpha  occ. eigenvalues --   -1.02390  -0.85207  -0.75608  -0.70583  -0.66335
 Alpha  occ. eigenvalues --   -0.62583  -0.57268  -0.53960  -0.49876  -0.48991
 Alpha  occ. eigenvalues --   -0.47105  -0.44930  -0.41270  -0.40677  -0.39136
 Alpha  occ. eigenvalues --   -0.37997  -0.37792  -0.35164  -0.34385  -0.33542
 Alpha  occ. eigenvalues --   -0.31942  -0.29206  -0.25251  -0.23433
 Alpha virt. eigenvalues --    0.07576   0.09586   0.10073   0.12193   0.13045
 Alpha virt. eigenvalues --    0.13508   0.14372   0.15198   0.16066   0.17095
 Alpha virt. eigenvalues --    0.17632   0.19171   0.19705   0.21722   0.22018

 Mulliken charges:
               1
     1  C   -0.513140
     2  C    0.384444
     3  O   -0.338785
     4  C   -0.020857
     5  C   -0.207767
     6  C   -0.128799
     7  C   -0.294053
     8  C    0.376674
     9  O   -0.485247
    10  H    0.132324
    11  H    0.123972
    12  H    0.127949
    13  H    0.076101
    14  H    0.097336
    15  H    0.106312
    16  H    0.070633
    17  H    0.097295
    18  H    0.107090
    19  H    0.288518
 Sum of Mulliken charges =   0.00000

 Dipole moment (field-independent basis, Debye):
    X=             -0.2228    Y=             -0.2150    Z=              0.4110  Tot=              0.5145
 Quadrupole moment (field-independent basis, Debye-Ang):
   XX=            -50.3708   YY=            -55.8214   ZZ=            -52.8622
   XY=             -1.0295   XZ=             -0.3926   YZ=             -4.5563

  Exact polarizability:  78.779  -1.272  70.884   0.178  -1.445  72.281
 Approx polarizability: 109.823  -1.039 106.853  -1.484  -0.228 111.464

                      1                      2                      3
                      A                      A                      A
 Frequencies --    172.3300               186.3204               258.0919
 Red. masses --      1.4206                 1.7295                 2.5771
 Frc consts  --      0.0249                 0.0354                 0.1011
 IR Inten    --      0.2925                 0.2374                 2.2973

                      4                      5                      6
                      A                      A                      A
 Frequencies --    276.9882               329.2715               354.8708
 Red. masses --      2.7913                 2.1391                 1.4424
 Frc consts  --      0.1262                 0.1366                 0.1070
 IR Inten    --     15.5131                19.2826                68.1051

                      7                      8                      9
                      A                      A                      A
 Frequencies --    461.2535               495.3736               527.6227
 Red. masses --      1.9389                 2.6237                 4.1414
 Frc consts  --      0.2430                 0.3793                 0.6793
 IR Inten    --      2.1953                 6.7918                 2.3873

                     10                     11                     12
                      A                      A                      A
 Frequencies --    610.6225               657.6512               702.6974
 Red. masses --      4.3163                 4.0506                 3.8588
 Frc consts  --      0.9482                 1.0322                 1.1226
 IR Inten    --      2.8450                 4.7470                 3.3025

                     13                     14                     15
                      A                      A                      A
 Frequencies --    726.4415               793.3012               871.7459
 Red. masses --      3.5947                 3.2603                 3.0155
 Frc consts  --      1.1177                 1.2089                 1.3502
 IR Inten    --      2.2592                 2.5176                17.2150

                     16                     17                     18
                      A                      A                      A
 Frequencies --    888.4838               893.3391               919.1891
 Red. masses --      2.7085                 2.1780                 2.0475
 Frc consts  --      1.2597                 1.0241                 1.0192
 IR Inten    --     29.9869                 3.7042                 6.1344

                     19                     20                     21
                      A                      A                      A
 Frequencies --    931.1481               962.6372              1002.1917
 Red. masses --      2.4904                 1.9450                 2.0053
 Frc consts  --      1.2722                 1.0619                 1.1867
 IR Inten    --     22.2754                 3.5797                 6.9973

                     22                     23                     24
                      A                      A                      A
 Frequencies --   1040.0800              1046.2762              1084.7653
 Red. masses --      1.4655                 1.5974                 1.4811
 Frc consts  --      0.9341                 1.0303                 1.0268
 IR Inten    --     18.7236                14.0160                 4.5782

                     25                     26                     27
                      A                      A                      A
 Frequencies --   1115.1276              1131.7442              1145.8530
 Red. masses --      2.0404                 1.6653                 1.7827
 Frc consts  --      1.4949                 1.2567                 1.3791
 IR Inten    --     27.9025                 4.9861                13.0299

                     28                     29                     30
                      A                      A                      A
 Frequencies --   1169.0617              1196.1855              1230.8231
 Red. masses --      1.7531                 1.7675                 1.5590
 Frc consts  --      1.4117                 1.4901                 1.3915
 IR Inten    --     10.7998                11.5752                13.7508

                     31                     32                     33
                      A                      A                      A
 Frequencies --   1243.4307              1283.8086              1300.7624
 Red. masses --      1.8195                 1.6269                 1.6136
 Frc consts  --      1.6575                 1.5799                 1.6086
 IR Inten    --     20.9611                25.9864                14.0333

                     34                     35                     36
                      A                      A                      A
 Frequencies --   1312.1860              1364.3339              1398.2479
 Red. masses --      2.2407                 2.9199                 1.9219
 Frc consts  --      2.2732                 3.2022                 2.2139
 IR Inten    --     63.7168                73.9361                 2.4219

                     37                     38                     39
                      A                      A                      A
 Frequencies --   1416.2428              1476.0512              1481.2102
 Red. masses --      1.6638                 1.0601                 1.1145
 Frc consts  --      1.9662                 1.3609                 1.4407
 IR Inten    --     13.0252                 7.2370                 1.3396

                     40                     41                     42
                      A                      A                      A
 Frequencies --   1492.6972              1507.1603              3035.6611
 Red. masses --      1.0534                 1.1615                 1.0352
 Frc consts  --      1.3828                 1.5545                 5.6207
 IR Inten    --      4.6015                 7.7883                21.5315

                     43                     44                     45
                      A                      A                      A
 Frequencies --   3056.9118              3062.6462              3102.2155
 Red. masses --      1.0574                 1.0585                 1.1011
 Frc consts  --      5.8217                 5.8495                 6.2435
 IR Inten    --     28.4503                27.8279                14.4726

                     46                     47                     48
                      A                      A                      A
 Frequencies --   3111.7599              3114.7969              3118.8990
 Red. masses --      1.1050                 1.1034                 1.1068
 Frc consts  --      6.3039                 6.3071                 6.3431
 IR Inten    --     20.7324                15.3043                22.5378

                     49                     50                     51
                      A                      A                      A
 Frequencies --   3122.7445              3141.8417              3790.3032
 Red. masses --      1.0918                 1.0913                 1.0654
 Frc consts  --      6.2731                 6.3470                 9.0176
 IR Inten    --     45.1512                26.4727                22.8924

 - Thermochemistry -
 -------------------
 Temperature   298.150 Kelvin.  Pressure   1.00000 Atm.
 Atom     1 has atomic number  6 and mass  12.00000

 Molecular mass:   126.06808 amu.
 Principal axes and moments of inertia in atomic units:
                           1         2         3
     Eigenvalues --   845.25506 896.167221032.34657
           X            0.95044  -0.31002   0.02351
           Y            0.31090   0.94706  -0.08010
           Z            0.00257   0.08344   0.99651
 This molecule is an asymmetric top.
 Rotational symmetry number  1.
 Warning -- assumption of classical behavior for rotation
           may cause significant error
 Rotational temperatures (Kelvin)      0.10247     0.09665     0.08390
 Rotational constants (GHZ):           2.13514     2.01384     1.74819
 Zero-point vibrational energy     419383.2 (Joules/Mol)
                                  100.23499 (Kcal/Mol)
 Warning -- explicit consideration of  10 degrees of freedom as
           vibrations may cause significant error
 Vibrational temperatures:    247.94   268.07   371.34   398.52   473.75
          (Kelvin)            510.58   663.64   712.73   759.13   878.55
                              946.21  1011.02  1045.19  1141.38  1254.25
                             1278.33  1285.31  1322.51  1339.71  1385.02
                             1441.93  1496.44  1505.36  1560.73  1604.42
                             1628.33  1648.62  1682.02  1721.04  1770.88
                             1789.02  1847.11  1871.50  1887.94  1962.97
                             2011.76  2037.66  2123.71  2131.13  2147.66
                             2168.46  4367.63  4398.21  4406.46  4463.39
                             4477.12  4481.49  4487.39  4492.93  4520.40
                             5453.39

 Zero-point correction=                           0.159735 (Hartree/Particle)
 Thermal correction to Energy=                    0.167333
 Thermal correction to Enthalpy=                  0.168277
 Thermal correction to Gibbs Free Energy=         0.128313
 Sum of electronic and zero-point Energies=           -422.993388
 Sum of electronic and thermal Energies=              -422.985789
 Sum of electronic and thermal Enthalpies=            -422.984845
 Sum of electronic and thermal Free Energies=         -423.024809

                     E (Thermal)             CV                S
                      KCal/Mol        Cal/Mol-Kelvin    Cal/Mol-Kelvin
 Total                  105.003             31.213             84.112
 Electronic               0.000              0.000              0.000
 Translational            0.889              2.981             40.409
 Rotational               0.889              2.981             28.149
 Vibrational            103.226             25.252             15.554
 Vibration     1          0.626              1.877              2.410
 Vibration     2          0.632              1.859              2.264
 Vibration     3          0.667              1.749              1.675
 Vibration     4          0.678              1.716              1.552
 Vibration     5          0.712              1.617              1.264
 Vibration     6          0.731              1.565              1.144
 Vibration     7          0.819              1.336              0.762
 Vibration     8          0.851              1.260              0.670
 Vibration     9          0.883              1.189              0.593
 Vibration    10          0.970              1.009              0.432

 Normal termination of Gaussian 09 at Mon Jan 27 19:00:06 2020.
