 Gaussian 09, Revision D.01,
 Gaussian 09:  ES64L-G09RevD.01 24-Apr-2013

 -----------------------------
 # b3lyp 6-31G(2df,p) opt Freq
 -----------------------------

 -----
 titel
 -----
 Symbolic Z-matrix:
 Charge =  0 Multiplicity = 1

 SCF Done:  E(RB3LYP) =  -423.128815990     A.U. after   14 cycles
 Optimization completed.
    -- Stationary point found.
 Normal termination of Gaussian 09 at Mon Jan 27 15:27:41 2020.

 ----------------------------------------------------------------------
 #N Geom=AllCheck Guess=TCheck SCRF=Check GenChk RB3LYP/6-31G(2df,p) Fr
 eq
 ----------------------------------------------------------------------

 Structure from the checkpoint file:  "/scratch/puck/g09_182f1184-e276-40f3-a76b-a0027ad8db63/Gau-27348.chk"
 -----
 titel
 -----
 Charge =  0 Multiplicity = 1

                         Standard orientation:
 ---------------------------------------------------------------------
 Center     Atomic      Atomic             Coordinates (Angstroms)
 Number     Number       Type             X           Y           Z
 ---------------------------------------------------------------------
      1          6           0       -0.883432   -1.619095   -1.099267
      2          6           0       -0.421460   -1.073307    0.253515
      3          8           0       -1.442653   -1.182960    1.234268
      4          6           0        0.089528    0.368997    0.157111
      5          6           0        1.128478    0.817486    1.186176
      6          6           0        1.555183    0.615007   -0.224273
      7          8           0        2.393883   -0.471274   -0.469533
      8          6           0       -0.889590    1.328311   -0.272260
      9          6           0       -1.736905    2.109642   -0.623172
     10          1           0       -1.277302   -2.630910   -0.974248
     11          1           0       -1.669162   -0.988078   -1.527511
     12          1           0       -0.053053   -1.655593   -1.813002
     13          1           0        0.401548   -1.689707    0.624450
     14          1           0       -2.139696   -0.561439    0.991323
     15          1           0        1.066877    1.827432    1.572574
     16          1           0        1.431202    0.062204    1.902835
     17          1           0        1.748727    1.500301   -0.828045
     18          1           0        2.301272   -0.721841   -1.395091
     19          1           0       -2.471060    2.809246   -0.938146
 ---------------------------------------------------------------------

 SCF Done:  E(RB3LYP) =  -423.128815990     A.U. after    1 cycles

 The electronic state is 1-A.
 Alpha  occ. eigenvalues --  -19.15848 -19.12888 -10.25039 -10.23551 -10.21584
 Alpha  occ. eigenvalues --  -10.19439 -10.18805 -10.17849 -10.17418  -1.04370
 Alpha  occ. eigenvalues --   -1.01363  -0.86960  -0.75497  -0.74224  -0.65184
 Alpha  occ. eigenvalues --   -0.61525  -0.60396  -0.53762  -0.53457  -0.50424
 Alpha  occ. eigenvalues --   -0.48009  -0.44301  -0.43685  -0.40902  -0.39927
 Alpha  occ. eigenvalues --   -0.39207  -0.36942  -0.34551  -0.32983  -0.31465
 Alpha  occ. eigenvalues --   -0.29866  -0.27815  -0.25852  -0.23972
 Alpha virt. eigenvalues --    0.03780   0.04546   0.05899   0.10144   0.10791
 Alpha virt. eigenvalues --    0.12198   0.12609   0.13781   0.15265   0.17027
 Alpha virt. eigenvalues --    0.17760   0.18645   0.19629   0.20724   0.22395

 Mulliken charges:
               1
     1  C   -0.406267
     2  C    0.067667
     3  O   -0.436039
     4  C    0.069326
     5  C   -0.341727
     6  C    0.068550
     7  O   -0.413879
     8  C    0.261658
     9  C   -0.450359
    10  H    0.124891
    11  H    0.123657
    12  H    0.096305
    13  H    0.099690
    14  H    0.281751
    15  H    0.127710
    16  H    0.137778
    17  H    0.101497
    18  H    0.293143
    19  H    0.194647
 Sum of Mulliken charges =   0.00000

 Dipole moment (field-independent basis, Debye):
    X=             -0.0386    Y=              1.0547    Z=             -1.9583  Tot=              2.2246
 Quadrupole moment (field-independent basis, Debye-Ang):
   XX=            -52.6064   YY=            -52.2317   ZZ=            -52.6371
   XY=             -2.7831   XZ=             -0.2282   YZ=              2.4050

  Exact polarizability:  86.531 -11.011  80.748   5.453  -1.578  67.537
 Approx polarizability: 131.709 -25.626 116.447   9.868  -8.333 101.264

                      1                      2                      3
                      A                      A                      A
 Frequencies --     63.3977               130.8407               150.6412
 Red. masses --      3.6033                 4.0423                 3.8213
 Frc consts  --      0.0085                 0.0408                 0.0511
 IR Inten    --      0.7329                 0.1116                 0.1958

                      4                      5                      6
                      A                      A                      A
 Frequencies --    157.4407               220.2759               242.6585
 Red. masses --      3.9994                 3.4512                 1.0779
 Frc consts  --      0.0584                 0.0987                 0.0374
 IR Inten    --      0.4863                 0.8166                 0.7682

                      7                      8                      9
                      A                      A                      A
 Frequencies --    322.6118               328.0572               367.7830
 Red. masses --      1.4013                 1.6714                 1.6012
 Frc consts  --      0.0859                 0.1060                 0.1276
 IR Inten    --     25.9331                54.4357               128.1117

                     10                     11                     12
                      A                      A                      A
 Frequencies --    378.0758               403.6453               473.5355
 Red. masses --      2.5260                 3.2045                 4.3400
 Frc consts  --      0.2127                 0.3076                 0.5734
 IR Inten    --     38.8995                23.1697                 9.3763

                     13                     14                     15
                      A                      A                      A
 Frequencies --    503.3559               564.7785               574.0004
 Red. masses --      2.9160                 2.7623                 1.5246
 Frc consts  --      0.4353                 0.5191                 0.2959
 IR Inten    --     11.3066                13.2678                35.9835

                     16                     17                     18
                      A                      A                      A
 Frequencies --    614.5073               657.8619               681.3114
 Red. masses --      3.6270                 1.2268                 3.0645
 Frc consts  --      0.8070                 0.3128                 0.8381
 IR Inten    --     10.4594                42.3745                 3.0696

                     19                     20                     21
                      A                      A                      A
 Frequencies --    832.4956               882.8844               911.1458
 Red. masses --      2.6446                 1.8614                 2.7279
 Frc consts  --      1.0799                 0.8548                 1.3343
 IR Inten    --      5.1088                 5.2638                24.2911

                     22                     23                     24
                      A                      A                      A
 Frequencies --    939.7765               988.6433              1021.6122
 Red. masses --      1.7737                 2.3389                 1.4513
 Frc consts  --      0.9230                 1.3469                 0.8924
 IR Inten    --     12.1320                 6.8141                25.5294

                     25                     26                     27
                      A                      A                      A
 Frequencies --   1058.2458              1094.9868              1104.0691
 Red. masses --      1.3422                 2.2468                 2.0290
 Frc consts  --      0.8856                 1.5872                 1.4572
 IR Inten    --      4.7288                16.8631                56.2601

                     28                     29                     30
                      A                      A                      A
 Frequencies --   1119.6276              1181.2727              1238.3029
 Red. masses --      1.8770                 2.4399                 2.0096
 Frc consts  --      1.3863                 2.0060                 1.8156
 IR Inten    --     65.4926                11.3517                51.3412

                     31                     32                     33
                      A                      A                      A
 Frequencies --   1254.2226              1303.9560              1312.8672
 Red. masses --      2.1745                 1.3948                 1.6078
 Frc consts  --      2.0154                 1.3973                 1.6328
 IR Inten    --     84.0855                29.4319                23.0009

                     34                     35                     36
                      A                      A                      A
 Frequencies --   1368.4565              1400.3785              1422.4425
 Red. masses --      1.3504                 1.2744                 1.1936
 Frc consts  --      1.4900                 1.4725                 1.4229
 IR Inten    --      7.8192                12.5625                55.8192

                     37                     38                     39
                      A                      A                      A
 Frequencies --   1436.9172              1484.5252              1490.0538
 Red. masses --      1.3143                 1.3061                 1.1629
 Frc consts  --      1.5989                 1.6959                 1.5213
 IR Inten    --      0.5693                16.8320                 1.9285

                     40                     41                     42
                      A                      A                      A
 Frequencies --   1494.8941              2219.9615              3033.8879
 Red. masses --      1.0960                 6.0598                 1.0357
 Frc consts  --      1.4430                17.5954                 5.6168
 IR Inten    --      1.8437                16.3370                16.9507

                     43                     44                     45
                      A                      A                      A
 Frequencies --   3080.7293              3104.3698              3115.5021
 Red. masses --      1.0869                 1.0984                 1.0883
 Frc consts  --      6.0779                 6.2370                 6.2238
 IR Inten    --      3.7450                34.0853                20.3449

                     46                     47                     48
                      A                      A                      A
 Frequencies --   3123.5154              3145.5743              3239.4108
 Red. masses --      1.1016                 1.0549                 1.1179
 Frc consts  --      6.3324                 6.1499                 6.9115
 IR Inten    --     22.6620                 4.6660                 2.7435

                     49                     50                     51
                      A                      A                      A
 Frequencies --   3500.7846              3781.3257              3805.4743
 Red. masses --      1.1587                 1.0657                 1.0661
 Frc consts  --      8.3663                 8.9779                 9.0961
 IR Inten    --     83.4338                18.8219                23.6952

 - Thermochemistry -
 -------------------
 Temperature   298.150 Kelvin.  Pressure   1.00000 Atm.
 Atom     1 has atomic number  6 and mass  12.00000

 Molecular mass:   126.06808 amu.
 Principal axes and moments of inertia in atomic units:
                           1         2         3
     Eigenvalues --   971.318601205.000381578.22942
           X            0.99946   0.02232   0.02432
           Y           -0.02360   0.99828   0.05375
           Z           -0.02307  -0.05429   0.99826
 This molecule is an asymmetric top.
 Rotational symmetry number  1.
 Warning -- assumption of classical behavior for rotation
           may cause significant error
 Rotational temperatures (Kelvin)      0.08917     0.07188     0.05488
 Rotational constants (GHZ):           1.85803     1.49771     1.14352
 Zero-point vibrational energy     408686.8 (Joules/Mol)
                                   97.67848 (Kcal/Mol)
 Warning -- explicit consideration of  16 degrees of freedom as
           vibrations may cause significant error
 Vibrational temperatures:     91.22   188.25   216.74   226.52   316.93
          (Kelvin)            349.13   464.17   472.00   529.16   543.97
                              580.75   681.31   724.22   812.59   825.86
                              884.14   946.52   980.25  1197.77  1270.27
                             1310.93  1352.13  1422.44  1469.87  1522.58
                             1575.44  1588.51  1610.89  1699.59  1781.64
                             1804.54  1876.10  1888.92  1968.90  2014.83
                             2046.57  2067.40  2135.90  2143.85  2150.82
                             3194.03  4365.08  4432.48  4466.49  4482.51
                             4494.04  4525.77  4660.78  5036.84  5440.48
                             5475.22

 Zero-point correction=                           0.155661 (Hartree/Particle)
 Thermal correction to Energy=                    0.165772
 Thermal correction to Enthalpy=                  0.166716
 Thermal correction to Gibbs Free Energy=         0.121041
 Sum of electronic and zero-point Energies=           -422.973155
 Sum of electronic and thermal Energies=              -422.963044
 Sum of electronic and thermal Enthalpies=            -422.962100
 Sum of electronic and thermal Free Energies=         -423.007775

                     E (Thermal)             CV                S
                      KCal/Mol        Cal/Mol-Kelvin    Cal/Mol-Kelvin
 Total                  104.023             37.983             96.131
 Electronic               0.000              0.000              0.000
 Translational            0.889              2.981             40.409
 Rotational               0.889              2.981             29.003
 Vibrational            102.246             32.021             26.719
 Vibration     1          0.597              1.972              4.349
 Vibration     2          0.612              1.922              2.934
 Vibration     3          0.618              1.902              2.664
 Vibration     4          0.621              1.894              2.580
 Vibration     5          0.647              1.810              1.957
 Vibration     6          0.659              1.775              1.783
 Vibration     7          0.708              1.630              1.297
 Vibration     8          0.711              1.619              1.270
 Vibration     9          0.740              1.538              1.089
 Vibration    10          0.748              1.517              1.047
 Vibration    11          0.769              1.462              0.949
 Vibration    12          0.830              1.309              0.728
 Vibration    13          0.859              1.243              0.650
 Vibration    14          0.921              1.107              0.514
 Vibration    15          0.930              1.087              0.497
 Vibration    16          0.974              1.001              0.425

 Optimization completed.
    -- Stationary point found.
 Normal termination of Gaussian 09 at Mon Jan 27 16:11:41 2020.
