 Gaussian 09, Revision D.01,
 Gaussian 09:  ES64L-G09RevD.01 24-Apr-2013

 -----------------------------
 # b3lyp 6-31G(2df,p) opt Freq
 -----------------------------

 -----
 titel
 -----
 Symbolic Z-matrix:
 Charge =  0 Multiplicity = 1

 SCF Done:  E(RB3LYP) =  -423.224795965     A.U. after   14 cycles
 Optimization completed.
    -- Stationary point found.
 Normal termination of Gaussian 09 at Tue Jan 28 14:10:34 2020.

 ----------------------------------------------------------------------
 #N Geom=AllCheck Guess=TCheck SCRF=Check GenChk RB3LYP/6-31G(2df,p) Fr
 eq
 ----------------------------------------------------------------------

 Structure from the checkpoint file:  "/scratch/puck/g09_db1ab01d-30cd-4d63-b0b1-f0f5cccef154/Gau-144530.chk"
 -----
 titel
 -----
 Charge =  0 Multiplicity = 1

                         Standard orientation:
 ---------------------------------------------------------------------
 Center     Atomic      Atomic             Coordinates (Angstroms)
 Number     Number       Type             X           Y           Z
 ---------------------------------------------------------------------
      1          8           0        3.506891   -0.004174    0.185447
      2          6           0        2.134493   -0.019683    0.533759
      3          6           0        1.236507   -0.445711   -0.643350
      4          6           0       -0.219437   -0.404615   -0.298522
      5          6           0       -1.077446   -1.417249   -0.106893
      6          6           0       -2.478475   -0.978523    0.239059
      7          6           0       -2.397815    0.559999    0.239572
      8          6           0       -0.938249    0.885454   -0.104987
      9          8           0       -0.456546    1.991714   -0.204318
     10          1           0        3.771801   -0.907382   -0.015816
     11          1           0        1.943474   -0.672701    1.400188
     12          1           0        1.883108    1.003187    0.825025
     13          1           0        1.436408    0.240524   -1.473892
     14          1           0        1.518069   -1.455152   -0.968923
     15          1           0       -0.818077   -2.468475   -0.193047
     16          1           0       -3.200778   -1.362458   -0.491616
     17          1           0       -2.788642   -1.385107    1.209471
     18          1           0       -3.056754    1.025019   -0.499380
     19          1           0       -2.648837    1.004199    1.207143
 ---------------------------------------------------------------------

 SCF Done:  E(RB3LYP) =  -423.224795965     A.U. after    1 cycles

 The electronic state is 1-A.
 Alpha  occ. eigenvalues --  -19.13243 -19.12129 -10.26063 -10.22481 -10.20949
 Alpha  occ. eigenvalues --  -10.20325 -10.19629 -10.19257 -10.18892  -1.03096
 Alpha  occ. eigenvalues --   -1.01365  -0.85585  -0.77661  -0.70927  -0.68144
 Alpha  occ. eigenvalues --   -0.62312  -0.57936  -0.50637  -0.50240  -0.48156
 Alpha  occ. eigenvalues --   -0.47559  -0.45271  -0.41697  -0.40864  -0.39500
 Alpha  occ. eigenvalues --   -0.39270  -0.38184  -0.37056  -0.36449  -0.34987
 Alpha  occ. eigenvalues --   -0.32159  -0.27617  -0.25569  -0.23889
 Alpha virt. eigenvalues --   -0.04250   0.05212   0.07717   0.09235   0.11789
 Alpha virt. eigenvalues --    0.13241   0.13732   0.15134   0.15525   0.16049
 Alpha virt. eigenvalues --    0.17744   0.18530   0.21008   0.21727   0.22458

 Mulliken charges:
               1
     1  O   -0.411786
     2  C   -0.059844
     3  C   -0.331358
     4  C    0.215040
     5  C   -0.162822
     6  C   -0.264654
     7  C   -0.325574
     8  C    0.335183
     9  O   -0.334074
    10  H    0.279766
    11  H    0.082516
    12  H    0.141322
    13  H    0.130344
    14  H    0.087491
    15  H    0.105626
    16  H    0.121260
    17  H    0.121087
    18  H    0.135381
    19  H    0.135097
 Sum of Mulliken charges =   0.00000

 Dipole moment (field-independent basis, Debye):
    X=             -2.0540    Y=             -4.1185    Z=              0.2018  Tot=              4.6067
 Quadrupole moment (field-independent basis, Debye-Ang):
   XX=            -52.2045   YY=            -55.7831   ZZ=            -52.4169
   XY=             -4.2458   XZ=             -1.3311   YZ=              0.8935

  Exact polarizability:  97.136   6.011  84.272  -5.116  -0.250  57.028
 Approx polarizability: 126.274  20.499 146.321  -8.175  -3.361  87.281

                      1                      2                      3
                      A                      A                      A
 Frequencies --     57.4512                89.1708                93.6062
 Red. masses --      3.0135                 2.4315                 2.4721
 Frc consts  --      0.0059                 0.0114                 0.0128
 IR Inten    --      1.0784                 1.5355                 3.0211

                      4                      5                      6
                      A                      A                      A
 Frequencies --    123.1752               250.8013               270.7015
 Red. masses --      3.3542                 2.5159                 2.7399
 Frc consts  --      0.0300                 0.0932                 0.1183
 IR Inten    --      0.1736                 6.4339                 8.9735

                      7                      8                      9
                      A                      A                      A
 Frequencies --    307.6782               353.8227               398.4467
 Red. masses --      1.2145                 4.0941                 3.6359
 Frc consts  --      0.0677                 0.3020                 0.3401
 IR Inten    --     75.1288                36.7633                 1.0814

                     10                     11                     12
                      A                      A                      A
 Frequencies --    500.6048               610.4502               659.2798
 Red. masses --      4.1373                 2.3658                 5.2116
 Frc consts  --      0.6109                 0.5194                 1.3346
 IR Inten    --      8.0300                 2.3382                 2.3893

                     13                     14                     15
                      A                      A                      A
 Frequencies --    715.0989               761.7307               796.8239
 Red. masses --      3.9397                 2.7807                 1.4874
 Frc consts  --      1.1870                 0.9506                 0.5564
 IR Inten    --      2.7128                 6.6552                 0.7829

                     16                     17                     18
                      A                      A                      A
 Frequencies --    808.3512               890.2830               928.4299
 Red. masses --      1.3363                 1.4943                 2.3529
 Frc consts  --      0.5144                 0.6978                 1.1949
 IR Inten    --      9.7116                 0.4902                 5.3036

                     19                     20                     21
                      A                      A                      A
 Frequencies --   1001.9013              1023.4813              1026.1423
 Red. masses --      2.2221                 2.6692                 2.0916
 Frc consts  --      1.3142                 1.6474                 1.2976
 IR Inten    --      0.5804                16.1522                 6.0429

                     22                     23                     24
                      A                      A                      A
 Frequencies --   1047.9790              1065.3059              1087.1718
 Red. masses --      2.5322                 2.9520                 3.4087
 Frc consts  --      1.6385                 1.9739                 2.3738
 IR Inten    --      2.2686               177.2880                23.9589

                     25                     26                     27
                      A                      A                      A
 Frequencies --   1151.5463              1162.3664              1213.7092
 Red. masses --      1.2468                 1.1618                 1.7623
 Frc consts  --      0.9741                 0.9248                 1.5295
 IR Inten    --      0.0631                14.6926                 8.4848

                     28                     29                     30
                      A                      A                      A
 Frequencies --   1231.5022              1271.1751              1296.7204
 Red. masses --      1.1254                 1.6970                 1.3755
 Frc consts  --      1.0056                 1.6156                 1.3628
 IR Inten    --      0.7049                 6.4912                 7.8370

                     31                     32                     33
                      A                      A                      A
 Frequencies --   1313.9412              1322.4779              1361.7603
 Red. masses --      1.4802                 1.6804                 1.8747
 Frc consts  --      1.5056                 1.7315                 2.0483
 IR Inten    --     21.3512                 6.7555                25.3575

                     34                     35                     36
                      A                      A                      A
 Frequencies --   1394.1885              1416.7581              1450.6666
 Red. masses --      1.2907                 1.2325                 1.0766
 Frc consts  --      1.4781                 1.4576                 1.3349
 IR Inten    --      2.3942                36.8002                 3.4516

                     37                     38                     39
                      A                      A                      A
 Frequencies --   1475.7577              1483.6256              1513.8800
 Red. masses --      1.1027                 1.0981                 1.0859
 Frc consts  --      1.4149                 1.4241                 1.4663
 IR Inten    --      3.1265                 6.3682                 1.5614

                     40                     41                     42
                      A                      A                      A
 Frequencies --   1693.3343              1803.8191              2977.6659
 Red. masses --      7.3900                12.6220                 1.0712
 Frc consts  --     12.4848                24.1972                 5.5960
 IR Inten    --     10.8032               229.4644                51.6837

                     43                     44                     45
                      A                      A                      A
 Frequencies --   3023.6165              3029.7910              3053.7615
 Red. masses --      1.0612                 1.0599                 1.1024
 Frc consts  --      5.7162                 5.7323                 6.0571
 IR Inten    --     30.3048                29.5015                11.5580

                     46                     47                     48
                      A                      A                      A
 Frequencies --   3067.2424              3075.9185              3106.9862
 Red. masses --      1.0610                 1.0977                 1.1027
 Frc consts  --      5.8811                 6.1190                 6.2719
 IR Inten    --      8.5995                 8.1644                 7.9075

                     49                     50                     51
                      A                      A                      A
 Frequencies --   3109.8631              3177.0092              3813.4735
 Red. masses --      1.0946                 1.0935                 1.0661
 Frc consts  --      6.2370                 6.5027                 9.1347
 IR Inten    --     17.1519                12.9223                15.9660

 - Thermochemistry -
 -------------------
 Temperature   298.150 Kelvin.  Pressure   1.00000 Atm.
 Atom     1 has atomic number  8 and mass  15.99491

 Molecular mass:   126.06808 amu.
 Principal axes and moments of inertia in atomic units:
                           1         2         3
     Eigenvalues --   551.572221870.637732268.25070
           X            0.99998  -0.00042  -0.00557
           Y            0.00048   0.99995   0.00968
           Z            0.00556  -0.00969   0.99994
 This molecule is an asymmetric top.
 Rotational symmetry number  1.
 Warning -- assumption of classical behavior for rotation
           may cause significant error
 Rotational temperatures (Kelvin)      0.15703     0.04630     0.03819
 Rotational constants (GHZ):           3.27199     0.96477     0.79565
 Zero-point vibrational energy     417858.2 (Joules/Mol)
                                   99.87052 (Kcal/Mol)
 Warning -- explicit consideration of  11 degrees of freedom as
           vibrations may cause significant error
 Vibrational temperatures:     82.66   128.30   134.68   177.22   360.85
          (Kelvin)            389.48   442.68   509.07   573.28   720.26
                              878.30   948.56  1028.87  1095.96  1146.45
                             1163.04  1280.92  1335.80  1441.51  1472.56
                             1476.39  1507.81  1532.74  1564.20  1656.82
                             1672.38  1746.25  1771.85  1828.94  1865.69
                             1890.47  1902.75  1959.27  2005.92  2038.40
                             2087.18  2123.28  2134.60  2178.13  2436.33
                             2595.29  4284.19  4350.30  4359.19  4393.68
                             4413.07  4425.56  4470.25  4474.39  4571.00
                             5486.73

 Zero-point correction=                           0.159154 (Hartree/Particle)
 Thermal correction to Energy=                    0.168339
 Thermal correction to Enthalpy=                  0.169283
 Thermal correction to Gibbs Free Energy=         0.124220
 Sum of electronic and zero-point Energies=           -423.065642
 Sum of electronic and thermal Energies=              -423.056457
 Sum of electronic and thermal Enthalpies=            -423.055513
 Sum of electronic and thermal Free Energies=         -423.100576

                     E (Thermal)             CV                S
                      KCal/Mol        Cal/Mol-Kelvin    Cal/Mol-Kelvin
 Total                  105.634             33.080             94.843
 Electronic               0.000              0.000              0.000
 Translational            0.889              2.981             40.409
 Rotational               0.889              2.981             29.238
 Vibrational            103.857             27.118             25.196
 Vibration     1          0.596              1.975              4.543
 Vibration     2          0.602              1.957              3.678
 Vibration     3          0.603              1.954              3.583
 Vibration     4          0.610              1.930              3.050
 Vibration     5          0.663              1.761              1.725
 Vibration     6          0.674              1.727              1.592
 Vibration     7          0.698              1.659              1.375
 Vibration     8          0.730              1.567              1.149
 Vibration     9          0.765              1.473              0.968
 Vibration    10          0.856              1.249              0.657
 Vibration    11          0.970              1.010              0.432

 Optimization completed.
    -- Stationary point found.
 Normal termination of Gaussian 09 at Tue Jan 28 14:53:59 2020.
