 Gaussian 09, Revision D.01,
 Gaussian 09:  ES64L-G09RevD.01 24-Apr-2013

 -----------------------------
 # b3lyp 6-31G(2df,p) opt Freq
 -----------------------------

 -----
 titel
 -----
 Symbolic Z-matrix:
 Charge =  0 Multiplicity = 1

 SCF Done:  E(RB3LYP) =  -423.176798843     A.U. after   14 cycles
 Optimization completed.
    -- Stationary point found.
 Normal termination of Gaussian 09 at Mon Jan 27 18:11:07 2020.

 ----------------------------------------------------------------------
 #N Geom=AllCheck Guess=TCheck SCRF=Check GenChk RB3LYP/6-31G(2df,p) Fr
 eq
 ----------------------------------------------------------------------

 Structure from the checkpoint file:  "/scratch/puck/g09_e785c849-5bbf-40d5-8c4c-a1a99dda5a34/Gau-181819.chk"
 -----
 titel
 -----
 Charge =  0 Multiplicity = 1

                         Standard orientation:
 ---------------------------------------------------------------------
 Center     Atomic      Atomic             Coordinates (Angstroms)
 Number     Number       Type             X           Y           Z
 ---------------------------------------------------------------------
      1          6           0       -2.171799   -1.049293    0.111945
      2          6           0       -1.001189   -0.114597    0.028750
      3          6           0       -1.074248    1.410429   -0.242305
      4          6           0        0.444467    1.235605   -0.469766
      5          6           0        0.139882   -0.166916   -1.060704
      6          8           0        1.207521   -1.050323   -0.813935
      7          6           0        1.918208   -0.508658    0.315028
      8          6           0        0.964929    0.566874    0.830943
      9          8           0       -0.220111   -0.150219    1.246050
     10          1           0       -2.802089   -0.802683    0.972299
     11          1           0       -2.780990   -0.985174   -0.794258
     12          1           0       -1.823658   -2.080230    0.227055
     13          1           0       -1.601731    1.666214   -1.164538
     14          1           0       -1.412938    2.033367    0.587424
     15          1           0        1.083212    1.969074   -0.958750
     16          1           0       -0.188867   -0.236995   -2.097050
     17          1           0        2.076084   -1.295309    1.058362
     18          1           0        2.891570   -0.107629   -0.005290
     19          1           0        1.338638    1.203038    1.634484
 ---------------------------------------------------------------------

 SCF Done:  E(RB3LYP) =  -423.176798843     A.U. after    1 cycles

 The electronic state is 1-A.
 Alpha  occ. eigenvalues --  -19.13784 -19.13448 -10.23611 -10.23465 -10.23080
 Alpha  occ. eigenvalues --  -10.22430 -10.19461 -10.18505 -10.17654  -1.06576
 Alpha  occ. eigenvalues --   -1.00951  -0.83066  -0.76984  -0.71493  -0.66506
 Alpha  occ. eigenvalues --   -0.61421  -0.57771  -0.54576  -0.51429  -0.49040
 Alpha  occ. eigenvalues --   -0.46798  -0.44829  -0.42037  -0.41221  -0.40278
 Alpha  occ. eigenvalues --   -0.37216  -0.36942  -0.35108  -0.34511  -0.33593
 Alpha  occ. eigenvalues --   -0.32022  -0.31516  -0.25880  -0.22412
 Alpha virt. eigenvalues --    0.09054   0.10444   0.10931   0.12168   0.13730
 Alpha virt. eigenvalues --    0.14617   0.15251   0.15606   0.16254   0.17542
 Alpha virt. eigenvalues --    0.17695   0.18335   0.19573   0.20017   0.21096

 Mulliken charges:
               1
     1  C   -0.503963
     2  C    0.400122
     3  C   -0.289927
     4  C   -0.115976
     5  C    0.090049
     6  O   -0.278366
     7  C   -0.076230
     8  C    0.057638
     9  O   -0.316753
    10  H    0.128924
    11  H    0.116873
    12  H    0.135390
    13  H    0.101480
    14  H    0.105073
    15  H    0.075812
    16  H    0.085853
    17  H    0.115017
    18  H    0.088980
    19  H    0.080003
 Sum of Mulliken charges =   0.00000

 Dipole moment (field-independent basis, Debye):
    X=             -0.1781    Y=              1.5685    Z=             -0.4775  Tot=              1.6492
 Quadrupole moment (field-independent basis, Debye-Ang):
   XX=            -50.0381   YY=            -53.8720   ZZ=            -54.1162
   XY=              2.1315   XZ=              3.4114   YZ=             -0.8191

  Exact polarizability:  84.402   0.466  70.552   3.649  -1.268  67.298
 Approx polarizability: 113.655  -0.110 104.562   3.781  -0.808 106.251

                      1                      2                      3
                      A                      A                      A
 Frequencies --    204.7215               214.7521               249.2506
 Red. masses --      1.5975                 1.4663                 2.8620
 Frc consts  --      0.0394                 0.0398                 0.1048
 IR Inten    --      0.7949                 0.7347                 3.4983

                      4                      5                      6
                      A                      A                      A
 Frequencies --    326.0044               389.3663               443.5251
 Red. masses --      2.6750                 2.4376                 2.6209
 Frc consts  --      0.1675                 0.2177                 0.3038
 IR Inten    --      3.2736                 2.4125                 0.3553

                      7                      8                      9
                      A                      A                      A
 Frequencies --    507.5326               591.0982               650.0321
 Red. masses --      3.0470                 4.0764                 4.4176
 Frc consts  --      0.4624                 0.8392                 1.0998
 IR Inten    --      1.6492                 2.0368                 1.1119

                     10                     11                     12
                      A                      A                      A
 Frequencies --    730.8559               764.4696               814.3636
 Red. masses --      3.9256                 4.4195                 2.7352
 Frc consts  --      1.2354                 1.5218                 1.0687
 IR Inten    --      5.9844                 7.3696                 1.3115

                     13                     14                     15
                      A                      A                      A
 Frequencies --    863.3310               877.8445               883.9018
 Red. masses --      3.0944                 3.1343                 2.2970
 Frc consts  --      1.3589                 1.4231                 1.0574
 IR Inten    --     12.6093                20.6082                17.5327

                     16                     17                     18
                      A                      A                      A
 Frequencies --    902.9837               931.6582               958.7302
 Red. masses --      2.2895                 2.6083                 2.1580
 Frc consts  --      1.0999                 1.3339                 1.1687
 IR Inten    --      6.6332                11.2299                 7.6155

                     19                     20                     21
                      A                      A                      A
 Frequencies --    971.1163               998.6125              1010.1112
 Red. masses --      1.4279                 3.5763                 1.8645
 Frc consts  --      0.7934                 2.1013                 1.1209
 IR Inten    --      7.5777                28.1252                11.5294

                     22                     23                     24
                      A                      A                      A
 Frequencies --   1032.7298              1078.7131              1114.8877
 Red. masses --      1.4567                 1.6131                 2.1166
 Frc consts  --      0.9154                 1.1059                 1.5501
 IR Inten    --      2.4939                31.7860                58.7297

                     25                     26                     27
                      A                      A                      A
 Frequencies --   1118.0958              1141.6791              1184.2237
 Red. masses --      3.6720                 2.1214                 1.5780
 Frc consts  --      2.7047                 1.6292                 1.3038
 IR Inten    --     62.4150                20.7591                 1.6368

                     28                     29                     30
                      A                      A                      A
 Frequencies --   1194.9117              1204.4724              1229.3277
 Red. masses --      1.3944                 1.4928                 1.6909
 Frc consts  --      1.1730                 1.2760                 1.5056
 IR Inten    --      6.3537                 7.3130                 1.6986

                     31                     32                     33
                      A                      A                      A
 Frequencies --   1266.1446              1282.1508              1311.4401
 Red. masses --      1.5285                 1.7008                 1.6758
 Frc consts  --      1.4438                 1.6473                 1.6981
 IR Inten    --      3.3069                 2.4896                 9.3379

                     34                     35                     36
                      A                      A                      A
 Frequencies --   1324.3114              1343.3510              1392.4199
 Red. masses --      1.5344                 1.9747                 1.4769
 Frc consts  --      1.5855                 2.0996                 1.6872
 IR Inten    --      2.4172                13.6833                 4.4240

                     37                     38                     39
                      A                      A                      A
 Frequencies --   1417.1949              1480.7115              1487.0853
 Red. masses --      1.6092                 1.0505                 1.1567
 Frc consts  --      1.9042                 1.3570                 1.5071
 IR Inten    --     13.6501                 3.3551                 5.0279

                     40                     41                     42
                      A                      A                      A
 Frequencies --   1492.9370              1506.9660              2993.0506
 Red. masses --      1.0515                 1.0995                 1.0683
 Frc consts  --      1.3809                 1.4711                 5.6387
 IR Inten    --      2.9537                 0.6617                79.0500

                     43                     44                     45
                      A                      A                      A
 Frequencies --   3039.7388              3068.3050              3086.5046
 Red. masses --      1.0349                 1.0566                 1.0961
 Frc consts  --      5.6343                 5.8611                 6.1521
 IR Inten    --     18.3749                25.7316                24.1407

                     46                     47                     48
                      A                      A                      A
 Frequencies --   3108.4698              3110.5923              3117.1011
 Red. masses --      1.0895                 1.1012                 1.1015
 Frc consts  --      6.2028                 6.2778                 6.3058
 IR Inten    --     37.2564                13.5207                12.0869

                     49                     50                     51
                      A                      A                      A
 Frequencies --   3126.3012              3132.8385              3137.4105
 Red. masses --      1.0894                 1.1082                 1.0928
 Frc consts  --      6.2735                 6.4082                 6.3377
 IR Inten    --     19.1525                26.3616                34.4566

 - Thermochemistry -
 -------------------
 Temperature   298.150 Kelvin.  Pressure   1.00000 Atm.
 Atom     1 has atomic number  6 and mass  12.00000

 Molecular mass:   126.06808 amu.
 Principal axes and moments of inertia in atomic units:
                           1         2         3
     Eigenvalues --   625.34401 994.025121089.35905
           X            0.99880   0.04087   0.02715
           Y           -0.03887   0.99675  -0.07053
           Z           -0.02994   0.06939   0.99714
 This molecule is an asymmetric top.
 Rotational symmetry number  1.
 Warning -- assumption of classical behavior for rotation
           may cause significant error
 Rotational temperatures (Kelvin)      0.13851     0.08713     0.07951
 Rotational constants (GHZ):           2.88600     1.81559     1.65670
 Zero-point vibrational energy     423527.8 (Joules/Mol)
                                  101.22558 (Kcal/Mol)
 Warning -- explicit consideration of   8 degrees of freedom as
           vibrations may cause significant error
 Vibrational temperatures:    294.55   308.98   358.62   469.05   560.21
          (Kelvin)            638.13   730.23   850.46   935.25  1051.54
                             1099.90  1171.69  1242.14  1263.02  1271.74
                             1299.19  1340.45  1379.40  1397.22  1436.78
                             1453.32  1485.87  1552.03  1604.07  1608.69
                             1642.62  1703.83  1719.21  1732.96  1768.73
                             1821.70  1844.73  1886.87  1905.39  1932.78
                             2003.38  2039.02  2130.41  2139.58  2148.00
                             2168.19  4306.33  4373.50  4414.60  4440.79
                             4472.39  4475.44  4484.81  4498.04  4507.45
                             4514.03

 Zero-point correction=                           0.161313 (Hartree/Particle)
 Thermal correction to Energy=                    0.168205
 Thermal correction to Enthalpy=                  0.169149
 Thermal correction to Gibbs Free Energy=         0.130498
 Sum of electronic and zero-point Energies=           -423.015486
 Sum of electronic and thermal Energies=              -423.008594
 Sum of electronic and thermal Enthalpies=            -423.007650
 Sum of electronic and thermal Free Energies=         -423.046301

                     E (Thermal)             CV                S
                      KCal/Mol        Cal/Mol-Kelvin    Cal/Mol-Kelvin
 Total                  105.550             28.810             81.348
 Electronic               0.000              0.000              0.000
 Translational            0.889              2.981             40.409
 Rotational               0.889              2.981             28.006
 Vibrational            103.773             22.848             12.933
 Vibration     1          0.640              1.833              2.090
 Vibration     2          0.645              1.819              2.003
 Vibration     3          0.662              1.764              1.736
 Vibration     4          0.710              1.623              1.280
 Vibration     5          0.757              1.493              1.003
 Vibration     6          0.803              1.375              0.816
 Vibration     7          0.863              1.233              0.640
 Vibration     8          0.949              1.051              0.465

 Normal termination of Gaussian 09 at Mon Jan 27 18:58:29 2020.
