 Gaussian 09, Revision D.01,
 Gaussian 09:  ES64L-G09RevD.01 24-Apr-2013

 -----------------------------
 # b3lyp 6-31G(2df,p) opt Freq
 -----------------------------

 -----
 titel
 -----
 Symbolic Z-matrix:
 Charge =  0 Multiplicity = 1

 SCF Done:  E(RB3LYP) =  -423.164098103     A.U. after   14 cycles
 Optimization completed.
    -- Stationary point found.
 Normal termination of Gaussian 09 at Tue Jan 28 09:18:27 2020.

 ----------------------------------------------------------------------
 #N Geom=AllCheck Guess=TCheck SCRF=Check GenChk RB3LYP/6-31G(2df,p) Fr
 eq
 ----------------------------------------------------------------------

 Structure from the checkpoint file:  "/scratch/puck/g09_cf94d1ae-ddfc-4850-8b7a-6aef1565d8e8/Gau-11170.chk"
 -----
 titel
 -----
 Charge =  0 Multiplicity = 1

                         Standard orientation:
 ---------------------------------------------------------------------
 Center     Atomic      Atomic             Coordinates (Angstroms)
 Number     Number       Type             X           Y           Z
 ---------------------------------------------------------------------
      1          6           0       -2.786092    0.475041   -0.142543
      2          8           0       -1.659542   -0.037120   -0.848915
      3          6           0       -0.576631   -0.273920   -0.046490
      4          6           0       -0.453117   -1.548470    0.789134
      5          6           0        0.583186   -1.278600   -0.250971
      6          6           0        1.610366   -0.275489    0.310392
      7          6           0        2.696520    0.207786   -0.647280
      8          6           0        0.432162    0.741325    0.409506
      9          8           0        0.400703    1.933704    0.541237
     10          1           0       -2.551715    1.436986    0.327355
     11          1           0       -3.579945    0.614044   -0.878859
     12          1           0       -3.125483   -0.230213    0.628552
     13          1           0       -0.196805   -1.519498    1.845045
     14          1           0       -1.212761   -2.277046    0.522933
     15          1           0        0.737378   -1.909441   -1.116534
     16          1           0        2.044701   -0.577991    1.269959
     17          1           0        3.198331    1.087479   -0.235288
     18          1           0        3.446348   -0.571504   -0.815335
     19          1           0        2.272295    0.488475   -1.616901
 ---------------------------------------------------------------------

 SCF Done:  E(RB3LYP) =  -423.164098103     A.U. after    1 cycles

 The electronic state is 1-A.
 Alpha  occ. eigenvalues --  -19.15893 -19.13095 -10.26409 -10.25049 -10.22970
 Alpha  occ. eigenvalues --  -10.21116 -10.20558 -10.20140 -10.18371  -1.05792
 Alpha  occ. eigenvalues --   -1.03649  -0.90373  -0.76591  -0.70394  -0.67666
 Alpha  occ. eigenvalues --   -0.61543  -0.59072  -0.52797  -0.50119  -0.48861
 Alpha  occ. eigenvalues --   -0.45949  -0.45337  -0.43838  -0.42729  -0.41121
 Alpha  occ. eigenvalues --   -0.39201  -0.38499  -0.37527  -0.35416  -0.34197
 Alpha  occ. eigenvalues --   -0.32386  -0.28656  -0.26887  -0.22867
 Alpha virt. eigenvalues --   -0.01038   0.09735   0.09973   0.10992   0.11029
 Alpha virt. eigenvalues --    0.11970   0.13953   0.15219   0.16350   0.16710
 Alpha virt. eigenvalues --    0.16920   0.17238   0.18310   0.18854   0.20842

 Mulliken charges:
               1
     1  C   -0.264168
     2  O   -0.277201
     3  C    0.339480
     4  C   -0.355776
     5  C   -0.146653
     6  C   -0.112513
     7  C   -0.408973
     8  C    0.341812
     9  O   -0.336155
    10  H    0.141616
    11  H    0.131272
    12  H    0.111437
    13  H    0.118712
    14  H    0.129372
    15  H    0.114505
    16  H    0.089787
    17  H    0.138068
    18  H    0.118790
    19  H    0.126588
 Sum of Mulliken charges =   0.00000

 Dipole moment (field-independent basis, Debye):
    X=             -0.2860    Y=             -2.5922    Z=              0.4021  Tot=              2.6388
 Quadrupole moment (field-independent basis, Debye-Ang):
   XX=            -47.1677   YY=            -57.6916   ZZ=            -53.3529
   XY=             -1.6368   XZ=             -1.7919   YZ=             -1.4582

  Exact polarizability:  90.873  -0.320  77.833  -1.100  -0.598  62.645
 Approx polarizability: 114.454  -2.401 125.894   0.332   2.226  98.028

                      1                      2                      3
                      A                      A                      A
 Frequencies --     70.5156                92.6363               170.9746
 Red. masses --      3.0013                 3.8376                 1.2203
 Frc consts  --      0.0088                 0.0194                 0.0210
 IR Inten    --      5.3933                 1.9941                 0.5139

                      4                      5                      6
                      A                      A                      A
 Frequencies --    194.3116               210.4812               231.8824
 Red. masses --      3.2149                 1.1378                 2.3693
 Frc consts  --      0.0715                 0.0297                 0.0751
 IR Inten    --      4.5987                 0.4015                 2.5869

                      7                      8                      9
                      A                      A                      A
 Frequencies --    246.8370               318.3541               416.9152
 Red. masses --      2.8518                 4.0523                 3.4024
 Frc consts  --      0.1024                 0.2420                 0.3484
 IR Inten    --      2.7645                 0.9908                 0.9131

                     10                     11                     12
                      A                      A                      A
 Frequencies --    447.2902               522.3237               584.2890
 Red. masses --      2.7683                 3.7106                 4.3929
 Frc consts  --      0.3263                 0.5965                 0.8836
 IR Inten    --      3.9189                 3.4191                 3.0982

                     13                     14                     15
                      A                      A                      A
 Frequencies --    678.0945               779.9359               806.0635
 Red. masses --      4.5885                 3.0443                 2.7337
 Frc consts  --      1.2431                 1.0911                 1.0465
 IR Inten    --      3.5782                 5.1630                 4.1924

                     16                     17                     18
                      A                      A                      A
 Frequencies --    857.9014               892.3676               935.8664
 Red. masses --      2.1064                 3.0718                 3.5936
 Frc consts  --      0.9134                 1.4412                 1.8544
 IR Inten    --      5.1968                16.6688                40.7419

                     19                     20                     21
                      A                      A                      A
 Frequencies --    957.6035              1000.6656              1006.0349
 Red. masses --      1.4868                 2.2336                 1.2186
 Frc consts  --      0.8033                 1.3178                 0.7267
 IR Inten    --     11.5707                32.4897                 7.2147

                     22                     23                     24
                      A                      A                      A
 Frequencies --   1055.9033              1077.5955              1084.6074
 Red. masses --      1.8407                 1.5183                 2.7392
 Frc consts  --      1.2092                 1.0388                 1.8985
 IR Inten    --     16.9730                 6.4073                51.1957

                     25                     26                     27
                      A                      A                      A
 Frequencies --   1100.6444              1146.2475              1179.8359
 Red. masses --      1.6420                 2.3550                 1.2833
 Frc consts  --      1.1720                 1.8231                 1.0525
 IR Inten    --      7.1918                25.3045                 2.7072

                     28                     29                     30
                      A                      A                      A
 Frequencies --   1216.2428              1223.2750              1243.1542
 Red. masses --      1.5708                 1.6050                 1.8552
 Frc consts  --      1.3690                 1.4150                 1.6893
 IR Inten    --      4.8904                 6.3293                13.4914

                     31                     32                     33
                      A                      A                      A
 Frequencies --   1274.5873              1348.5847              1369.5876
 Red. masses --      2.5311                 1.7035                 3.2063
 Frc consts  --      2.4227                 1.8253                 3.5435
 IR Inten    --      9.8040                 1.0783               116.6905

                     34                     35                     36
                      A                      A                      A
 Frequencies --   1409.1586              1474.8739              1486.7748
 Red. masses --      1.2202                 1.1385                 1.0574
 Frc consts  --      1.4276                 1.4592                 1.3771
 IR Inten    --      4.0629                 1.0251                 6.0675

                     37                     38                     39
                      A                      A                      A
 Frequencies --   1493.5860              1494.7542              1500.3707
 Red. masses --      1.0895                 1.1210                 1.2102
 Frc consts  --      1.4319                 1.4757                 1.6051
 IR Inten    --      0.9433                 8.0168                14.5035

                     40                     41                     42
                      A                      A                      A
 Frequencies --   1507.6775              1867.9557              3004.9143
 Red. masses --      1.0487                12.7355                 1.0370
 Frc consts  --      1.4044                26.1818                 5.5168
 IR Inten    --      6.5668               276.3541                49.6699

                     43                     44                     45
                      A                      A                      A
 Frequencies --   3037.8420              3041.9036              3075.3155
 Red. masses --      1.0351                 1.0838                 1.0998
 Frc consts  --      5.6281                 5.9084                 6.1286
 IR Inten    --     21.9775                21.1424                27.6896

                     46                     47                     48
                      A                      A                      A
 Frequencies --   3106.2857              3110.9834              3119.9072
 Red. masses --      1.1020                 1.0553                 1.1012
 Frc consts  --      6.2652                 6.0173                 6.3155
 IR Inten    --     25.0855                14.0030                13.9123

                     49                     50                     51
                      A                      A                      A
 Frequencies --   3132.2059              3202.4813              3211.2704
 Red. masses --      1.1014                 1.1095                 1.0991
 Frc consts  --      6.3666                 6.7045                 6.6782
 IR Inten    --     24.3387                 3.3559                 5.5053

 - Thermochemistry -
 -------------------
 Temperature   298.150 Kelvin.  Pressure   1.00000 Atm.
 Atom     1 has atomic number  6 and mass  12.00000

 Molecular mass:   126.06808 amu.
 Principal axes and moments of inertia in atomic units:
                           1         2         3
     Eigenvalues --   641.330231350.014351677.84781
           X            0.99972  -0.01149  -0.02061
           Y            0.01075   0.99929  -0.03610
           Z            0.02101   0.03587   0.99914
 This molecule is an asymmetric top.
 Rotational symmetry number  1.
 Warning -- assumption of classical behavior for rotation
           may cause significant error
 Rotational temperatures (Kelvin)      0.13505     0.06416     0.05162
 Rotational constants (GHZ):           2.81406     1.33683     1.07563
 Zero-point vibrational energy     412830.5 (Joules/Mol)
                                   98.66886 (Kcal/Mol)
 Warning -- explicit consideration of  12 degrees of freedom as
           vibrations may cause significant error
 Vibrational temperatures:    101.46   133.28   245.99   279.57   302.84
          (Kelvin)            333.63   355.14   458.04   599.85   643.55
                              751.51   840.66   975.63  1122.15  1159.74
                             1234.33  1283.92  1346.50  1377.78  1439.73
                             1447.46  1519.21  1550.42  1560.51  1583.58
                             1649.19  1697.52  1749.90  1760.02  1788.62
                             1833.84  1940.31  1970.53  2027.46  2122.01
                             2139.13  2148.93  2150.62  2158.70  2169.21
                             2687.57  4323.40  4370.77  4376.62  4424.69
                             4469.25  4476.01  4488.85  4506.54  4607.65
                             4620.30

 Zero-point correction=                           0.157239 (Hartree/Particle)
 Thermal correction to Energy=                    0.166498
 Thermal correction to Enthalpy=                  0.167442
 Thermal correction to Gibbs Free Energy=         0.123055
 Sum of electronic and zero-point Energies=           -423.006859
 Sum of electronic and thermal Energies=              -422.997600
 Sum of electronic and thermal Enthalpies=            -422.996656
 Sum of electronic and thermal Free Energies=         -423.041043

                     E (Thermal)             CV                S
                      KCal/Mol        Cal/Mol-Kelvin    Cal/Mol-Kelvin
 Total                  104.479             33.799             93.421
 Electronic               0.000              0.000              0.000
 Translational            0.889              2.981             40.409
 Rotational               0.889              2.981             28.765
 Vibrational            102.702             27.837             24.247
 Vibration     1          0.598              1.968              4.139
 Vibration     2          0.602              1.954              3.604
 Vibration     3          0.626              1.878              2.425
 Vibration     4          0.635              1.848              2.186
 Vibration     5          0.643              1.825              2.040
 Vibration     6          0.653              1.792              1.864
 Vibration     7          0.661              1.768              1.753
 Vibration     8          0.705              1.639              1.319
 Vibration     9          0.780              1.433              0.903
 Vibration    10          0.806              1.367              0.804
 Vibration    11          0.877              1.201              0.605
 Vibration    12          0.941              1.065              0.477

 Optimization completed.
    -- Stationary point found.
 Normal termination of Gaussian 09 at Tue Jan 28 10:02:04 2020.
