 Gaussian 09, Revision D.01,
 Gaussian 09:  ES64L-G09RevD.01 24-Apr-2013

 -----------------------------
 # b3lyp 6-31G(2df,p) opt Freq
 -----------------------------

 -----
 titel
 -----
 Symbolic Z-matrix:
 Charge =  0 Multiplicity = 1

 SCF Done:  E(RB3LYP) =  -423.209376766     A.U. after   14 cycles
 Optimization completed.
    -- Stationary point found.
 Normal termination of Gaussian 09 at Tue Jan 28 08:13:25 2020.

 ----------------------------------------------------------------------
 #N Geom=AllCheck Guess=TCheck SCRF=Check GenChk RB3LYP/6-31G(2df,p) Fr
 eq
 ----------------------------------------------------------------------

 Structure from the checkpoint file:  "/scratch/puck/g09_6d50ed89-007f-43b3-bc96-65947bc3a5bd/Gau-91821.chk"
 -----
 titel
 -----
 Charge =  0 Multiplicity = 1

                         Standard orientation:
 ---------------------------------------------------------------------
 Center     Atomic      Atomic             Coordinates (Angstroms)
 Number     Number       Type             X           Y           Z
 ---------------------------------------------------------------------
      1          6           0       -3.052880   -0.002998   -0.000015
      2          6           0       -1.643255    0.583022    0.000340
      3          6           0       -0.562102   -0.477638   -0.000137
      4          8           0       -0.830877   -1.662312   -0.000357
      5          6           0        0.894396   -0.060692   -0.000170
      6          6           0        1.844056   -1.032405    0.735770
      7          6           0        1.844231   -1.032840   -0.735188
      8          6           0        1.350941    1.350918   -0.000346
      9          8           0        0.661666    2.341365   -0.000080
     10          1           0       -3.219464   -0.630514    0.879293
     11          1           0       -3.796512    0.798669    0.000420
     12          1           0       -3.219420   -0.629499   -0.880060
     13          1           0       -1.473155    1.241324   -0.860049
     14          1           0       -1.473211    1.240265    0.861579
     15          1           0        2.678079   -0.586954    1.266937
     16          1           0        1.331260   -1.840293    1.242781
     17          1           0        2.678394   -0.587643   -1.266351
     18          1           0        1.331609   -1.841053   -1.241841
     19          1           0        2.463782    1.439071   -0.000732
 ---------------------------------------------------------------------

 SCF Done:  E(RB3LYP) =  -423.209376766     A.U. after    1 cycles

 The electronic state is 1-A.
 Alpha  occ. eigenvalues --  -19.14469 -19.13179 -10.28140 -10.27547 -10.22410
 Alpha  occ. eigenvalues --  -10.21890 -10.21858 -10.18778 -10.17196  -1.05411
 Alpha  occ. eigenvalues --   -1.04398  -0.89008  -0.77607  -0.69678  -0.65329
 Alpha  occ. eigenvalues --   -0.62710  -0.60032  -0.51910  -0.50328  -0.49747
 Alpha  occ. eigenvalues --   -0.45939  -0.45744  -0.43715  -0.41998  -0.40991
 Alpha  occ. eigenvalues --   -0.40074  -0.38010  -0.36994  -0.36286  -0.34062
 Alpha  occ. eigenvalues --   -0.33684  -0.30268  -0.26615  -0.25040
 Alpha virt. eigenvalues --   -0.02790  -0.01976   0.08823   0.10471   0.11103
 Alpha virt. eigenvalues --    0.12329   0.13263   0.14425   0.15800   0.17065
 Alpha virt. eigenvalues --    0.17341   0.18845   0.20614   0.21145   0.22606

 Mulliken charges:
               1
     1  C   -0.383512
     2  C   -0.277773
     3  C    0.292022
     4  O   -0.326515
     5  C    0.143589
     6  C   -0.278548
     7  C   -0.278584
     8  C    0.093717
     9  O   -0.276694
    10  H    0.127852
    11  H    0.110543
    12  H    0.127841
    13  H    0.138014
    14  H    0.137979
    15  H    0.130653
    16  H    0.157035
    17  H    0.130636
    18  H    0.157042
    19  H    0.074703
 Sum of Mulliken charges =   0.00000

 Dipole moment (field-independent basis, Debye):
    X=              1.8837    Y=             -0.3817    Z=              0.0007  Tot=              1.9220
 Quadrupole moment (field-independent basis, Debye-Ang):
   XX=            -48.2444   YY=            -63.5649   ZZ=            -50.8417
   XY=             -3.4748   XZ=             -0.0008   YZ=             -0.0018

  Exact polarizability:  91.737  -4.224  82.688  -0.001   0.001  58.885
 Approx polarizability: 118.215  -8.284 137.915   0.000   0.004  92.156

                      1                      2                      3
                      A                      A                      A
 Frequencies --     23.2564                88.4499               117.8596
 Red. masses --      5.1905                 1.7753                 3.1502
 Frc consts  --      0.0017                 0.0082                 0.0258
 IR Inten    --      7.4316                 0.6037                 2.4541

                      4                      5                      6
                      A                      A                      A
 Frequencies --    181.2595               207.4298               252.8156
 Red. masses --      4.0105                 1.1636                 4.8734
 Frc consts  --      0.0776                 0.0295                 0.1835
 IR Inten    --      4.7614                 0.4424                 9.6023

                      7                      8                      9
                      A                      A                      A
 Frequencies --    281.8873               314.3173               351.4742
 Red. masses --      2.3082                 4.3735                 2.0674
 Frc consts  --      0.1081                 0.2546                 0.1505
 IR Inten    --      0.5998                 3.8199                 0.5208

                     10                     11                     12
                      A                      A                      A
 Frequencies --    369.0413               486.7250               571.2385
 Red. masses --      4.4896                 5.8999                 1.9209
 Frc consts  --      0.3603                 0.8235                 0.3693
 IR Inten    --      2.5553                10.6019                 0.2869

                     13                     14                     15
                      A                      A                      A
 Frequencies --    622.4489               751.1616               767.0717
 Red. masses --      4.7672                 3.4436                 3.4807
 Frc consts  --      1.0882                 1.1448                 1.2067
 IR Inten    --     20.7395                 8.0216                 1.6931

                     16                     17                     18
                      A                      A                      A
 Frequencies --    792.1913               817.5504               922.8147
 Red. masses --      1.0356                 1.8220                 2.4099
 Frc consts  --      0.3829                 0.7175                 1.2092
 IR Inten    --      0.2637                 4.5149                 9.0935

                     19                     20                     21
                      A                      A                      A
 Frequencies --    933.3437               969.9896              1003.4910
 Red. masses --      2.4926                 1.2112                 1.8859
 Frc consts  --      1.2793                 0.6714                 1.1189
 IR Inten    --     38.2622                 0.3964                17.4357

                     22                     23                     24
                      A                      A                      A
 Frequencies --   1050.3698              1058.2373              1074.2463
 Red. masses --      1.6566                 1.8866                 1.4650
 Frc consts  --      1.0768                 1.2448                 0.9961
 IR Inten    --      0.2084                53.7960                17.4554

                     25                     26                     27
                      A                      A                      A
 Frequencies --   1091.6602              1108.5693              1126.7186
 Red. masses --      1.5770                 1.4925                 2.4221
 Frc consts  --      1.1073                 1.0806                 1.8117
 IR Inten    --      0.4494                 1.3935                61.3364

                     28                     29                     30
                      A                      A                      A
 Frequencies --   1210.2682              1272.9149              1277.4885
 Red. masses --      1.3034                 1.1865                 2.8318
 Frc consts  --      1.1248                 1.1327                 2.7229
 IR Inten    --      0.0155                 0.2699                43.6493

                     31                     32                     33
                      A                      A                      A
 Frequencies --   1321.7018              1384.9613              1414.0331
 Red. masses --      3.1130                 2.0221                 1.2124
 Frc consts  --      3.2040                 2.2852                 1.4282
 IR Inten    --     36.3923                39.0575                 7.6627

                     34                     35                     36
                      A                      A                      A
 Frequencies --   1420.8896              1445.3771              1454.2756
 Red. masses --      1.1075                 1.0876                 1.2317
 Frc consts  --      1.3173                 1.3387                 1.5348
 IR Inten    --     10.3491                 6.0925                 3.5961

                     37                     38                     39
                      A                      A                      A
 Frequencies --   1478.6415              1494.0706              1498.5171
 Red. masses --      1.3113                 1.0387                 1.0517
 Frc consts  --      1.6892                 1.3662                 1.3915
 IR Inten    --      2.2767                 5.2013                 7.5461

                     40                     41                     42
                      A                      A                      A
 Frequencies --   1771.8888              1815.4129              2844.5050
 Red. masses --     10.9629                10.6909                 1.0813
 Frc consts  --     20.2791                20.7594                 5.1549
 IR Inten    --     98.9679               250.9298               109.5372

                     43                     44                     45
                      A                      A                      A
 Frequencies --   3047.0507              3051.3732              3068.8453
 Red. masses --      1.0627                 1.0352                 1.0969
 Frc consts  --      5.8133                 5.6791                 6.0862
 IR Inten    --     10.8805                22.4077                 1.7691

                     46                     47                     48
                      A                      A                      A
 Frequencies --   3122.9435              3125.9599              3142.7068
 Red. masses --      1.1020                 1.1015                 1.0585
 Frc consts  --      6.3323                 6.3415                 6.1596
 IR Inten    --     19.6692                20.4421                 9.0331

                     49                     50                     51
                      A                      A                      A
 Frequencies --   3143.2089              3236.3223              3249.1811
 Red. masses --      1.0503                 1.1175                 1.1167
 Frc consts  --      6.1138                 6.8960                 6.9458
 IR Inten    --      7.7383                 0.3466                 0.3271

 - Thermochemistry -
 -------------------
 Temperature   298.150 Kelvin.  Pressure   1.00000 Atm.
 Atom     1 has atomic number  6 and mass  12.00000

 Molecular mass:   126.06808 amu.
 Principal axes and moments of inertia in atomic units:
                           1         2         3
     Eigenvalues --   794.246551306.339041940.74190
           X            0.99879  -0.04910   0.00000
           Y            0.04910   0.99879   0.00000
           Z            0.00000   0.00000   1.00000
 This molecule is an asymmetric top.
 Rotational symmetry number  1.
 Warning -- assumption of classical behavior for rotation
           may cause significant error
 Rotational temperatures (Kelvin)      0.10905     0.06630     0.04463
 Rotational constants (GHZ):           2.27227     1.38153     0.92992
 Zero-point vibrational energy     410487.5 (Joules/Mol)
                                   98.10887 (Kcal/Mol)
 Warning -- explicit consideration of  12 degrees of freedom as
           vibrations may cause significant error
 Vibrational temperatures:     33.46   127.26   169.57   260.79   298.44
          (Kelvin)            363.74   405.57   452.23   505.69   530.97
                              700.29   821.88   895.56  1080.75  1103.64
                             1139.79  1176.27  1327.72  1342.87  1395.60
                             1443.80  1511.25  1522.57  1545.60  1570.65
                             1594.98  1621.09  1741.30  1831.44  1838.02
                             1901.63  1992.65  2034.48  2044.34  2079.57
                             2092.38  2127.43  2149.63  2156.03  2549.35
                             2611.97  4092.60  4384.02  4390.24  4415.38
                             4493.21  4497.55  4521.65  4522.37  4656.34
                             4674.84

 Zero-point correction=                           0.156346 (Hartree/Particle)
 Thermal correction to Energy=                    0.166030
 Thermal correction to Enthalpy=                  0.166975
 Thermal correction to Gibbs Free Energy=         0.120669
 Sum of electronic and zero-point Energies=           -423.053030
 Sum of electronic and thermal Energies=              -423.043346
 Sum of electronic and thermal Enthalpies=            -423.042402
 Sum of electronic and thermal Free Energies=         -423.088708

                     E (Thermal)             CV                S
                      KCal/Mol        Cal/Mol-Kelvin    Cal/Mol-Kelvin
 Total                  104.186             34.744             97.458
 Electronic               0.000              0.000              0.000
 Translational            0.889              2.981             40.409
 Rotational               0.889              2.981             29.089
 Vibrational            102.408             28.782             27.960
 Vibration     1          0.593              1.985              6.335
 Vibration     2          0.601              1.957              3.694
 Vibration     3          0.608              1.934              3.135
 Vibration     4          0.630              1.865              2.315
 Vibration     5          0.641              1.829              2.066
 Vibration     6          0.664              1.758              1.711
 Vibration     7          0.681              1.707              1.522
 Vibration     8          0.702              1.646              1.340
 Vibration     9          0.728              1.572              1.160
 Vibration    10          0.741              1.536              1.084
 Vibration    11          0.843              1.279              0.692
 Vibration    12          0.927              1.093              0.502

 Optimization completed.
    -- Stationary point found.
 Normal termination of Gaussian 09 at Tue Jan 28 08:53:16 2020.
