 Gaussian 09, Revision D.01,
 Gaussian 09:  ES64L-G09RevD.01 24-Apr-2013

 -----------------------------
 # b3lyp 6-31G(2df,p) opt Freq
 -----------------------------

 -----
 titel
 -----
 Symbolic Z-matrix:
 Charge =  0 Multiplicity = 1

 SCF Done:  E(RB3LYP) =  -423.188051997     A.U. after   14 cycles
 Optimization completed.
    -- Stationary point found.
 Normal termination of Gaussian 09 at Mon Jan 27 15:35:27 2020.

 ----------------------------------------------------------------------
 #N Geom=AllCheck Guess=TCheck SCRF=Check GenChk RB3LYP/6-31G(2df,p) Fr
 eq
 ----------------------------------------------------------------------

 Structure from the checkpoint file:  "/scratch/puck/g09_5e27bc21-b410-4484-adda-525bb8c73ffe/Gau-163621.chk"
 -----
 titel
 -----
 Charge =  0 Multiplicity = 1

                         Standard orientation:
 ---------------------------------------------------------------------
 Center     Atomic      Atomic             Coordinates (Angstroms)
 Number     Number       Type             X           Y           Z
 ---------------------------------------------------------------------
      1          6           0       -2.675630   -1.034535   -0.303026
      2          6           0       -1.776426    0.079689    0.254885
      3          6           0       -2.317426    1.469613   -0.110431
      4          6           0       -0.349906   -0.096977   -0.239920
      5          6           0        0.584555   -0.976613    0.503680
      6          8           0        1.826608   -1.109067   -0.240554
      7          6           0        2.086801    0.249662   -0.057593
      8          8           0        3.071545    0.839194   -0.358819
      9          6           0        0.774189    0.513984    0.628219
     10          1           0       -2.719007   -0.989191   -1.397134
     11          1           0       -2.305993   -2.025979   -0.024305
     12          1           0       -3.697826   -0.934048    0.074737
     13          1           0       -1.766039   -0.006078    1.350902
     14          1           0       -1.694330    2.266014    0.307296
     15          1           0       -2.344032    1.602261   -1.197957
     16          1           0       -3.336351    1.602164    0.266302
     17          1           0       -0.226070   -0.056877   -1.320799
     18          1           0        0.364410   -1.732406    1.244361
     19          1           0        0.583066    1.204192    1.436696
 ---------------------------------------------------------------------

 SCF Done:  E(RB3LYP) =  -423.188051997     A.U. after    1 cycles

 The electronic state is 1-A.
 Alpha  occ. eigenvalues --  -19.17663 -19.13552 -10.31094 -10.26405 -10.22296
 Alpha  occ. eigenvalues --  -10.21798 -10.21237 -10.18833 -10.18739  -1.10772
 Alpha  occ. eigenvalues --   -1.03621  -0.87364  -0.79743  -0.69808  -0.67590
 Alpha  occ. eigenvalues --   -0.63610  -0.58921  -0.53772  -0.52676  -0.50981
 Alpha  occ. eigenvalues --   -0.46752  -0.44852  -0.43120  -0.42583  -0.42374
 Alpha  occ. eigenvalues --   -0.39686  -0.38480  -0.36755  -0.35895  -0.35027
 Alpha  occ. eigenvalues --   -0.34282  -0.30251  -0.27903  -0.27430
 Alpha virt. eigenvalues --    0.00367   0.07294   0.08647   0.10047   0.10426
 Alpha virt. eigenvalues --    0.11306   0.12939   0.14500   0.15020   0.15704
 Alpha virt. eigenvalues --    0.16196   0.18330   0.19011   0.20205   0.20425

 Mulliken charges:
               1
     1  C   -0.390522
     2  C   -0.008990
     3  C   -0.385424
     4  C   -0.022991
     5  C    0.067246
     6  O   -0.266552
     7  C    0.468950
     8  O   -0.325441
     9  C   -0.300342
    10  H    0.121682
    11  H    0.118520
    12  H    0.118492
    13  H    0.076485
    14  H    0.120538
    15  H    0.120981
    16  H    0.117098
    17  H    0.111307
    18  H    0.131670
    19  H    0.127292
 Sum of Mulliken charges =   0.00000

 Dipole moment (field-independent basis, Debye):
    X=             -4.3393    Y=             -0.3822    Z=              1.5599  Tot=              4.6270
 Quadrupole moment (field-independent basis, Debye-Ang):
   XX=            -64.7315   YY=            -54.4472   ZZ=            -51.1489
   XY=             -1.5576   XZ=              2.7672   YZ=             -0.5159

  Exact polarizability:  95.013   4.568  72.235  -1.280  -0.404  61.377
 Approx polarizability: 126.249  10.883 112.608  -4.299  -0.632  96.711

                      1                      2                      3
                      A                      A                      A
 Frequencies --     75.8503               121.1502               144.6443
 Red. masses --      3.5301                 3.7874                 3.4855
 Frc consts  --      0.0120                 0.0328                 0.0430
 IR Inten    --      0.3383                 1.7213                 2.9384

                      4                      5                      6
                      A                      A                      A
 Frequencies --    218.5325               228.9657               267.6182
 Red. masses --      1.0406                 1.6171                 1.8797
 Frc consts  --      0.0293                 0.0499                 0.0793
 IR Inten    --      0.0073                 0.2044                 0.6995

                      7                      8                      9
                      A                      A                      A
 Frequencies --    296.8664               390.8305               442.1618
 Red. masses --      2.7684                 3.5123                 2.5688
 Frc consts  --      0.1437                 0.3161                 0.2959
 IR Inten    --      0.0136                 0.6609                 0.4937

                     10                     11                     12
                      A                      A                      A
 Frequencies --    470.9083               529.1341               673.6524
 Red. masses --      3.1434                 4.4758                 6.6012
 Frc consts  --      0.4107                 0.7383                 1.7650
 IR Inten    --      2.2697                 3.7195                 1.1655

                     13                     14                     15
                      A                      A                      A
 Frequencies --    781.1807               818.3243               856.3277
 Red. masses --      7.3512                 1.4017                 2.3180
 Frc consts  --      2.6431                 0.5530                 1.0015
 IR Inten    --     12.0383                14.6448                 4.6860

                     16                     17                     18
                      A                      A                      A
 Frequencies --    883.8210               898.1808               929.8344
 Red. masses --      5.6657                 3.0115                 1.4999
 Frc consts  --      2.6076                 1.4314                 0.7640
 IR Inten    --     21.5524                15.5816                15.2262

                     19                     20                     21
                      A                      A                      A
 Frequencies --    936.4736               966.0652               972.1003
 Red. masses --      1.6822                 1.6219                 2.0969
 Frc consts  --      0.8692                 0.8919                 1.1675
 IR Inten    --     33.0930                 2.0291                 4.7092

                     22                     23                     24
                      A                      A                      A
 Frequencies --   1010.9900              1042.6013              1091.2040
 Red. masses --      1.8012                 2.5107                 1.3954
 Frc consts  --      1.0847                 1.6080                 0.9789
 IR Inten    --     44.6698                28.6065                 5.5442

                     25                     26                     27
                      A                      A                      A
 Frequencies --   1100.0172              1124.2312              1143.1207
 Red. masses --      2.5248                 1.6408                 1.9918
 Frc consts  --      1.8000                 1.2219                 1.5335
 IR Inten    --     32.0235                 1.5543                 4.1827

                     28                     29                     30
                      A                      A                      A
 Frequencies --   1189.9713              1212.2634              1243.3330
 Red. masses --      1.7985                 2.3015                 1.9006
 Frc consts  --      1.5005                 1.9928                 1.7310
 IR Inten    --      3.6870                 8.2290                16.5983

                     31                     32                     33
                      A                      A                      A
 Frequencies --   1272.8495              1334.8695              1348.2195
 Red. masses --      1.4026                 1.7131                 1.3755
 Frc consts  --      1.3389                 1.7985                 1.4731
 IR Inten    --     17.1287                 7.2253                 1.2089

                     34                     35                     36
                      A                      A                      A
 Frequencies --   1401.8820              1420.2616              1431.0923
 Red. masses --      1.2333                 1.4050                 1.6839
 Frc consts  --      1.4281                 1.6698                 2.0318
 IR Inten    --      3.4049                 4.9390                 2.2906

                     37                     38                     39
                      A                      A                      A
 Frequencies --   1485.7698              1491.2059              1503.0857
 Red. masses --      1.0419                 1.0498                 1.0469
 Frc consts  --      1.3552                 1.3755                 1.3935
 IR Inten    --      0.1116                 2.3674                 8.0104

                     40                     41                     42
                      A                      A                      A
 Frequencies --   1510.4289              1944.6216              3002.9214
 Red. masses --      1.0717                12.7537                 1.0825
 Frc consts  --      1.4405                28.4156                 5.7513
 IR Inten    --      4.2527               516.1945                15.0189

                     43                     44                     45
                      A                      A                      A
 Frequencies --   3031.1307              3034.8304              3098.0937
 Red. masses --      1.0351                 1.0358                 1.1010
 Frc consts  --      5.6032                 5.6206                 6.2265
 IR Inten    --     22.7121                18.6867                 4.2181

                     46                     47                     48
                      A                      A                      A
 Frequencies --   3102.9467              3108.7099              3110.9952
 Red. masses --      1.1003                 1.1022                 1.1018
 Frc consts  --      6.2421                 6.2761                 6.2828
 IR Inten    --     41.5522                15.8472                39.2997

                     49                     50                     51
                      A                      A                      A
 Frequencies --   3127.0461              3220.1536              3233.1654
 Red. masses --      1.0885                 1.0911                 1.0993
 Frc consts  --      6.2712                 6.6660                 6.7707
 IR Inten    --     12.7602                 3.4595                 0.8821

 - Thermochemistry -
 -------------------
 Temperature   298.150 Kelvin.  Pressure   1.00000 Atm.
 Atom     1 has atomic number  6 and mass  12.00000

 Molecular mass:   126.06808 amu.
 Principal axes and moments of inertia in atomic units:
                           1         2         3
     Eigenvalues --   465.609741890.837202182.82542
           X            0.99995  -0.00538   0.00840
           Y            0.00536   0.99998   0.00235
           Z           -0.00841  -0.00230   0.99996
 This molecule is an asymmetric top.
 Rotational symmetry number  1.
 Warning -- assumption of classical behavior for rotation
           may cause significant error
 Rotational temperatures (Kelvin)      0.18602     0.04581     0.03968
 Rotational constants (GHZ):           3.87608     0.95447     0.82679
 Zero-point vibrational energy     414354.3 (Joules/Mol)
                                   99.03306 (Kcal/Mol)
 Warning -- explicit consideration of  11 degrees of freedom as
           vibrations may cause significant error
 Vibrational temperatures:    109.13   174.31   208.11   314.42   329.43
          (Kelvin)            385.04   427.12   562.32   636.17   677.53
                              761.30   969.23  1123.94  1177.38  1232.06
                             1271.62  1292.28  1337.82  1347.37  1389.95
                             1398.63  1454.59  1500.07  1570.00  1582.68
                             1617.52  1644.69  1712.10  1744.17  1788.88
                             1831.34  1920.58  1939.78  2016.99  2043.44
                             2059.02  2137.69  2145.51  2162.60  2173.17
                             2797.87  4320.53  4361.12  4366.44  4457.46
                             4464.44  4472.73  4476.02  4499.12  4633.08
                             4651.80

 Zero-point correction=                           0.157819 (Hartree/Particle)
 Thermal correction to Energy=                    0.166671
 Thermal correction to Enthalpy=                  0.167616
 Thermal correction to Gibbs Free Energy=         0.124056
 Sum of electronic and zero-point Energies=           -423.030233
 Sum of electronic and thermal Energies=              -423.021381
 Sum of electronic and thermal Enthalpies=            -423.020436
 Sum of electronic and thermal Free Energies=         -423.063996

                     E (Thermal)             CV                S
                      KCal/Mol        Cal/Mol-Kelvin    Cal/Mol-Kelvin
 Total                  104.588             33.060             91.680
 Electronic               0.000              0.000              0.000
 Translational            0.889              2.981             40.409
 Rotational               0.889              2.981             29.043
 Vibrational            102.810             27.098             22.228
 Vibration     1          0.599              1.965              3.995
 Vibration     2          0.609              1.932              3.082
 Vibration     3          0.616              1.908              2.742
 Vibration     4          0.646              1.813              1.971
 Vibration     5          0.652              1.797              1.887
 Vibration     6          0.673              1.733              1.612
 Vibration     7          0.691              1.680              1.435
 Vibration     8          0.759              1.490              0.997
 Vibration     9          0.802              1.378              0.820
 Vibration    10          0.828              1.315              0.735
 Vibration    11          0.884              1.186              0.589

 Normal termination of Gaussian 09 at Mon Jan 27 16:13:58 2020.
