 Gaussian 09, Revision D.01,
 Gaussian 09:  ES64L-G09RevD.01 24-Apr-2013

 -----------------------------
 # b3lyp 6-31G(2df,p) opt Freq
 -----------------------------

 -----
 titel
 -----
 Symbolic Z-matrix:
 Charge =  0 Multiplicity = 1

 SCF Done:  E(RB3LYP) =  -423.214276408     A.U. after   14 cycles
 Optimization completed.
    -- Stationary point found.
 Normal termination of Gaussian 09 at Mon Jan 27 22:54:49 2020.

 ----------------------------------------------------------------------
 #N Geom=AllCheck Guess=TCheck SCRF=Check GenChk RB3LYP/6-31G(2df,p) Fr
 eq
 ----------------------------------------------------------------------

 Structure from the checkpoint file:  "/scratch/puck/g09_67ef2067-ca17-42ed-858e-f5b0eafa3546/Gau-101249.chk"
 -----
 titel
 -----
 Charge =  0 Multiplicity = 1

                         Standard orientation:
 ---------------------------------------------------------------------
 Center     Atomic      Atomic             Coordinates (Angstroms)
 Number     Number       Type             X           Y           Z
 ---------------------------------------------------------------------
      1          6           0       -2.448733    0.105653   -0.588919
      2          6           0       -0.973904   -0.261736   -0.659141
      3          6           0       -0.421243   -1.361678    0.283267
      4          6           0       -0.337886   -0.317786    1.413399
      5          6           0        0.047166    0.606609    0.197855
      6          6           0        0.087537    2.111258    0.231560
      7          6           0        1.320777   -0.121724   -0.221261
      8          8           0        2.395704    0.280694   -0.551861
      9          8           0        0.971711   -1.449792   -0.151203
     10          1           0       -3.058185   -0.687700   -1.034791
     11          1           0       -2.810149    0.267463    0.429797
     12          1           0       -2.638596    1.022068   -1.156988
     13          1           0       -0.678202   -0.406584   -1.703559
     14          1           0       -0.832359   -2.363978    0.382919
     15          1           0       -1.296327   -0.059484    1.862670
     16          1           0        0.414734   -0.487056    2.186819
     17          1           0        0.373897    2.512057   -0.745855
     18          1           0       -0.884795    2.531232    0.505783
     19          1           0        0.828379    2.461191    0.957165
 ---------------------------------------------------------------------

 SCF Done:  E(RB3LYP) =  -423.214276408     A.U. after    1 cycles

 The electronic state is 1-A.
 Alpha  occ. eigenvalues --  -19.17245 -19.12341 -10.29596 -10.25595 -10.21905
 Alpha  occ. eigenvalues --  -10.21217 -10.20444 -10.19497 -10.18660  -1.09848
 Alpha  occ. eigenvalues --   -1.02208  -0.86699  -0.75483  -0.73477  -0.67275
 Alpha  occ. eigenvalues --   -0.65916  -0.57111  -0.52305  -0.51627  -0.49039
 Alpha  occ. eigenvalues --   -0.46188  -0.44431  -0.42926  -0.42316  -0.40726
 Alpha  occ. eigenvalues --   -0.40279  -0.38629  -0.37440  -0.36357  -0.36072
 Alpha  occ. eigenvalues --   -0.32726  -0.31694  -0.28226  -0.25671
 Alpha virt. eigenvalues --    0.01715   0.07550   0.09436   0.10656   0.12340
 Alpha virt. eigenvalues --    0.12673   0.13597   0.14189   0.14918   0.15899
 Alpha virt. eigenvalues --    0.16318   0.17421   0.19752   0.20342   0.21793

 Mulliken charges:
               1
     1  C   -0.443122
     2  C   -0.009600
     3  C    0.085114
     4  C   -0.291122
     5  C    0.132330
     6  C   -0.502155
     7  C    0.445727
     8  O   -0.361352
     9  O   -0.248262
    10  H    0.127854
    11  H    0.122917
    12  H    0.131438
    13  H    0.092431
    14  H    0.094654
    15  H    0.114363
    16  H    0.118897
    17  H    0.136154
    18  H    0.117266
    19  H    0.136468
 Sum of Mulliken charges =   0.00000

 Dipole moment (field-independent basis, Debye):
    X=             -4.2564    Y=              0.3663    Z=              1.1325  Tot=              4.4197
 Quadrupole moment (field-independent basis, Debye-Ang):
   XX=            -60.6253   YY=            -52.9088   ZZ=            -51.5092
   XY=              1.3180   XZ=              2.7477   YZ=             -0.3753

  Exact polarizability:  83.398   4.036  74.291  -0.386  -1.187  66.481
 Approx polarizability: 122.442   8.329 109.079  -4.988  -2.263 101.712

                      1                      2                      3
                      A                      A                      A
 Frequencies --    147.9854               173.9583               186.5635
 Red. masses --      3.3415                 1.1538                 1.0388
 Frc consts  --      0.0431                 0.0206                 0.0213
 IR Inten    --      1.4253                 0.1487                 0.0249

                      4                      5                      6
                      A                      A                      A
 Frequencies --    203.1495               253.4694               316.2316
 Red. masses --      2.4339                 3.3595                 3.2044
 Frc consts  --      0.0592                 0.1272                 0.1888
 IR Inten    --      0.2843                 3.3580                 0.3683

                      7                      8                      9
                      A                      A                      A
 Frequencies --    339.8446               474.0863               483.4701
 Red. masses --      2.6655                 2.8150                 3.6847
 Frc consts  --      0.1814                 0.3728                 0.5074
 IR Inten    --      0.4405                 3.3632                 2.3483

                     10                     11                     12
                      A                      A                      A
 Frequencies --    548.9335               620.5595               669.6954
 Red. masses --      3.4815                 4.9037                 3.7686
 Frc consts  --      0.6181                 1.1126                 0.9958
 IR Inten    --      1.6426                 3.8260                 1.1216

                     13                     14                     15
                      A                      A                      A
 Frequencies --    725.7858               792.5381               822.3531
 Red. masses --      4.2355                 3.5372                 2.5760
 Frc consts  --      1.3145                 1.3090                 1.0264
 IR Inten    --      4.0256                 4.9135                 0.4338

                     16                     17                     18
                      A                      A                      A
 Frequencies --    852.1086               884.7768               938.7565
 Red. masses --      2.5942                 2.7538                 4.2594
 Frc consts  --      1.1098                 1.2702                 2.2116
 IR Inten    --      8.2792                 9.9586                66.6784

                     19                     20                     21
                      A                      A                      A
 Frequencies --    943.1401              1000.2573              1045.0495
 Red. masses --      2.1404                 1.3829                 1.1918
 Frc consts  --      1.1218                 0.8152                 0.7669
 IR Inten    --      0.1600                 5.0136                 2.7755

                     22                     23                     24
                      A                      A                      A
 Frequencies --   1060.5871              1066.5787              1096.6100
 Red. masses --      1.3925                 3.0403                 2.2662
 Frc consts  --      0.9229                 2.0378                 1.6057
 IR Inten    --      5.5994                76.7930                11.3260

                     25                     26                     27
                      A                      A                      A
 Frequencies --   1109.3865              1127.5984              1198.8019
 Red. masses --      1.9843                 1.9770                 1.9047
 Frc consts  --      1.4389                 1.4810                 1.6127
 IR Inten    --      3.5946                 6.5357                15.2320

                     28                     29                     30
                      A                      A                      A
 Frequencies --   1217.1908              1245.9138              1253.9188
 Red. masses --      2.0083                 1.6703                 1.7196
 Frc consts  --      1.7531                 1.5276                 1.5930
 IR Inten    --      0.6620                 1.8397                 0.1184

                     31                     32                     33
                      A                      A                      A
 Frequencies --   1307.4901              1347.1982              1389.7555
 Red. masses --      1.6457                 2.8624                 1.4261
 Frc consts  --      1.6576                 3.0608                 1.6228
 IR Inten    --     30.4043                11.9984                 5.4521

                     34                     35                     36
                      A                      A                      A
 Frequencies --   1414.9522              1419.7062              1486.4985
 Red. masses --      1.2888                 1.3341                 1.0509
 Frc consts  --      1.5203                 1.5843                 1.3681
 IR Inten    --      3.0274                 3.1322                 4.4039

                     37                     38                     39
                      A                      A                      A
 Frequencies --   1488.1858              1494.0778              1496.4309
 Red. masses --      1.0563                 1.0777                 1.0523
 Frc consts  --      1.3783                 1.4174                 1.3884
 IR Inten    --      5.1225                 2.9304                 2.2492

                     40                     41                     42
                      A                      A                      A
 Frequencies --   1511.0706              1904.3847              3038.6504
 Red. masses --      1.0851                12.8019                 1.0366
 Frc consts  --      1.4597                27.3549                 5.6392
 IR Inten    --      8.5033               378.3756                16.5822

                     43                     44                     45
                      A                      A                      A
 Frequencies --   3040.1473              3054.2280              3079.2204
 Red. masses --      1.0361                 1.0846                 1.0597
 Frc consts  --      5.6418                 5.9608                 5.9201
 IR Inten    --     21.1642                18.7455                14.0064

                     46                     47                     48
                      A                      A                      A
 Frequencies --   3099.3857              3109.4471              3111.5969
 Red. masses --      1.1008                 1.1007                 1.1019
 Frc consts  --      6.2302                 6.2703                 6.2856
 IR Inten    --     17.1363                 9.5682                13.4531

                     49                     50                     51
                      A                      A                      A
 Frequencies --   3117.2583              3146.9521              3149.0647
 Red. masses --      1.1002                 1.0981                 1.1005
 Frc consts  --      6.2987                 6.4074                 6.4299
 IR Inten    --     31.8418                26.0345                26.1804

 - Thermochemistry -
 -------------------
 Temperature   298.150 Kelvin.  Pressure   1.00000 Atm.
 Atom     1 has atomic number  6 and mass  12.00000

 Molecular mass:   126.06808 amu.
 Principal axes and moments of inertia in atomic units:
                           1         2         3
     Eigenvalues --   716.461861071.162521381.41271
           X            0.99968   0.01104   0.02270
           Y           -0.01107   0.99994   0.00122
           Z           -0.02269  -0.00147   0.99974
 This molecule is an asymmetric top.
 Rotational symmetry number  1.
 Warning -- assumption of classical behavior for rotation
           may cause significant error
 Rotational temperatures (Kelvin)      0.12089     0.08086     0.06270
 Rotational constants (GHZ):           2.51896     1.68484     1.30645
 Zero-point vibrational energy     418722.9 (Joules/Mol)
                                  100.07717 (Kcal/Mol)
 Warning -- explicit consideration of  11 degrees of freedom as
           vibrations may cause significant error
 Vibrational temperatures:    212.92   250.29   268.42   292.29   364.69
          (Kelvin)            454.99   488.96   682.10   695.60   789.79
                              892.85   963.54  1044.24  1140.28  1183.18
                             1225.99  1272.99  1350.66  1356.97  1439.15
                             1503.59  1525.95  1534.57  1577.78  1596.16
                             1622.36  1724.81  1751.26  1792.59  1804.11
                             1881.18  1938.32  1999.55  2035.80  2042.64
                             2138.74  2141.16  2149.64  2153.03  2174.09
                             2739.98  4371.93  4374.09  4394.35  4430.31
                             4459.32  4473.80  4476.89  4485.03  4527.76
                             4530.80

 Zero-point correction=                           0.159483 (Hartree/Particle)
 Thermal correction to Energy=                    0.167697
 Thermal correction to Enthalpy=                  0.168642
 Thermal correction to Gibbs Free Energy=         0.127144
 Sum of electronic and zero-point Energies=           -423.054793
 Sum of electronic and thermal Energies=              -423.046579
 Sum of electronic and thermal Enthalpies=            -423.045635
 Sum of electronic and thermal Free Energies=         -423.087132

                     E (Thermal)             CV                S
                      KCal/Mol        Cal/Mol-Kelvin    Cal/Mol-Kelvin
 Total                  105.232             31.957             87.339
 Electronic               0.000              0.000              0.000
 Translational            0.889              2.981             40.409
 Rotational               0.889              2.981             28.452
 Vibrational            103.454             25.996             18.478
 Vibration     1          0.617              1.905              2.698
 Vibration     2          0.627              1.875              2.392
 Vibration     3          0.632              1.858              2.262
 Vibration     4          0.639              1.835              2.104
 Vibration     5          0.665              1.757              1.706
 Vibration     6          0.703              1.643              1.330
 Vibration     7          0.720              1.596              1.213
 Vibration     8          0.831              1.308              0.726
 Vibration     9          0.840              1.287              0.701
 Vibration    10          0.904              1.142              0.546
 Vibration    11          0.981              0.989              0.416

 Normal termination of Gaussian 09 at Mon Jan 27 23:39:37 2020.
