 Gaussian 09, Revision D.01,
 Gaussian 09:  ES64L-G09RevD.01 24-Apr-2013

 -----------------------------
 # b3lyp 6-31G(2df,p) opt Freq
 -----------------------------

 -----
 titel
 -----
 Symbolic Z-matrix:
 Charge =  0 Multiplicity = 1

 SCF Done:  E(RB3LYP) =  -423.164673722     A.U. after   13 cycles
 Optimization completed.
    -- Stationary point found.
 Normal termination of Gaussian 09 at Tue Jan 28 02:56:41 2020.

 ----------------------------------------------------------------------
 #N Geom=AllCheck Guess=TCheck SCRF=Check GenChk RB3LYP/6-31G(2df,p) Fr
 eq
 ----------------------------------------------------------------------

 Structure from the checkpoint file:  "/scratch/puck/g09_34dc5512-2728-472f-b4f3-be6a4c1c41bd/Gau-89744.chk"
 -----
 titel
 -----
 Charge =  0 Multiplicity = 1

                         Standard orientation:
 ---------------------------------------------------------------------
 Center     Atomic      Atomic             Coordinates (Angstroms)
 Number     Number       Type             X           Y           Z
 ---------------------------------------------------------------------
      1          8           0       -2.821758   -0.572625   -0.146292
      2          6           0       -1.509987   -0.123859   -0.371635
      3          6           0       -1.166371    1.376046   -0.168552
      4          6           0        0.149203    0.952590    0.537062
      5          6           0        1.379156    0.839420   -0.340306
      6          8           0        2.464801    0.201554    0.340789
      7          6           0        1.702602   -0.577453   -0.590605
      8          6           0        0.692308   -1.489207    0.094752
      9          6           0       -0.379974   -0.522128    0.632535
     10          1           0       -3.086274   -0.293113    0.736698
     11          1           0       -1.263607   -0.457779   -1.385021
     12          1           0       -1.094892    2.002671   -1.062152
     13          1           0       -1.860788    1.852684    0.531134
     14          1           0        0.386885    1.474528    1.466666
     15          1           0        1.659906    1.642440   -1.019947
     16          1           0        2.251626   -0.910307   -1.468641
     17          1           0        0.261943   -2.210696   -0.608922
     18          1           0        1.187138   -2.058248    0.888474
     19          1           0       -0.787903   -0.806053    1.606224
 ---------------------------------------------------------------------

 SCF Done:  E(RB3LYP) =  -423.164673723     A.U. after    1 cycles

 The electronic state is 1-A.
 Alpha  occ. eigenvalues --  -19.14620 -19.13991 -10.23408 -10.23317 -10.23249
 Alpha  occ. eigenvalues --  -10.19112 -10.18800 -10.18590 -10.18410  -1.06885
 Alpha  occ. eigenvalues --   -1.02306  -0.85087  -0.75153  -0.69244  -0.65290
 Alpha  occ. eigenvalues --   -0.62618  -0.58044  -0.55190  -0.51745  -0.50219
 Alpha  occ. eigenvalues --   -0.46001  -0.43900  -0.42743  -0.41457  -0.40120
 Alpha  occ. eigenvalues --   -0.38867  -0.36921  -0.35360  -0.34832  -0.31445
 Alpha  occ. eigenvalues --   -0.30822  -0.28064  -0.25943  -0.25668
 Alpha virt. eigenvalues --    0.07373   0.08086   0.09339   0.10727   0.11185
 Alpha virt. eigenvalues --    0.12798   0.13823   0.14889   0.16451   0.17469
 Alpha virt. eigenvalues --    0.17583   0.18471   0.19699   0.20035   0.22510

 Mulliken charges:
               1
     1  O   -0.431939
     2  C    0.168769
     3  C   -0.297468
     4  C   -0.055817
     5  C    0.030382
     6  O   -0.258225
     7  C    0.048412
     8  C   -0.268982
     9  C   -0.047442
    10  H    0.276877
    11  H    0.089017
    12  H    0.100967
    13  H    0.095630
    14  H    0.083995
    15  H    0.092012
    16  H    0.093329
    17  H    0.104735
    18  H    0.113586
    19  H    0.062161
 Sum of Mulliken charges =   0.00000

 Dipole moment (field-independent basis, Debye):
    X=             -0.8001    Y=              0.5029    Z=              0.0975  Tot=              0.9501
 Quadrupole moment (field-independent basis, Debye-Ang):
   XX=            -61.2793   YY=            -51.7870   ZZ=            -50.4828
   XY=             -3.3158   XZ=             -7.2499   YZ=             -0.3390

  Exact polarizability:  79.851  -2.618  75.915  -3.735   0.246  65.203
 Approx polarizability: 109.600  -1.461 111.195  -0.952   2.294 103.102

                      1                      2                      3
                      A                      A                      A
 Frequencies --     72.9423               203.2418               235.4329
 Red. masses --      3.6741                 2.8018                 3.7900
 Frc consts  --      0.0115                 0.0682                 0.1238
 IR Inten    --      3.1450                 2.2928                 0.9444

                      4                      5                      6
                      A                      A                      A
 Frequencies --    290.0471               361.3787               372.4443
 Red. masses --      1.2659                 3.1933                 2.6710
 Frc consts  --      0.0627                 0.2457                 0.2183
 IR Inten    --     56.8236                21.6511                17.5697

                      7                      8                      9
                      A                      A                      A
 Frequencies --    408.0587               487.0151               615.1601
 Red. masses --      3.1692                 2.1948                 4.3141
 Frc consts  --      0.3109                 0.3067                 0.9619
 IR Inten    --     14.0262                 1.6556                 3.5020

                     10                     11                     12
                      A                      A                      A
 Frequencies --    717.4209               738.4214               798.4751
 Red. masses --      4.4768                 4.6479                 2.0818
 Frc consts  --      1.3576                 1.4932                 0.7820
 IR Inten    --      3.8252                 3.6459                 3.5420

                     13                     14                     15
                      A                      A                      A
 Frequencies --    829.2133               857.9761               870.7962
 Red. masses --      3.9071                 2.1025                 2.4429
 Frc consts  --      1.5829                 0.9119                 1.0914
 IR Inten    --     11.3071                17.5713                 9.4523

                     16                     17                     18
                      A                      A                      A
 Frequencies --    900.7650               931.6087               943.5842
 Red. masses --      2.4319                 2.0067                 2.3897
 Frc consts  --      1.1626                 1.0261                 1.2536
 IR Inten    --     10.6112                 0.4874                11.3921

                     19                     20                     21
                      A                      A                      A
 Frequencies --    993.1095              1010.7094              1036.6819
 Red. masses --      2.6484                 2.0883                 1.8593
 Frc consts  --      1.5390                 1.2569                 1.1773
 IR Inten    --      1.6455                 4.0390                 6.2104

                     22                     23                     24
                      A                      A                      A
 Frequencies --   1051.5559              1079.0498              1092.9965
 Red. masses --      1.4601                 1.9107                 1.1855
 Frc consts  --      0.9513                 1.3107                 0.8344
 IR Inten    --      2.7006                41.3396                 4.9470

                     25                     26                     27
                      A                      A                      A
 Frequencies --   1138.9579              1150.0385              1167.1261
 Red. masses --      3.0991                 1.7310                 1.4999
 Frc consts  --      2.3687                 1.3489                 1.2038
 IR Inten    --    118.8631                 3.0437                 0.2244

                     28                     29                     30
                      A                      A                      A
 Frequencies --   1194.4956              1241.1297              1248.9513
 Red. masses --      1.3918                 1.3655                 1.4708
 Frc consts  --      1.1700                 1.2393                 1.3517
 IR Inten    --     11.4226                 2.3661                 6.9329

                     31                     32                     33
                      A                      A                      A
 Frequencies --   1253.3814              1261.5673              1284.5473
 Red. masses --      1.4624                 1.4530                 1.3892
 Frc consts  --      1.3536                 1.3625                 1.3505
 IR Inten    --      2.3734                 3.3532                 0.9679

                     34                     35                     36
                      A                      A                      A
 Frequencies --   1302.1227              1325.8295              1350.4603
 Red. masses --      1.2848                 1.7288                 1.5363
 Frc consts  --      1.2835                 1.7905                 1.6508
 IR Inten    --      1.9953                 5.0932                 0.5969

                     37                     38                     39
                      A                      A                      A
 Frequencies --   1361.2284              1423.0739              1439.1394
 Red. masses --      1.6330                 3.0753                 1.2461
 Frc consts  --      1.7827                 3.6693                 1.5206
 IR Inten    --      0.8303                34.0386                51.3624

                     40                     41                     42
                      A                      A                      A
 Frequencies --   1478.5207              1480.5796              3039.8341
 Red. masses --      1.1243                 1.0904                 1.0610
 Frc consts  --      1.4481                 1.4083                 5.7765
 IR Inten    --      3.1656                 2.8744                24.8043

                     43                     44                     45
                      A                      A                      A
 Frequencies --   3044.9716              3054.6696              3071.4333
 Red. masses --      1.0595                 1.0851                 1.0893
 Frc consts  --      5.7880                 5.9657                 6.0546
 IR Inten    --     27.9139                23.1166                27.5800

                     46                     47                     48
                      A                      A                      A
 Frequencies --   3081.9644              3086.8567              3100.1500
 Red. masses --      1.0940                 1.0954                 1.1048
 Frc consts  --      6.1227                 6.1495                 6.2560
 IR Inten    --      7.0946                29.7688                42.2773

                     49                     50                     51
                      A                      A                      A
 Frequencies --   3123.8058              3142.0467              3803.7944
 Red. masses --      1.0876                 1.0941                 1.0658
 Frc consts  --      6.2532                 6.3639                 9.0860
 IR Inten    --     24.1762                38.7721                15.0099

 - Thermochemistry -
 -------------------
 Temperature   298.150 Kelvin.  Pressure   1.00000 Atm.
 Atom     1 has atomic number  8 and mass  15.99491

 Molecular mass:   126.06808 amu.
 Principal axes and moments of inertia in atomic units:
                           1         2         3
     Eigenvalues --   487.238971395.935471660.90925
           X            0.99967  -0.02079  -0.01539
           Y            0.02067   0.99975  -0.00796
           Z            0.01556   0.00764   0.99985
 This molecule is an asymmetric top.
 Rotational symmetry number  1.
 Warning -- assumption of classical behavior for rotation
           may cause significant error
 Rotational temperatures (Kelvin)      0.17776     0.06205     0.05215
 Rotational constants (GHZ):           3.70402     1.29285     1.08660
 Zero-point vibrational energy     421975.3 (Joules/Mol)
                                  100.85452 (Kcal/Mol)
 Warning -- explicit consideration of   9 degrees of freedom as
           vibrations may cause significant error
 Vibrational temperatures:    104.95   292.42   338.73   417.31   519.94
          (Kelvin)            535.86   587.10   700.71   885.08  1032.21
                             1062.42  1148.83  1193.05  1234.43  1252.88
                             1296.00  1340.38  1357.61  1428.86  1454.18
                             1491.55  1512.95  1552.51  1572.58  1638.70
                             1654.65  1679.23  1718.61  1785.71  1796.96
                             1803.33  1815.11  1848.17  1873.46  1907.57
                             1943.01  1958.50  2047.48  2070.60  2127.26
                             2130.22  4373.64  4381.03  4394.98  4419.10
                             4434.25  4441.29  4460.42  4494.45  4520.70
                             5472.80

 Zero-point correction=                           0.160722 (Hartree/Particle)
 Thermal correction to Energy=                    0.168231
 Thermal correction to Enthalpy=                  0.169175
 Thermal correction to Gibbs Free Energy=         0.128659
 Sum of electronic and zero-point Energies=           -423.003952
 Sum of electronic and thermal Energies=              -422.996443
 Sum of electronic and thermal Enthalpies=            -422.995499
 Sum of electronic and thermal Free Energies=         -423.036015

                     E (Thermal)             CV                S
                      KCal/Mol        Cal/Mol-Kelvin    Cal/Mol-Kelvin
 Total                  105.566             30.021             85.273
 Electronic               0.000              0.000              0.000
 Translational            0.889              2.981             40.409
 Rotational               0.889              2.981             28.515
 Vibrational            103.789             24.059             16.350
 Vibration     1          0.599              1.967              4.072
 Vibration     2          0.639              1.835              2.104
 Vibration     3          0.655              1.787              1.837
 Vibration     4          0.686              1.692              1.474
 Vibration     5          0.736              1.552              1.116
 Vibration     6          0.744              1.529              1.070
 Vibration     7          0.773              1.453              0.934
 Vibration     8          0.843              1.279              0.691
 Vibration     9          0.975              1.000              0.424

 Optimization completed.
    -- Stationary point found.
 Normal termination of Gaussian 09 at Tue Jan 28 03:52:20 2020.
