 Gaussian 09, Revision D.01,
 Gaussian 09:  ES64L-G09RevD.01 24-Apr-2013

 -----------------------------
 # b3lyp 6-31G(2df,p) opt Freq
 -----------------------------

 -----
 titel
 -----
 Symbolic Z-matrix:
 Charge =  0 Multiplicity = 1

 SCF Done:  E(RB3LYP) =  -423.164803956     A.U. after   14 cycles
 Optimization completed.
    -- Stationary point found.
 Normal termination of Gaussian 09 at Mon Jan 27 18:44:58 2020.

 ----------------------------------------------------------------------
 #N Geom=AllCheck Guess=TCheck SCRF=Check GenChk RB3LYP/6-31G(2df,p) Fr
 eq
 ----------------------------------------------------------------------

 Structure from the checkpoint file:  "/scratch/puck/g09_3d934471-3315-45af-ac7d-7d157ef24be3/Gau-64273.chk"
 -----
 titel
 -----
 Charge =  0 Multiplicity = 1

                         Standard orientation:
 ---------------------------------------------------------------------
 Center     Atomic      Atomic             Coordinates (Angstroms)
 Number     Number       Type             X           Y           Z
 ---------------------------------------------------------------------
      1          6           0       -0.730958   -1.556136   -0.813723
      2          6           0       -0.484489   -0.299460   -0.006516
      3          6           0       -1.733156    0.411136    0.407076
      4          8           0       -2.843748    0.040021    0.114668
      5          6           0        0.592462   -0.151836    1.091311
      6          6           0        1.856418   -0.924506    0.704718
      7          6           0        1.958682   -0.082280   -0.609271
      8          6           0        0.675297    0.651554   -0.204947
      9          8           0        0.409656    1.976140   -0.500563
     10          1           0       -1.278219   -1.314151   -1.729089
     11          1           0        0.195056   -2.061371   -1.093008
     12          1           0       -1.347810   -2.257775   -0.245221
     13          1           0       -1.574643    1.316463    1.029717
     14          1           0        0.311113    0.146454    2.094615
     15          1           0        2.687721   -0.734923    1.387013
     16          1           0        1.747354   -2.005316    0.583979
     17          1           0        2.822633    0.589102   -0.589704
     18          1           0        1.952337   -0.609591   -1.567131
     19          1           0        1.151658    2.510988   -0.195895
 ---------------------------------------------------------------------

 SCF Done:  E(RB3LYP) =  -423.164803956     A.U. after    1 cycles

 The electronic state is 1-A.
 Alpha  occ. eigenvalues --  -19.16287 -19.12622 -10.25928 -10.25699 -10.20743
 Alpha  occ. eigenvalues --  -10.20445 -10.19993 -10.19813 -10.17635  -1.05017
 Alpha  occ. eigenvalues --   -1.03372  -0.90371  -0.77026  -0.70684  -0.66548
 Alpha  occ. eigenvalues --   -0.62369  -0.57671  -0.54478  -0.51436  -0.49495
 Alpha  occ. eigenvalues --   -0.45784  -0.43263  -0.42231  -0.41973  -0.41415
 Alpha  occ. eigenvalues --   -0.38258  -0.37607  -0.37222  -0.37014  -0.34630
 Alpha  occ. eigenvalues --   -0.32213  -0.27757  -0.25260  -0.24256
 Alpha virt. eigenvalues --   -0.01152   0.06401   0.08680   0.10173   0.11806
 Alpha virt. eigenvalues --    0.13233   0.13708   0.14640   0.15237   0.16385
 Alpha virt. eigenvalues --    0.18585   0.18832   0.20019   0.21336   0.22255

 Mulliken charges:
               1
     1  C   -0.475938
     2  C    0.174024
     3  C    0.136087
     4  O   -0.279728
     5  C   -0.185955
     6  C   -0.243695
     7  C   -0.303223
     8  C    0.351718
     9  O   -0.451185
    10  H    0.136569
    11  H    0.113380
    12  H    0.132425
    13  H    0.076216
    14  H    0.098487
    15  H    0.109682
    16  H    0.111492
    17  H    0.101085
    18  H    0.110921
    19  H    0.287639
 Sum of Mulliken charges =   0.00000

 Dipole moment (field-independent basis, Debye):
    X=              4.2951    Y=              0.3205    Z=              0.9692  Tot=              4.4147
 Quadrupole moment (field-independent basis, Debye-Ang):
   XX=            -60.2125   YY=            -50.5353   ZZ=            -52.2570
   XY=              2.6972   XZ=             -0.0543   YZ=              2.1036

  Exact polarizability:  91.589   1.581  73.620   1.903   2.581  65.920
 Approx polarizability: 133.323   5.290 107.856   5.985   0.967 102.619

                      1                      2                      3
                      A                      A                      A
 Frequencies --    100.6134               129.9561               180.9495
 Red. masses --      5.0788                 1.0907                 3.7345
 Frc consts  --      0.0303                 0.0109                 0.0720
 IR Inten    --      2.0625                 0.0138                 1.3998

                      4                      5                      6
                      A                      A                      A
 Frequencies --    234.3137               258.9561               298.0000
 Red. masses --      2.4788                 1.9832                 2.8000
 Frc consts  --      0.0802                 0.0784                 0.1465
 IR Inten    --      0.0321                 2.5845                 1.2772

                      7                      8                      9
                      A                      A                      A
 Frequencies --    321.2490               326.1746               388.9280
 Red. masses --      2.2573                 1.3597                 3.4146
 Frc consts  --      0.1373                 0.0852                 0.3043
 IR Inten    --     16.7064                81.3264                 8.7543

                     10                     11                     12
                      A                      A                      A
 Frequencies --    427.9120               492.7255               554.1655
 Red. masses --      3.5339                 2.6294                 3.5569
 Frc consts  --      0.3812                 0.3761                 0.6436
 IR Inten    --     10.5584                 5.9087                 9.3422

                     13                     14                     15
                      A                      A                      A
 Frequencies --    658.6129               696.2063               757.5135
 Red. masses --      4.7702                 3.7924                 3.0104
 Frc consts  --      1.2191                 1.0830                 1.0178
 IR Inten    --      3.9250                 2.6110                 6.8027

                     16                     17                     18
                      A                      A                      A
 Frequencies --    803.1247               897.1586               926.8468
 Red. masses --      1.2787                 2.2485                 2.6912
 Frc consts  --      0.4859                 1.0663                 1.3621
 IR Inten    --      5.4873                21.3376                37.3670

                     19                     20                     21
                      A                      A                      A
 Frequencies --    939.5025               965.1947               998.1300
 Red. masses --      1.5763                 3.3759                 1.5154
 Frc consts  --      0.8198                 1.8530                 0.8895
 IR Inten    --      5.7139                15.6157                 2.8571

                     22                     23                     24
                      A                      A                      A
 Frequencies --   1018.9591              1059.0514              1074.2537
 Red. masses --      1.6107                 1.7533                 2.1321
 Frc consts  --      0.9853                 1.1586                 1.4497
 IR Inten    --      3.7408                 2.9572                19.2634

                     25                     26                     27
                      A                      A                      A
 Frequencies --   1106.5005              1116.8889              1202.7787
 Red. masses --      1.6312                 1.6698                 1.3330
 Frc consts  --      1.1767                 1.2273                 1.1362
 IR Inten    --      6.3026                 5.1260                 3.2754

                     28                     29                     30
                      A                      A                      A
 Frequencies --   1207.1180              1224.7784              1238.4500
 Red. masses --      1.4373                 2.1198                 2.1469
 Frc consts  --      1.2339                 1.8735                 1.9401
 IR Inten    --      2.5641                47.6263                 4.3381

                     31                     32                     33
                      A                      A                      A
 Frequencies --   1283.9786              1289.0261              1321.3150
 Red. masses --      1.8229                 1.9442                 2.1598
 Frc consts  --      1.7707                 1.9033                 2.2216
 IR Inten    --     21.5848                 3.3098               159.2739

                     34                     35                     36
                      A                      A                      A
 Frequencies --   1416.2703              1429.1711              1450.5622
 Red. masses --      1.2611                 1.7223                 1.5868
 Frc consts  --      1.4903                 2.0727                 1.9672
 IR Inten    --      3.9381                20.2247                 4.8831

                     37                     38                     39
                      A                      A                      A
 Frequencies --   1472.0330              1493.3209              1496.9961
 Red. masses --      1.0765                 1.0624                 1.1446
 Frc consts  --      1.3744                 1.3958                 1.5112
 IR Inten    --      1.7097                 2.1745                 6.9928

                     40                     41                     42
                      A                      A                      A
 Frequencies --   1508.7910              1814.6494              2910.4247
 Red. masses --      1.1702                10.2149                 1.0836
 Frc consts  --      1.5695                19.8185                 5.4080
 IR Inten    --      7.4198               236.1939                80.1056

                     43                     44                     45
                      A                      A                      A
 Frequencies --   3051.1886              3054.6872              3064.6811
 Red. masses --      1.0564                 1.0383                 1.0592
 Frc consts  --      5.7942                 5.7083                 5.8616
 IR Inten    --     36.5203                14.1584                41.3736

                     46                     47                     48
                      A                      A                      A
 Frequencies --   3096.1235              3115.8236              3116.0129
 Red. masses --      1.1076                 1.1017                 1.1062
 Frc consts  --      6.2557                 6.3015                 6.3284
 IR Inten    --      5.9050                13.7328                32.8276

                     49                     50                     51
                      A                      A                      A
 Frequencies --   3138.0715              3179.2460              3790.1317
 Red. masses --      1.0999                 1.0924                 1.0658
 Frc consts  --      6.3813                 6.5052                 9.0209
 IR Inten    --     16.9545                10.4951                21.5290

 - Thermochemistry -
 -------------------
 Temperature   298.150 Kelvin.  Pressure   1.00000 Atm.
 Atom     1 has atomic number  6 and mass  12.00000

 Molecular mass:   126.06808 amu.
 Principal axes and moments of inertia in atomic units:
                           1         2         3
     Eigenvalues --   675.230481277.467091566.98386
           X            0.99999  -0.00067   0.00450
           Y            0.00041   0.99836   0.05728
           Z           -0.00453  -0.05728   0.99835
 This molecule is an asymmetric top.
 Rotational symmetry number  1.
 Warning -- assumption of classical behavior for rotation
           may cause significant error
 Rotational temperatures (Kelvin)      0.12827     0.06780     0.05527
 Rotational constants (GHZ):           2.67278     1.41275     1.15173
 Zero-point vibrational energy     413294.9 (Joules/Mol)
                                   98.77986 (Kcal/Mol)
 Warning -- explicit consideration of  12 degrees of freedom as
           vibrations may cause significant error
 Vibrational temperatures:    144.76   186.98   260.35   337.12   372.58
          (Kelvin)            428.75   462.21   469.29   559.58   615.67
                              708.92   797.32   947.60  1001.68  1089.89
                             1155.52  1290.81  1333.52  1351.73  1388.70
                             1436.08  1466.05  1523.74  1545.61  1592.01
                             1606.95  1730.53  1736.77  1762.18  1781.85
                             1847.36  1854.62  1901.08  2037.69  2056.26
                             2087.03  2117.92  2148.55  2153.84  2170.81
                             2610.87  4187.45  4389.97  4395.01  4409.39
                             4454.63  4482.97  4483.24  4514.98  4574.22
                             5453.15

 Zero-point correction=                           0.157416 (Hartree/Particle)
 Thermal correction to Energy=                    0.166379
 Thermal correction to Enthalpy=                  0.167323
 Thermal correction to Gibbs Free Energy=         0.124178
 Sum of electronic and zero-point Energies=           -423.007388
 Sum of electronic and thermal Energies=              -422.998425
 Sum of electronic and thermal Enthalpies=            -422.997481
 Sum of electronic and thermal Free Energies=         -423.040626

                     E (Thermal)             CV                S
                      KCal/Mol        Cal/Mol-Kelvin    Cal/Mol-Kelvin
 Total                  104.404             34.153             90.807
 Electronic               0.000              0.000              0.000
 Translational            0.889              2.981             40.409
 Rotational               0.889              2.981             28.693
 Vibrational            102.627             28.192             21.706
 Vibration     1          0.604              1.949              3.442
 Vibration     2          0.612              1.923              2.947
 Vibration     3          0.630              1.866              2.319
 Vibration     4          0.654              1.788              1.846
 Vibration     5          0.668              1.748              1.669
 Vibration     6          0.691              1.677              1.428
 Vibration     7          0.707              1.633              1.304
 Vibration     8          0.710              1.623              1.279
 Vibration     9          0.757              1.494              1.004
 Vibration    10          0.789              1.409              0.866
 Vibration    11          0.848              1.266              0.677
 Vibration    12          0.910              1.131              0.536

 Optimization completed.
    -- Stationary point found.
 Normal termination of Gaussian 09 at Mon Jan 27 19:27:41 2020.
