 Gaussian 09, Revision D.01,
 Gaussian 09:  ES64L-G09RevD.01 24-Apr-2013

 -----------------------------
 # b3lyp 6-31G(2df,p) opt Freq
 -----------------------------

 -----
 titel
 -----
 Symbolic Z-matrix:
 Charge =  0 Multiplicity = 1

 SCF Done:  E(RB3LYP) =  -423.155714332     A.U. after   14 cycles
 Optimization completed.
    -- Stationary point found.
 Normal termination of Gaussian 09 at Tue Jan 28 08:12:06 2020.

 ----------------------------------------------------------------------
 #N Geom=AllCheck Guess=TCheck SCRF=Check GenChk RB3LYP/6-31G(2df,p) Fr
 eq
 ----------------------------------------------------------------------

 Structure from the checkpoint file:  "/scratch/puck/g09_56de714e-d7c9-42f4-98db-df200c13c72a/Gau-102144.chk"
 -----
 titel
 -----
 Charge =  0 Multiplicity = 1

                         Standard orientation:
 ---------------------------------------------------------------------
 Center     Atomic      Atomic             Coordinates (Angstroms)
 Number     Number       Type             X           Y           Z
 ---------------------------------------------------------------------
      1          6           0        3.666618    0.843815    0.549159
      2          6           0        3.154919   -0.469222   -0.070400
      3          6           0        1.714524   -0.475957   -0.301617
      4          6           0        0.523149   -0.468331   -0.481516
      5          6           0       -0.917174   -0.456999   -0.709613
      6          6           0       -1.527545    0.980706   -0.713802
      7          8           0       -2.712098    0.846421    0.050651
      8          6           0       -2.395130   -0.134876    1.004340
      9          8           0       -1.650347   -1.125216    0.330737
     10          1           0        3.448948    1.693048   -0.104243
     11          1           0        3.188701    1.029852    1.514755
     12          1           0        4.748611    0.796051    0.703336
     13          1           0        3.673736   -0.656000   -1.019424
     14          1           0        3.415587   -1.311106    0.583776
     15          1           0       -1.148793   -0.979945   -1.644817
     16          1           0       -0.828885    1.689441   -0.248911
     17          1           0       -1.791650    1.330501   -1.713209
     18          1           0       -1.804053    0.300367    1.830933
     19          1           0       -3.318814   -0.576660    1.387395
 ---------------------------------------------------------------------

 SCF Done:  E(RB3LYP) =  -423.155714332     A.U. after    1 cycles

 The electronic state is 1-A.
 Alpha  occ. eigenvalues --  -19.15177 -19.14584 -10.27382 -10.25753 -10.23870
 Alpha  occ. eigenvalues --  -10.21089 -10.18568 -10.17957 -10.17113  -1.09112
 Alpha  occ. eigenvalues --   -0.99636  -0.80328  -0.78280  -0.71878  -0.65489
 Alpha  occ. eigenvalues --   -0.63716  -0.62505  -0.52605  -0.51606  -0.48690
 Alpha  occ. eigenvalues --   -0.46701  -0.46432  -0.45863  -0.41796  -0.40481
 Alpha  occ. eigenvalues --   -0.39923  -0.37456  -0.36563  -0.35601  -0.33961
 Alpha  occ. eigenvalues --   -0.28022  -0.26809  -0.25855  -0.24858
 Alpha virt. eigenvalues --    0.03433   0.04834   0.09736   0.11319   0.12390
 Alpha virt. eigenvalues --    0.13502   0.14361   0.14677   0.15232   0.15907
 Alpha virt. eigenvalues --    0.16943   0.17444   0.18217   0.20796   0.21560

 Mulliken charges:
               1
     1  C   -0.365470
     2  C   -0.314965
     3  C    0.048624
     4  C    0.099949
     5  C   -0.086932
     6  C   -0.121404
     7  O   -0.229260
     8  C    0.021407
     9  O   -0.244886
    10  H    0.127420
    11  H    0.129413
    12  H    0.116479
    13  H    0.131744
    14  H    0.135176
    15  H    0.112199
    16  H    0.107488
    17  H    0.124367
    18  H    0.086524
    19  H    0.122126
 Sum of Mulliken charges =   0.00000

 Dipole moment (field-independent basis, Debye):
    X=              1.7531    Y=              0.7563    Z=             -0.1955  Tot=              1.9193
 Quadrupole moment (field-independent basis, Debye-Ang):
   XX=            -50.0346   YY=            -55.8134   ZZ=            -50.0211
   XY=              0.3960   XZ=             -0.2380   YZ=             -0.1769

  Exact polarizability: 112.172   0.842  63.315   0.519  -0.457  67.030
 Approx polarizability: 152.772   0.001  91.744   3.354  -1.743  96.174

                      1                      2                      3
                      A                      A                      A
 Frequencies --     24.3638                41.1019                83.5554
 Red. masses --      2.3335                 3.5046                 3.2258
 Frc consts  --      0.0008                 0.0035                 0.0133
 IR Inten    --      0.2378                 0.4167                 0.7274

                      4                      5                      6
                      A                      A                      A
 Frequencies --    119.1865               205.5875               237.0667
 Red. masses --      3.3545                 2.0303                 1.8375
 Frc consts  --      0.0281                 0.0506                 0.0608
 IR Inten    --      2.4636                 0.2615                 0.4135

                      7                      8                      9
                      A                      A                      A
 Frequencies --    285.6084               346.7177               388.5467
 Red. masses --      2.0974                 2.9008                 5.0572
 Frc consts  --      0.1008                 0.2055                 0.4498
 IR Inten    --      8.9711                 5.1500                 2.5355

                     10                     11                     12
                      A                      A                      A
 Frequencies --    513.6861               550.8639               667.3790
 Red. masses --      5.9241                 5.2242                 3.2072
 Frc consts  --      0.9210                 0.9340                 0.8416
 IR Inten    --      3.1416                 0.4609                 7.5032

                     13                     14                     15
                      A                      A                      A
 Frequencies --    738.5954               769.7714               783.9871
 Red. masses --      7.9836                 3.8805                 1.1834
 Frc consts  --      2.5660                 1.3548                 0.4285
 IR Inten    --      0.2773                16.9251                 1.7654

                     16                     17                     18
                      A                      A                      A
 Frequencies --    891.1990               962.5377               975.0623
 Red. masses --      2.6603                 3.1063                 3.7142
 Frc consts  --      1.2449                 1.6956                 2.0806
 IR Inten    --     10.8733                72.7209                28.7611

                     19                     20                     21
                      A                      A                      A
 Frequencies --    986.8649              1041.5469              1080.8755
 Red. masses --      2.9775                 5.6605                 1.9072
 Frc consts  --      1.7085                 3.6179                 1.3128
 IR Inten    --     42.7911                25.3532                 0.5448

                     22                     23                     24
                      A                      A                      A
 Frequencies --   1090.9487              1103.6664              1107.3872
 Red. masses --      2.3394                 1.5086                 3.9987
 Frc consts  --      1.6405                 1.0827                 2.8891
 IR Inten    --     40.5586                 4.5674               114.3495

                     25                     26                     27
                      A                      A                      A
 Frequencies --   1171.9561              1182.8256              1216.3436
 Red. masses --      2.6219                 1.7741                 1.1209
 Frc consts  --      2.1217                 1.4624                 0.9770
 IR Inten    --     34.0213                55.3118                 1.0745

                     28                     29                     30
                      A                      A                      A
 Frequencies --   1265.3036              1286.2696              1305.5042
 Red. masses --      1.2600                 1.1490                 1.3348
 Frc consts  --      1.1885                 1.1201                 1.3403
 IR Inten    --      5.0163                 0.0302                12.6159

                     31                     32                     33
                      A                      A                      A
 Frequencies --   1347.0699              1351.3557              1371.3979
 Red. masses --      1.2302                 1.4641                 1.3241
 Frc consts  --      1.3152                 1.5753                 1.4673
 IR Inten    --     21.6419                17.7857                22.3249

                     34                     35                     36
                      A                      A                      A
 Frequencies --   1409.8915              1426.8083              1472.1014
 Red. masses --      1.2126                 1.2675                 1.0730
 Frc consts  --      1.4201                 1.5203                 1.3700
 IR Inten    --      1.1255                 7.5167                 2.5382

                     37                     38                     39
                      A                      A                      A
 Frequencies --   1495.1562              1504.9950              1511.3922
 Red. masses --      1.0397                 1.0561                 1.0864
 Frc consts  --      1.3694                 1.4094                 1.4622
 IR Inten    --      4.9455                 1.2688                 2.3510

                     40                     41                     42
                      A                      A                      A
 Frequencies --   1541.5599              2362.2798              2935.9830
 Red. masses --      1.1074                11.8959                 1.0702
 Frc consts  --      1.5505                39.1120                 5.4353
 IR Inten    --      4.6072                14.1868                91.1770

                     43                     44                     45
                      A                      A                      A
 Frequencies --   3014.5890              3021.8865              3035.0816
 Red. masses --      1.0688                 1.0590                 1.0828
 Frc consts  --      5.7225                 5.6976                 5.8768
 IR Inten    --     31.5166                22.7762                29.4794

                     46                     47                     48
                      A                      A                      A
 Frequencies --   3045.0357              3049.4654              3095.8553
 Red. masses --      1.0343                 1.1008                 1.0943
 Frc consts  --      5.6507                 6.0312                 6.1795
 IR Inten    --     27.1479                 7.5853                43.9569

                     49                     50                     51
                      A                      A                      A
 Frequencies --   3117.9882              3118.6647              3123.9159
 Red. masses --      1.0988                 1.1020                 1.1029
 Frc consts  --      6.2936                 6.3150                 6.3414
 IR Inten    --     32.4649                22.9988                24.6665

 - Thermochemistry -
 -------------------
 Temperature   298.150 Kelvin.  Pressure   1.00000 Atm.
 Atom     1 has atomic number  6 and mass  12.00000

 Molecular mass:   126.06808 amu.
 Principal axes and moments of inertia in atomic units:
                           1         2         3
     Eigenvalues --   443.009122591.248992685.44224
           X            0.99995   0.00808   0.00556
           Y           -0.00820   0.99974   0.02134
           Z           -0.00538  -0.02139   0.99976
 This molecule is an asymmetric top.
 Rotational symmetry number  1.
 Warning -- assumption of classical behavior for rotation
           may cause significant error
 Rotational temperatures (Kelvin)      0.19551     0.03343     0.03225
 Rotational constants (GHZ):           4.07382     0.69648     0.67205
 Zero-point vibrational energy     417357.8 (Joules/Mol)
                                   99.75092 (Kcal/Mol)
 Warning -- explicit consideration of  11 degrees of freedom as
           vibrations may cause significant error
 Vibrational temperatures:     35.05    59.14   120.22   171.48   295.79
          (Kelvin)            341.09   410.93   498.85   559.03   739.08
                              792.57   960.21  1062.67  1107.53  1127.98
                             1282.23  1384.88  1402.90  1419.88  1498.55
                             1555.14  1569.63  1587.93  1593.28  1686.18
                             1701.82  1750.04  1820.49  1850.65  1878.33
                             1938.13  1944.30  1973.13  2028.52  2052.86
                             2118.02  2151.19  2165.35  2174.55  2217.96
                             3398.79  4224.22  4337.32  4347.82  4366.80
                             4381.12  4387.50  4454.24  4486.08  4487.06
                             4494.61

 Zero-point correction=                           0.158963 (Hartree/Particle)
 Thermal correction to Energy=                    0.168447
 Thermal correction to Enthalpy=                  0.169391
 Thermal correction to Gibbs Free Energy=         0.122223
 Sum of electronic and zero-point Energies=           -422.996751
 Sum of electronic and thermal Energies=              -422.987267
 Sum of electronic and thermal Enthalpies=            -422.986323
 Sum of electronic and thermal Free Energies=         -423.033491

                     E (Thermal)             CV                S
                      KCal/Mol        Cal/Mol-Kelvin    Cal/Mol-Kelvin
 Total                  105.702             32.841             99.275
 Electronic               0.000              0.000              0.000
 Translational            0.889              2.981             40.409
 Rotational               0.889              2.981             29.512
 Vibrational            103.925             26.879             29.354
 Vibration     1          0.593              1.985              6.242
 Vibration     2          0.594              1.981              5.205
 Vibration     3          0.600              1.961              3.806
 Vibration     4          0.609              1.933              3.114
 Vibration     5          0.640              1.832              2.083
 Vibration     6          0.656              1.784              1.825
 Vibration     7          0.683              1.700              1.500
 Vibration     8          0.725              1.582              1.181
 Vibration     9          0.757              1.495              1.006
 Vibration    10          0.869              1.220              0.625
 Vibration    11          0.906              1.138              0.542

 Optimization completed.
    -- Stationary point found.
 Normal termination of Gaussian 09 at Tue Jan 28 08:47:10 2020.
