 Gaussian 09, Revision D.01,
 Gaussian 09:  ES64L-G09RevD.01 24-Apr-2013

 -----------------------------
 # b3lyp 6-31G(2df,p) opt Freq
 -----------------------------

 -----
 titel
 -----
 Symbolic Z-matrix:
 Charge =  0 Multiplicity = 1

 SCF Done:  E(RB3LYP) =  -423.161352532     A.U. after   13 cycles
 Optimization completed.
    -- Stationary point found.
 Normal termination of Gaussian 09 at Mon Jan 27 12:20:19 2020.

 ----------------------------------------------------------------------
 #N Geom=AllCheck Guess=TCheck SCRF=Check GenChk RB3LYP/6-31G(2df,p) Fr
 eq
 ----------------------------------------------------------------------

 Structure from the checkpoint file:  "/scratch/puck/g09_9ebc9e85-59e7-4ea7-99c6-43645f5f6aed/Gau-73000.chk"
 -----
 titel
 -----
 Charge =  0 Multiplicity = 1

                         Standard orientation:
 ---------------------------------------------------------------------
 Center     Atomic      Atomic             Coordinates (Angstroms)
 Number     Number       Type             X           Y           Z
 ---------------------------------------------------------------------
      1          6           0        1.850410   -0.818142   -0.262530
      2          8           0        1.918837    0.620374   -0.322252
      3          6           0        0.828386    0.776538    0.612822
      4          6           0       -0.355759    1.574164    0.025199
      5          6           0       -1.466776    0.620978   -0.413727
      6          6           0       -1.850830   -0.372319    0.705607
      7          6           0       -0.698039   -1.187232    0.085433
      8          8           0       -0.876543   -0.476651   -1.172451
      9          6           0        0.635798   -0.770218    0.685751
     10          1           0        1.657474   -1.256135   -1.248209
     11          1           0        2.762524   -1.254482    0.162620
     12          1           0        1.188162    1.235660    1.541556
     13          1           0       -0.752307    2.291524    0.753752
     14          1           0        0.018322    2.141078   -0.833079
     15          1           0       -2.266745    1.118076   -0.968323
     16          1           0       -1.758430   -0.048637    1.745585
     17          1           0       -2.824729   -0.832766    0.534745
     18          1           0       -0.806576   -2.269427   -0.034196
     19          1           0        0.784815   -1.217288    1.671836
 ---------------------------------------------------------------------

 SCF Done:  E(RB3LYP) =  -423.161352532     A.U. after    1 cycles

 The electronic state is 1-A.
 Alpha  occ. eigenvalues --  -19.13167 -19.12481 -10.23813 -10.23744 -10.23323
 Alpha  occ. eigenvalues --  -10.22272 -10.19149 -10.19023 -10.18161  -1.04631
 Alpha  occ. eigenvalues --   -1.02555  -0.78552  -0.76242  -0.72287  -0.67498
 Alpha  occ. eigenvalues --   -0.61616  -0.57607  -0.52618  -0.50906  -0.49066
 Alpha  occ. eigenvalues --   -0.46828  -0.45965  -0.43070  -0.42834  -0.39329
 Alpha  occ. eigenvalues --   -0.38495  -0.37181  -0.36903  -0.34517  -0.30950
 Alpha  occ. eigenvalues --   -0.29839  -0.29261  -0.25463  -0.23331
 Alpha virt. eigenvalues --    0.07560   0.08748   0.10094   0.11101   0.11595
 Alpha virt. eigenvalues --    0.13438   0.14658   0.14846   0.15950   0.16366
 Alpha virt. eigenvalues --    0.17097   0.19225   0.19794   0.19867   0.21858

 Mulliken charges:
               1
     1  C   -0.085720
     2  O   -0.289308
     3  C    0.138818
     4  C   -0.243537
     5  C    0.097024
     6  C   -0.254143
     7  C    0.073075
     8  O   -0.292003
     9  C   -0.082811
    10  H    0.112287
    11  H    0.093848
    12  H    0.073006
    13  H    0.094304
    14  H    0.124675
    15  H    0.078190
    16  H    0.097540
    17  H    0.112091
    18  H    0.076445
    19  H    0.076219
 Sum of Mulliken charges =   0.00000

 Dipole moment (field-independent basis, Debye):
    X=             -1.4193    Y=             -0.6023    Z=              2.2485  Tot=              2.7263
 Quadrupole moment (field-independent basis, Debye-Ang):
   XX=            -54.2256   YY=            -50.5376   ZZ=            -54.5621
   XY=             -3.6470   XZ=              0.3274   YZ=             -0.4569

  Exact polarizability:  78.907  -4.338  75.339  -0.302   0.424  65.290
 Approx polarizability: 105.014  -4.635 109.488  -1.559   1.148 104.388

                      1                      2                      3
                      A                      A                      A
 Frequencies --    105.8864               205.3831               319.0078
 Red. masses --      3.7012                 2.7483                 2.6575
 Frc consts  --      0.0244                 0.0683                 0.1593
 IR Inten    --      2.2051                 1.3030                 2.4143

                      4                      5                      6
                      A                      A                      A
 Frequencies --    361.7231               411.3579               462.7714
 Red. masses --      3.1803                 2.0192                 5.0604
 Frc consts  --      0.2452                 0.2013                 0.6385
 IR Inten    --      1.0851                 2.7481                 6.7704

                      7                      8                      9
                      A                      A                      A
 Frequencies --    545.1023               646.9427               760.2587
 Red. masses --      4.2163                 3.4016                 2.4285
 Frc consts  --      0.7381                 0.8388                 0.8270
 IR Inten    --      4.6848                 3.8943                 0.7291

                     10                     11                     12
                      A                      A                      A
 Frequencies --    779.2013               851.0867               859.7197
 Red. masses --      2.9530                 2.3493                 2.5741
 Frc consts  --      1.0564                 1.0026                 1.1209
 IR Inten    --      0.6694                 8.6406                12.7110

                     13                     14                     15
                      A                      A                      A
 Frequencies --    871.3978               900.9366               934.0033
 Red. masses --      2.5168                 2.8705                 3.5627
 Frc consts  --      1.1260                 1.3728                 1.8312
 IR Inten    --      3.8211                 8.3657                27.2666

                     16                     17                     18
                      A                      A                      A
 Frequencies --    942.3799               966.6589               993.0692
 Red. masses --      2.5144                 2.9926                 2.0359
 Frc consts  --      1.3156                 1.6476                 1.1830
 IR Inten    --     12.9140                11.2004                10.3985

                     19                     20                     21
                      A                      A                      A
 Frequencies --   1011.4088              1027.9001              1055.1382
 Red. masses --      1.9476                 4.2283                 2.4314
 Frc consts  --      1.1738                 2.6322                 1.5949
 IR Inten    --     18.0546                59.3104                31.8984

                     22                     23                     24
                      A                      A                      A
 Frequencies --   1083.9807              1090.5526              1110.3079
 Red. masses --      1.7204                 2.0610                 2.5984
 Frc consts  --      1.1910                 1.4441                 1.8873
 IR Inten    --     15.3598                 6.1382                 1.8204

                     25                     26                     27
                      A                      A                      A
 Frequencies --   1126.0547              1169.9580              1189.3088
 Red. masses --      1.3233                 1.1081                 1.2134
 Frc consts  --      0.9886                 0.8937                 1.0112
 IR Inten    --      5.8262                 0.4503                 3.1393

                     28                     29                     30
                      A                      A                      A
 Frequencies --   1223.3954              1238.3848              1252.2459
 Red. masses --      1.7735                 1.4356                 1.4701
 Frc consts  --      1.5639                 1.2972                 1.3583
 IR Inten    --      0.2764                 7.1796                 7.8677

                     31                     32                     33
                      A                      A                      A
 Frequencies --   1273.4506              1313.4377              1315.8795
 Red. masses --      1.4292                 1.3932                 1.4850
 Frc consts  --      1.3656                 1.4160                 1.5150
 IR Inten    --      2.0993                 2.9652                 4.9691

                     34                     35                     36
                      A                      A                      A
 Frequencies --   1338.7899              1358.3753              1364.3578
 Red. masses --      1.4970                 1.6980                 1.4897
 Frc consts  --      1.5808                 1.8459                 1.6339
 IR Inten    --     10.8778                 0.9718                 8.0076

                     37                     38                     39
                      A                      A                      A
 Frequencies --   1379.7310              1383.9023              1463.0709
 Red. masses --      1.4687                 1.4361                 1.0893
 Frc consts  --      1.6473                 1.6205                 1.3739
 IR Inten    --     10.6155                 2.2121                 3.5361

                     40                     41                     42
                      A                      A                      A
 Frequencies --   1489.8922              1515.6546              3013.9067
 Red. masses --      1.1304                 1.1036                 1.0746
 Frc consts  --      1.4784                 1.4936                 5.7509
 IR Inten    --      3.1589                 0.5090                51.8107

                     43                     44                     45
                      A                      A                      A
 Frequencies --   3020.0517              3038.4764              3059.5769
 Red. masses --      1.0654                 1.0661                 1.0841
 Frc consts  --      5.7251                 5.7992                 5.9792
 IR Inten    --     63.0315                38.4363                29.0897

                     46                     47                     48
                      A                      A                      A
 Frequencies --   3065.2826              3068.6524              3077.3277
 Red. masses --      1.0771                 1.0925                 1.0891
 Frc consts  --      5.9625                 6.0612                 6.0765
 IR Inten    --     20.9544                32.9614                79.4543

                     49                     50                     51
                      A                      A                      A
 Frequencies --   3083.4518              3091.5698              3133.8479
 Red. masses --      1.0893                 1.1001                 1.1070
 Frc consts  --      6.1020                 6.1951                 6.4054
 IR Inten    --     35.9620                16.1449                24.9291

 - Thermochemistry -
 -------------------
 Temperature   298.150 Kelvin.  Pressure   1.00000 Atm.
 Atom     1 has atomic number  6 and mass  12.00000

 Molecular mass:   126.06808 amu.
 Principal axes and moments of inertia in atomic units:
                           1         2         3
     Eigenvalues --   582.892141017.497101207.32265
           X            0.99914  -0.04067  -0.00816
           Y            0.04062   0.99916  -0.00591
           Z            0.00839   0.00558   0.99995
 This molecule is an asymmetric top.
 Rotational symmetry number  1.
 Warning -- assumption of classical behavior for rotation
           may cause significant error
 Rotational temperatures (Kelvin)      0.14859     0.08512     0.07174
 Rotational constants (GHZ):           3.09618     1.77371     1.49483
 Zero-point vibrational energy     426733.1 (Joules/Mol)
                                  101.99166 (Kcal/Mol)
 Warning -- explicit consideration of   7 degrees of freedom as
           vibrations may cause significant error
 Vibrational temperatures:    152.35   295.50   458.98   520.44   591.85
          (Kelvin)            665.82   784.28   930.81  1093.84  1121.10
                             1224.52  1236.94  1253.75  1296.25  1343.82
                             1355.87  1390.80  1428.80  1455.19  1478.92
                             1518.11  1559.60  1569.06  1597.48  1620.14
                             1683.31  1711.15  1760.19  1781.76  1801.70
                             1832.21  1889.74  1893.25  1926.22  1954.40
                             1963.00  1985.12  1991.12  2105.03  2143.62
                             2180.69  4336.33  4345.18  4371.68  4402.04
                             4410.25  4415.10  4427.58  4436.39  4448.07
                             4508.90

 Zero-point correction=                           0.162534 (Hartree/Particle)
 Thermal correction to Energy=                    0.169227
 Thermal correction to Enthalpy=                  0.170171
 Thermal correction to Gibbs Free Energy=         0.131500
 Sum of electronic and zero-point Energies=           -422.998818
 Sum of electronic and thermal Energies=              -422.992126
 Sum of electronic and thermal Enthalpies=            -422.991182
 Sum of electronic and thermal Free Energies=         -423.029853

                     E (Thermal)             CV                S
                      KCal/Mol        Cal/Mol-Kelvin    Cal/Mol-Kelvin
 Total                  106.191             27.462             81.391
 Electronic               0.000              0.000              0.000
 Translational            0.889              2.981             40.409
 Rotational               0.889              2.981             28.062
 Vibrational            104.414             21.501             12.920
 Vibration     1          0.605              1.945              3.343
 Vibration     2          0.640              1.832              2.084
 Vibration     3          0.705              1.637              1.315
 Vibration     4          0.736              1.551              1.115
 Vibration     5          0.775              1.446              0.922
 Vibration     6          0.820              1.333              0.758
 Vibration     7          0.900              1.150              0.554

 Optimization completed.
    -- Stationary point found.
 Normal termination of Gaussian 09 at Mon Jan 27 13:11:29 2020.
