 Gaussian 09, Revision D.01,
 Gaussian 09:  ES64L-G09RevD.01 24-Apr-2013

 -----------------------------
 # b3lyp 6-31G(2df,p) opt Freq
 -----------------------------

 -----
 titel
 -----
 Symbolic Z-matrix:
 Charge =  0 Multiplicity = 1

 SCF Done:  E(RB3LYP) =  -423.210537139     A.U. after   14 cycles
 Optimization completed.
    -- Stationary point found.
 Normal termination of Gaussian 09 at Tue Jan 28 09:46:16 2020.

 ----------------------------------------------------------------------
 #N Geom=AllCheck Guess=TCheck SCRF=Check GenChk RB3LYP/6-31G(2df,p) Fr
 eq
 ----------------------------------------------------------------------

 Structure from the checkpoint file:  "/scratch/puck/g09_1b9eab48-c9ea-4a67-94ab-1885029e78a0/Gau-106563.chk"
 -----
 titel
 -----
 Charge =  0 Multiplicity = 1

                         Standard orientation:
 ---------------------------------------------------------------------
 Center     Atomic      Atomic             Coordinates (Angstroms)
 Number     Number       Type             X           Y           Z
 ---------------------------------------------------------------------
      1          6           0       -2.927913   -0.757219    0.246788
      2          6           0       -2.022661    0.115734   -0.632389
      3          6           0       -0.599398    0.170333   -0.137205
      4          6           0        0.289080   -1.059450   -0.138324
      5          6           0        1.726324   -0.517090   -0.040872
      6          8           0        2.707446   -1.182485    0.151564
      7          6           0        1.711811    1.008014   -0.253008
      8          6           0        0.251149    1.377702   -0.193051
      9          8           0       -0.369313    0.975698    1.036802
     10          1           0       -3.959228   -0.736101   -0.116483
     11          1           0       -2.598683   -1.801308    0.252144
     12          1           0       -2.922575   -0.396070    1.279414
     13          1           0       -2.024949   -0.259630   -1.663739
     14          1           0       -2.414834    1.138206   -0.664070
     15          1           0        0.090451   -1.740403    0.693683
     16          1           0        0.187819   -1.635849   -1.066782
     17          1           0        2.319573    1.502528    0.509948
     18          1           0        2.154314    1.240088   -1.229990
     19          1           0       -0.107301    2.314688   -0.612693
 ---------------------------------------------------------------------

 SCF Done:  E(RB3LYP) =  -423.210537139     A.U. after    1 cycles

 The electronic state is 1-A.
 Alpha  occ. eigenvalues --  -19.15452 -19.13402 -10.27538 -10.24733 -10.24288
 Alpha  occ. eigenvalues --  -10.19804 -10.19696 -10.19623 -10.18245  -1.07805
 Alpha  occ. eigenvalues --   -1.04525  -0.80708  -0.78473  -0.73328  -0.66589
 Alpha  occ. eigenvalues --   -0.61735  -0.56880  -0.54800  -0.50033  -0.47050
 Alpha  occ. eigenvalues --   -0.46257  -0.45412  -0.43426  -0.42140  -0.41235
 Alpha  occ. eigenvalues --   -0.40570  -0.38479  -0.37162  -0.35805  -0.35486
 Alpha  occ. eigenvalues --   -0.34735  -0.29262  -0.27289  -0.24612
 Alpha virt. eigenvalues --   -0.01921   0.08078   0.09281   0.11198   0.11730
 Alpha virt. eigenvalues --    0.12402   0.13178   0.15502   0.15863   0.16307
 Alpha virt. eigenvalues --    0.17405   0.17817   0.18387   0.19951   0.21272

 Mulliken charges:
               1
     1  C   -0.383145
     2  C   -0.277759
     3  C    0.418515
     4  C   -0.396149
     5  C    0.395411
     6  O   -0.298115
     7  C   -0.355314
     8  C   -0.027990
     9  O   -0.304423
    10  H    0.117230
    11  H    0.120374
    12  H    0.136808
    13  H    0.100812
    14  H    0.108181
    15  H    0.143580
    16  H    0.128860
    17  H    0.145043
    18  H    0.131087
    19  H    0.096995
 Sum of Mulliken charges =   0.00000

 Dipole moment (field-independent basis, Debye):
    X=             -2.1009    Y=              1.0145    Z=             -2.1120  Tot=              3.1470
 Quadrupole moment (field-independent basis, Debye-Ang):
   XX=            -59.0799   YY=            -52.7499   ZZ=            -53.5283
   XY=              6.2486   XZ=             -0.2372   YZ=             -1.5092

  Exact polarizability:  89.392   3.171  76.111   0.711  -1.921  60.051
 Approx polarizability: 116.153  -0.076 113.149   1.043  -0.943  98.887

                      1                      2                      3
                      A                      A                      A
 Frequencies --     71.8925                78.2259               151.4835
 Red. masses --      3.7920                 2.4909                 3.0069
 Frc consts  --      0.0115                 0.0090                 0.0407
 IR Inten    --      5.6779                 0.3707                 1.5542

                      4                      5                      6
                      A                      A                      A
 Frequencies --    218.2624               276.1628               329.7247
 Red. masses --      1.1835                 2.1645                 2.0261
 Frc consts  --      0.0332                 0.0973                 0.1298
 IR Inten    --      0.5681                 0.7977                 1.0229

                      7                      8                      9
                      A                      A                      A
 Frequencies --    391.4951               429.0618               478.0638
 Red. masses --      3.0926                 3.2902                 4.0344
 Frc consts  --      0.2793                 0.3569                 0.5433
 IR Inten    --      6.2945                 1.7111                 8.5085

                     10                     11                     12
                      A                      A                      A
 Frequencies --    481.6818               595.3910               660.5780
 Red. masses --      2.7656                 3.4085                 4.8966
 Frc consts  --      0.3781                 0.7119                 1.2589
 IR Inten    --      5.3153                 2.8262                 7.8328

                     13                     14                     15
                      A                      A                      A
 Frequencies --    713.6772               778.8403               785.3755
 Red. masses --      3.7932                 1.7544                 1.9631
 Frc consts  --      1.1383                 0.6270                 0.7134
 IR Inten    --      4.0575                 6.5316                 2.6233

                     16                     17                     18
                      A                      A                      A
 Frequencies --    815.9864               863.5988               907.6651
 Red. masses --      1.8189                 2.7583                 3.3559
 Frc consts  --      0.7135                 1.2120                 1.6290
 IR Inten    --      1.9788                12.7700                12.4214

                     19                     20                     21
                      A                      A                      A
 Frequencies --    961.3707               992.2807              1013.6066
 Red. masses --      2.0740                 1.8013                 2.0500
 Frc consts  --      1.1294                 1.0450                 1.2409
 IR Inten    --      4.7327                 9.5905                11.9924

                     22                     23                     24
                      A                      A                      A
 Frequencies --   1054.4118              1078.4734              1103.6855
 Red. masses --      1.3401                 2.1156                 2.1195
 Frc consts  --      0.8778                 1.4498                 1.5212
 IR Inten    --      4.3169                 4.4998                 6.2475

                     25                     26                     27
                      A                      A                      A
 Frequencies --   1145.0447              1150.0276              1210.6554
 Red. masses --      1.8987                 2.0510                 1.5965
 Frc consts  --      1.4667                 1.5982                 1.3787
 IR Inten    --     37.4585                34.3330                 3.5570

                     28                     29                     30
                      A                      A                      A
 Frequencies --   1221.5430              1270.1627              1283.1350
 Red. masses --      1.3831                 1.5903                 1.7911
 Frc consts  --      1.2159                 1.5116                 1.7375
 IR Inten    --      1.7561                 5.0806                 4.3191

                     31                     32                     33
                      A                      A                      A
 Frequencies --   1295.6533              1343.2696              1369.3260
 Red. masses --      1.4172                 1.8589                 1.5586
 Frc consts  --      1.4018                 1.9762                 1.7219
 IR Inten    --     30.1025                 6.3432                 0.9301

                     34                     35                     36
                      A                      A                      A
 Frequencies --   1409.6256              1432.7618              1438.0746
 Red. masses --      1.2354                 1.3415                 1.1369
 Frc consts  --      1.4463                 1.6226                 1.3853
 IR Inten    --      2.6822                 9.6076                 7.2709

                     37                     38                     39
                      A                      A                      A
 Frequencies --   1461.4788              1475.2541              1500.5551
 Red. masses --      1.9529                 1.1437                 1.0399
 Frc consts  --      2.4576                 1.4666                 1.3795
 IR Inten    --      2.8410                 3.2612                 4.8287

                     40                     41                     42
                      A                      A                      A
 Frequencies --   1509.0752              1855.0300              3026.9356
 Red. masses --      1.0852                12.8428                 1.0618
 Frc consts  --      1.4561                26.0383                 5.7317
 IR Inten    --      5.0577               225.1059                19.5605

                     43                     44                     45
                      A                      A                      A
 Frequencies --   3040.1686              3041.1632              3043.4467
 Red. masses --      1.0621                 1.0379                 1.0644
 Frc consts  --      5.7838                 5.6555                 5.8089
 IR Inten    --      4.2834                25.7808                 9.4186

                     46                     47                     48
                      A                      A                      A
 Frequencies --   3070.1556              3100.2847              3101.8720
 Red. masses --      1.0999                 1.0972                 1.0965
 Frc consts  --      6.1086                 6.2137                 6.2161
 IR Inten    --     10.9996                 4.3681                 4.4917

                     49                     50                     51
                      A                      A                      A
 Frequencies --   3110.8635              3118.7908              3142.2247
 Red. masses --      1.1012                 1.1026                 1.0909
 Frc consts  --      6.2789                 6.3187                 6.3464
 IR Inten    --     34.4236                23.1998                24.6421

 - Thermochemistry -
 -------------------
 Temperature   298.150 Kelvin.  Pressure   1.00000 Atm.
 Atom     1 has atomic number  6 and mass  12.00000

 Molecular mass:   126.06808 amu.
 Principal axes and moments of inertia in atomic units:
                           1         2         3
     Eigenvalues --   535.437291546.238121843.18620
           X            0.99912   0.04198  -0.00194
           Y           -0.04202   0.99854  -0.03382
           Z            0.00051   0.03387   0.99943
 This molecule is an asymmetric top.
 Rotational symmetry number  1.
 Warning -- assumption of classical behavior for rotation
           may cause significant error
 Rotational temperatures (Kelvin)      0.16176     0.05602     0.04699
 Rotational constants (GHZ):           3.37059     1.16718     0.97914
 Zero-point vibrational energy     415089.7 (Joules/Mol)
                                   99.20881 (Kcal/Mol)
 Warning -- explicit consideration of  11 degrees of freedom as
           vibrations may cause significant error
 Vibrational temperatures:    103.44   112.55   217.95   314.03   397.34
          (Kelvin)            474.40   563.27   617.32   687.83   693.03
                              856.63   950.42  1026.82  1120.58  1129.98
                             1174.02  1242.52  1305.93  1383.20  1427.67
                             1458.35  1517.06  1551.68  1587.96  1647.46
                             1654.63  1741.86  1757.53  1827.48  1846.14
                             1864.15  1932.66  1970.15  2028.13  2061.42
                             2069.07  2102.74  2122.56  2158.96  2171.22
                             2668.97  4355.08  4374.12  4375.55  4378.84
                             4417.26  4460.61  4462.90  4475.83  4487.24
                             4520.95

 Zero-point correction=                           0.158099 (Hartree/Particle)
 Thermal correction to Energy=                    0.166707
 Thermal correction to Enthalpy=                  0.167651
 Thermal correction to Gibbs Free Energy=         0.124446
 Sum of electronic and zero-point Energies=           -423.052438
 Sum of electronic and thermal Energies=              -423.043830
 Sum of electronic and thermal Enthalpies=            -423.042886
 Sum of electronic and thermal Free Energies=         -423.086091

                     E (Thermal)             CV                S
                      KCal/Mol        Cal/Mol-Kelvin    Cal/Mol-Kelvin
 Total                  104.610             32.486             90.932
 Electronic               0.000              0.000              0.000
 Translational            0.889              2.981             40.409
 Rotational               0.889              2.981             28.814
 Vibrational            102.833             26.525             21.710
 Vibration     1          0.598              1.967              4.101
 Vibration     2          0.600              1.964              3.935
 Vibration     3          0.619              1.901              2.654
 Vibration     4          0.646              1.813              1.973
 Vibration     5          0.678              1.717              1.557
 Vibration     6          0.713              1.616              1.261
 Vibration     7          0.759              1.488              0.994
 Vibration     8          0.790              1.407              0.862
 Vibration     9          0.835              1.299              0.715
 Vibration    10          0.838              1.291              0.706
 Vibration    11          0.953              1.042              0.458

 Optimization completed.
    -- Stationary point found.
 Normal termination of Gaussian 09 at Tue Jan 28 10:28:17 2020.
