 Gaussian 09, Revision D.01,
 Gaussian 09:  ES64L-G09RevD.01 24-Apr-2013

 -----------------------------
 # b3lyp 6-31G(2df,p) opt Freq
 -----------------------------

 -----
 titel
 -----
 Symbolic Z-matrix:
 Charge =  0 Multiplicity = 1

 SCF Done:  E(RB3LYP) =  -423.226466651     A.U. after   14 cycles
 Optimization completed.
    -- Stationary point found.
 Normal termination of Gaussian 09 at Mon Jan 27 22:56:11 2020.

 ----------------------------------------------------------------------
 #N Geom=AllCheck Guess=TCheck SCRF=Check GenChk RB3LYP/6-31G(2df,p) Fr
 eq
 ----------------------------------------------------------------------

 Structure from the checkpoint file:  "/scratch/puck/g09_4fa9158f-e1b7-422c-b068-a0a2f2825ff4/Gau-191572.chk"
 -----
 titel
 -----
 Charge =  0 Multiplicity = 1

                         Standard orientation:
 ---------------------------------------------------------------------
 Center     Atomic      Atomic             Coordinates (Angstroms)
 Number     Number       Type             X           Y           Z
 ---------------------------------------------------------------------
      1          6           0        0.498046    2.106501   -0.691293
      2          6           0        1.141476    1.000412    0.115580
      3          6           0        0.397191    0.177620    1.135244
      4          8           0       -1.015978    0.228199    1.104234
      5          6           0       -1.503977   -0.363708   -0.029517
      6          8           0       -2.673458   -0.415384   -0.267421
      7          6           0       -0.337189   -0.885349   -0.873407
      8          6           0        0.917137   -0.493162   -0.114459
      9          6           0        2.090627   -1.443955   -0.106649
     10          1           0        1.006968    2.234098   -1.652527
     11          1           0       -0.559136    1.922718   -0.895673
     12          1           0        0.560227    3.056869   -0.151550
     13          1           0        2.162504    1.220989    0.420437
     14          1           0        0.777023   -0.001719    2.134053
     15          1           0       -0.431451   -1.972796   -0.963305
     16          1           0       -0.419196   -0.473461   -1.883619
     17          1           0        2.557448   -1.507838   -1.096225
     18          1           0        2.860421   -1.116421    0.599172
     19          1           0        1.780814   -2.455118    0.181744
 ---------------------------------------------------------------------

 SCF Done:  E(RB3LYP) =  -423.226466651     A.U. after    1 cycles

 The electronic state is 1-A.
 Alpha  occ. eigenvalues --  -19.18321 -19.12282 -10.30461 -10.24798 -10.21302
 Alpha  occ. eigenvalues --  -10.20586 -10.20571 -10.19381 -10.18879  -1.10241
 Alpha  occ. eigenvalues --   -1.02436  -0.87846  -0.76672  -0.73303  -0.70869
 Alpha  occ. eigenvalues --   -0.63388  -0.56107  -0.54592  -0.52044  -0.48365
 Alpha  occ. eigenvalues --   -0.45672  -0.44101  -0.43898  -0.42868  -0.41579
 Alpha  occ. eigenvalues --   -0.40093  -0.39853  -0.38423  -0.36907  -0.36086
 Alpha  occ. eigenvalues --   -0.33511  -0.28073  -0.26810  -0.26462
 Alpha virt. eigenvalues --    0.01169   0.07539   0.09350   0.10365   0.11844
 Alpha virt. eigenvalues --    0.13329   0.14284   0.14763   0.15128   0.16807
 Alpha virt. eigenvalues --    0.17076   0.17793   0.19075   0.20003   0.20633

 Mulliken charges:
               1
     1  C   -0.429561
     2  C   -0.089824
     3  C    0.038298
     4  O   -0.214417
     5  C    0.428710
     6  O   -0.331516
     7  C   -0.445257
     8  C    0.282389
     9  C   -0.483261
    10  H    0.123178
    11  H    0.141194
    12  H    0.129885
    13  H    0.091830
    14  H    0.109177
    15  H    0.138940
    16  H    0.141989
    17  H    0.125900
    18  H    0.120310
    19  H    0.122037
 Sum of Mulliken charges =   0.00000

 Dipole moment (field-independent basis, Debye):
    X=              4.2311    Y=             -0.2345    Z=             -0.4525  Tot=              4.2616
 Quadrupole moment (field-independent basis, Debye-Ang):
   XX=            -62.7180   YY=            -50.7378   ZZ=            -52.0812
   XY=             -0.4211   XZ=              1.2482   YZ=             -0.5625

  Exact polarizability:  82.742   1.045  75.187   3.180   1.608  67.128
 Approx polarizability: 120.291   4.496 104.084   5.526   5.202 105.314

                      1                      2                      3
                      A                      A                      A
 Frequencies --     97.8359               150.5871               195.2159
 Red. masses --      4.6866                 1.0633                 1.2861
 Frc consts  --      0.0264                 0.0142                 0.0289
 IR Inten    --      2.3242                 0.0274                 0.2529

                      4                      5                      6
                      A                      A                      A
 Frequencies --    203.3954               216.7097               268.4283
 Red. masses --      2.4633                 1.8883                 3.5079
 Frc consts  --      0.0600                 0.0522                 0.1489
 IR Inten    --      1.5837                 0.5056                 0.4275

                      7                      8                      9
                      A                      A                      A
 Frequencies --    310.7220               446.6487               488.3980
 Red. masses --      2.6056                 2.3772                 4.2151
 Frc consts  --      0.1482                 0.2794                 0.5924
 IR Inten    --      0.8102                 1.7759                 2.2912

                     10                     11                     12
                      A                      A                      A
 Frequencies --    551.3839               563.7183               589.0017
 Red. masses --      3.5293                 3.7505                 3.4711
 Frc consts  --      0.6322                 0.7022                 0.7095
 IR Inten    --      3.6484                 1.6325                 4.7870

                     13                     14                     15
                      A                      A                      A
 Frequencies --    691.0817               751.5773               799.3739
 Red. masses --      5.1699                 3.1158                 2.7643
 Frc consts  --      1.4548                 1.0370                 1.0407
 IR Inten    --      0.2132                 5.4497                12.4579

                     16                     17                     18
                      A                      A                      A
 Frequencies --    833.7629               894.3869               954.8360
 Red. masses --      4.4806                 2.4488                 1.8180
 Frc consts  --      1.8351                 1.1541                 0.9766
 IR Inten    --     15.5839                10.5546                 3.4354

                     19                     20                     21
                      A                      A                      A
 Frequencies --    970.4982               978.8402              1037.6001
 Red. masses --      1.5356                 1.5557                 1.4446
 Frc consts  --      0.8521                 0.8782                 0.9163
 IR Inten    --      0.6550                12.9644                 3.5222

                     22                     23                     24
                      A                      A                      A
 Frequencies --   1051.7896              1105.5953              1118.4368
 Red. masses --      1.9470                 2.0362                 1.8273
 Frc consts  --      1.2690                 1.4664                 1.3468
 IR Inten    --     45.2735                22.9389                 3.2907

                     25                     26                     27
                      A                      A                      A
 Frequencies --   1139.6941              1153.5480              1168.4606
 Red. masses --      1.9782                 3.0660                 2.7365
 Frc consts  --      1.5139                 2.4038                 2.2013
 IR Inten    --     25.7106                78.6528                64.1157

                     28                     29                     30
                      A                      A                      A
 Frequencies --   1192.6281              1231.6730              1303.1813
 Red. masses --      1.4849                 1.5886                 1.6976
 Frc consts  --      1.2444                 1.4199                 1.6986
 IR Inten    --     21.3750                 0.5531                18.5416

                     31                     32                     33
                      A                      A                      A
 Frequencies --   1321.8906              1357.7093              1419.7416
 Red. masses --      3.0463                 1.4117                 1.2546
 Frc consts  --      3.1362                 1.5332                 1.4900
 IR Inten    --      9.8109                10.6843                 1.3990

                     34                     35                     36
                      A                      A                      A
 Frequencies --   1423.6353              1444.9989              1468.9902
 Red. masses --      1.2380                 1.7931                 1.3240
 Frc consts  --      1.4783                 2.2059                 1.6833
 IR Inten    --      0.5304                 1.5223                 6.8691

                     37                     38                     39
                      A                      A                      A
 Frequencies --   1489.8759              1492.8988              1500.1139
 Red. masses --      1.0469                 1.0487                 1.0513
 Frc consts  --      1.3692                 1.3771                 1.3939
 IR Inten    --      3.6520                 2.0345                 7.0869

                     40                     41                     42
                      A                      A                      A
 Frequencies --   1505.6377              1885.6833              3023.9382
 Red. masses --      1.1261                12.9609                 1.0358
 Frc consts  --      1.5040                27.1533                 5.5805
 IR Inten    --      3.9391               379.3722                33.0727

                     43                     44                     45
                      A                      A                      A
 Frequencies --   3040.0595              3056.1040              3085.1204
 Red. masses --      1.0375                 1.0609                 1.1012
 Frc consts  --      5.6497                 5.8380                 6.1753
 IR Inten    --     24.6424                10.4003                21.1870

                     46                     47                     48
                      A                      A                      A
 Frequencies --   3094.8910              3098.7866              3099.6630
 Red. masses --      1.1018                 1.1013                 1.1005
 Frc consts  --      6.2179                 6.2305                 6.2297
 IR Inten    --      6.9243                15.5084                21.0686

                     49                     50                     51
                      A                      A                      A
 Frequencies --   3118.2252              3134.9921              3183.6533
 Red. masses --      1.0942                 1.0908                 1.0921
 Frc consts  --      6.2683                 6.3163                 6.5216
 IR Inten    --      1.8378                26.4897                15.9008

 - Thermochemistry -
 -------------------
 Temperature   298.150 Kelvin.  Pressure   1.00000 Atm.
 Atom     1 has atomic number  6 and mass  12.00000

 Molecular mass:   126.06808 amu.
 Principal axes and moments of inertia in atomic units:
                           1         2         3
     Eigenvalues --   740.149821188.827191459.15708
           X            0.99927  -0.03734   0.00799
           Y            0.03755   0.99892  -0.02744
           Z           -0.00695   0.02772   0.99959
 This molecule is an asymmetric top.
 Rotational symmetry number  1.
 Warning -- assumption of classical behavior for rotation
           may cause significant error
 Rotational temperatures (Kelvin)      0.11702     0.07286     0.05936
 Rotational constants (GHZ):           2.43835     1.51809     1.23684
 Zero-point vibrational energy     416932.2 (Joules/Mol)
                                   99.64918 (Kcal/Mol)
 Warning -- explicit consideration of  12 degrees of freedom as
           vibrations may cause significant error
 Vibrational temperatures:    140.76   216.66   280.87   292.64   311.80
          (Kelvin)            386.21   447.06   642.63   702.69   793.32
                              811.06   847.44   994.31  1081.35  1150.12
                             1199.60  1286.82  1373.79  1396.33  1408.33
                             1492.87  1513.29  1590.70  1609.18  1639.76
                             1659.70  1681.15  1715.92  1772.10  1874.98
                             1901.90  1953.44  2042.69  2048.29  2079.03
                             2113.55  2143.60  2147.95  2158.33  2166.27
                             2713.07  4350.77  4373.96  4397.05  4438.79
                             4452.85  4458.46  4459.72  4486.43  4510.55
                             4580.56

 Zero-point correction=                           0.158801 (Hartree/Particle)
 Thermal correction to Energy=                    0.167393
 Thermal correction to Enthalpy=                  0.168337
 Thermal correction to Gibbs Free Energy=         0.125779
 Sum of electronic and zero-point Energies=           -423.067666
 Sum of electronic and thermal Energies=              -423.059073
 Sum of electronic and thermal Enthalpies=            -423.058129
 Sum of electronic and thermal Free Energies=         -423.100687

                     E (Thermal)             CV                S
                      KCal/Mol        Cal/Mol-Kelvin    Cal/Mol-Kelvin
 Total                  105.041             32.626             89.571
 Electronic               0.000              0.000              0.000
 Translational            0.889              2.981             40.409
 Rotational               0.889              2.981             28.642
 Vibrational            103.263             26.665             20.521
 Vibration     1          0.603              1.951              3.497
 Vibration     2          0.618              1.902              2.665
 Vibration     3          0.636              1.847              2.178
 Vibration     4          0.639              1.835              2.102
 Vibration     5          0.646              1.816              1.986
 Vibration     6          0.673              1.731              1.606
 Vibration     7          0.700              1.653              1.358
 Vibration     8          0.806              1.368              0.806
 Vibration     9          0.844              1.276              0.688
 Vibration    10          0.907              1.137              0.541
 Vibration    11          0.919              1.110              0.516
 Vibration    12          0.946              1.055              0.469

 Optimization completed.
    -- Stationary point found.
 Normal termination of Gaussian 09 at Mon Jan 27 23:40:30 2020.
