 Gaussian 09, Revision D.01,
 Gaussian 09:  ES64L-G09RevD.01 24-Apr-2013

 -----------------------------
 # b3lyp 6-31G(2df,p) opt Freq
 -----------------------------

 -----
 titel
 -----
 Symbolic Z-matrix:
 Charge =  0 Multiplicity = 1

 SCF Done:  E(RB3LYP) =  -423.124235983     A.U. after   13 cycles
 Optimization completed.
    -- Stationary point found.
 Normal termination of Gaussian 09 at Mon Jan 27 18:42:52 2020.

 ----------------------------------------------------------------------
 #N Geom=AllCheck Guess=TCheck SCRF=Check GenChk RB3LYP/6-31G(2df,p) Fr
 eq
 ----------------------------------------------------------------------

 Structure from the checkpoint file:  "/scratch/puck/g09_bb0b9575-494c-424e-9e42-e6b8bd93b4a1/Gau-18893.chk"
 -----
 titel
 -----
 Charge =  0 Multiplicity = 1

                         Standard orientation:
 ---------------------------------------------------------------------
 Center     Atomic      Atomic             Coordinates (Angstroms)
 Number     Number       Type             X           Y           Z
 ---------------------------------------------------------------------
      1          6           0        1.669412   -1.325445   -0.606353
      2          6           0        0.462540   -0.699007    0.050569
      3          6           0        0.444965   -0.440659    1.589462
      4          6           0        0.131538    1.071411    1.350388
      5          6           0        0.087012    0.819524   -0.181541
      6          8           0        0.753482    1.659898   -1.072906
      7          6           0       -1.259367    0.351941   -0.785281
      8          8           0       -1.945689   -0.423008    0.199531
      9          6           0       -0.916086   -1.063334   -0.567932
     10          1           0        1.741321   -2.394137   -0.371203
     11          1           0        1.623842   -1.224005   -1.696390
     12          1           0        2.598256   -0.852820   -0.267245
     13          1           0       -0.328248   -0.982416    2.134848
     14          1           0        1.411957   -0.623187    2.065616
     15          1           0       -0.786335    1.453930    1.800793
     16          1           0        0.959761    1.733518    1.624885
     17          1           0        1.644286    1.814498   -0.741556
     18          1           0       -1.849852    0.852015   -1.545599
     19          1           0       -1.197417   -1.959110   -1.113024
 ---------------------------------------------------------------------

 SCF Done:  E(RB3LYP) =  -423.124235983     A.U. after    1 cycles

 The electronic state is 1-A.
 Alpha  occ. eigenvalues --  -19.15300 -19.14974 -10.23395 -10.23384 -10.23274
 Alpha  occ. eigenvalues --  -10.18900 -10.18244 -10.17763 -10.17740  -1.07952
 Alpha  occ. eigenvalues --   -1.03156  -0.84258  -0.73755  -0.71280  -0.65193
 Alpha  occ. eigenvalues --   -0.60493  -0.59170  -0.55089  -0.50536  -0.48694
 Alpha  occ. eigenvalues --   -0.46261  -0.43537  -0.41733  -0.40623  -0.40212
 Alpha  occ. eigenvalues --   -0.39585  -0.37635  -0.36211  -0.33102  -0.31846
 Alpha  occ. eigenvalues --   -0.31683  -0.28315  -0.25333  -0.23431
 Alpha virt. eigenvalues --    0.06002   0.08154   0.08968   0.10993   0.11531
 Alpha virt. eigenvalues --    0.14171   0.14735   0.15422   0.16141   0.16653
 Alpha virt. eigenvalues --    0.18218   0.18899   0.19344   0.20535   0.21875

 Mulliken charges:
               1
     1  C   -0.497168
     2  C    0.239716
     3  C   -0.277583
     4  C   -0.289032
     5  C    0.344761
     6  O   -0.482492
     7  C   -0.014825
     8  O   -0.242415
     9  C   -0.029866
    10  H    0.121615
    11  H    0.126368
    12  H    0.108318
    13  H    0.113520
    14  H    0.091986
    15  H    0.113527
    16  H    0.087394
    17  H    0.282543
    18  H    0.105399
    19  H    0.098232
 Sum of Mulliken charges =   0.00000

 Dipole moment (field-independent basis, Debye):
    X=              2.0191    Y=             -0.3105    Z=             -0.1352  Tot=              2.0473
 Quadrupole moment (field-independent basis, Debye-Ang):
   XX=            -52.7069   YY=            -52.1317   ZZ=            -54.3017
   XY=              0.9675   XZ=              2.4701   YZ=              2.3924

  Exact polarizability:  75.016  -1.006  75.412   2.656   1.505  71.054
 Approx polarizability: 109.903   0.067 112.903   0.584  -2.090 103.885

                      1                      2                      3
                      A                      A                      A
 Frequencies --    158.4059               182.7846               188.1185
 Red. masses --      2.0974                 2.4486                 1.1583
 Frc consts  --      0.0310                 0.0482                 0.0242
 IR Inten    --      0.7217                 0.5741                 0.7766

                      4                      5                      6
                      A                      A                      A
 Frequencies --    267.1499               278.0595               313.2308
 Red. masses --      1.2140                 3.1330                 2.9944
 Frc consts  --      0.0510                 0.1427                 0.1731
 IR Inten    --     66.5078                 4.5457                 2.1824

                      7                      8                      9
                      A                      A                      A
 Frequencies --    329.3099               362.0010               505.2336
 Red. masses --      2.5842                 3.3104                 3.0299
 Frc consts  --      0.1651                 0.2556                 0.4557
 IR Inten    --     31.6462                17.7463                 2.6715

                     10                     11                     12
                      A                      A                      A
 Frequencies --    541.0294               564.4028               699.6104
 Red. masses --      5.2298                 3.8720                 3.8073
 Frc consts  --      0.9019                 0.7267                 1.0979
 IR Inten    --      6.3399                 0.8187                 1.2014

                     13                     14                     15
                      A                      A                      A
 Frequencies --    712.6064               738.3102               828.3151
 Red. masses --      3.9518                 1.3020                 2.5807
 Frc consts  --      1.1823                 0.4182                 1.0432
 IR Inten    --      4.9190                 3.8894                 4.2170

                     16                     17                     18
                      A                      A                      A
 Frequencies --    850.6659               852.8760               894.4179
 Red. masses --      1.5389                 6.2441                 2.2503
 Frc consts  --      0.6561                 2.6760                 1.0607
 IR Inten    --     22.7724                12.1423                11.8854

                     19                     20                     21
                      A                      A                      A
 Frequencies --    925.0153               940.7249               982.2726
 Red. masses --      2.0006                 3.0074                 1.9937
 Frc consts  --      1.0086                 1.5681                 1.1334
 IR Inten    --      4.0044                 1.8273                 4.5383

                     22                     23                     24
                      A                      A                      A
 Frequencies --    997.7217              1046.8203              1063.3389
 Red. masses --      2.1951                 1.3041                 2.3518
 Frc consts  --      1.2874                 0.8420                 1.5667
 IR Inten    --     11.7663                 0.6592                18.9844

                     25                     26                     27
                      A                      A                      A
 Frequencies --   1097.3026              1129.6772              1193.8010
 Red. masses --      1.4753                 2.0670                 1.6624
 Frc consts  --      1.0466                 1.5542                 1.3959
 IR Inten    --     18.9857                 5.6717                 8.0081

                     28                     29                     30
                      A                      A                      A
 Frequencies --   1197.9467              1217.9416              1222.6070
 Red. masses --      1.7985                 2.2579                 1.2188
 Frc consts  --      1.5206                 1.9734                 1.0734
 IR Inten    --      7.7770                 1.6867                 2.2403

                     31                     32                     33
                      A                      A                      A
 Frequencies --   1226.3349              1256.6134              1289.1149
 Red. masses --      1.4666                 1.7052                 2.5080
 Frc consts  --      1.2995                 1.5864                 2.4556
 IR Inten    --     23.4272                42.0860                94.2724

                     34                     35                     36
                      A                      A                      A
 Frequencies --   1318.5898              1371.1460              1390.8485
 Red. masses --      2.5129                 3.3775                 1.9636
 Frc consts  --      2.5742                 3.7413                 2.2381
 IR Inten    --      2.4923                 7.0676                 6.9695

                     37                     38                     39
                      A                      A                      A
 Frequencies --   1410.8548              1458.0602              1480.4496
 Red. masses --      1.3369                 1.0892                 1.1414
 Frc consts  --      1.5679                 1.3644                 1.4739
 IR Inten    --      2.6091                 1.7329                 6.5579

                     40                     41                     42
                      A                      A                      A
 Frequencies --   1490.6491              1493.3921              3019.8378
 Red. masses --      1.0515                 1.0509                 1.0352
 Frc consts  --      1.3765                 1.3809                 5.5623
 IR Inten    --      5.4741                 3.8972                29.4978

                     43                     44                     45
                      A                      A                      A
 Frequencies --   3045.8030              3065.2151              3081.3932
 Red. masses --      1.0637                 1.0632                 1.1004
 Frc consts  --      5.8137                 5.8856                 6.1557
 IR Inten    --     33.6757                35.0795                21.6216

                     46                     47                     48
                      A                      A                      A
 Frequencies --   3091.1556              3112.9314              3134.2451
 Red. masses --      1.1004                 1.1014                 1.1043
 Frc consts  --      6.1952                 6.2881                 6.3914
 IR Inten    --     22.8822                 7.5185                23.0082

                     49                     50                     51
                      A                      A                      A
 Frequencies --   3158.9495              3179.9640              3810.6084
 Red. masses --      1.0888                 1.0997                 1.0659
 Frc consts  --      6.4013                 6.5520                 9.1192
 IR Inten    --     21.4638                22.1730                17.8351

 - Thermochemistry -
 -------------------
 Temperature   298.150 Kelvin.  Pressure   1.00000 Atm.
 Atom     1 has atomic number  6 and mass  12.00000

 Molecular mass:   126.06808 amu.
 Principal axes and moments of inertia in atomic units:
                           1         2         3
     Eigenvalues --   871.56795 966.128721061.68745
           X            0.98234  -0.18688   0.00930
           Y            0.18261   0.96836   0.17011
           Z           -0.04079  -0.16541   0.98538
 This molecule is an asymmetric top.
 Rotational symmetry number  1.
 Warning -- assumption of classical behavior for rotation
           may cause significant error
 Rotational temperatures (Kelvin)      0.09938     0.08965     0.08158
 Rotational constants (GHZ):           2.07068     1.86801     1.69988
 Zero-point vibrational energy     413715.6 (Joules/Mol)
                                   98.88041 (Kcal/Mol)
 Warning -- explicit consideration of  11 degrees of freedom as
           vibrations may cause significant error
 Vibrational temperatures:    227.91   262.99   270.66   384.37   400.07
          (Kelvin)            450.67   473.80   520.84   726.92   778.42
                              812.05  1006.58  1025.28  1062.26  1191.76
                             1223.92  1227.10  1286.87  1330.89  1353.49
                             1413.27  1435.50  1506.14  1529.91  1578.77
                             1625.35  1717.61  1723.58  1752.34  1759.06
                             1764.42  1807.98  1854.75  1897.15  1972.77
                             2001.12  2029.90  2097.82  2130.03  2144.71
                             2148.66  4344.87  4382.23  4410.16  4433.43
                             4447.48  4478.81  4509.47  4545.02  4575.25
                             5482.61

 Zero-point correction=                           0.157576 (Hartree/Particle)
 Thermal correction to Energy=                    0.165862
 Thermal correction to Enthalpy=                  0.166807
 Thermal correction to Gibbs Free Energy=         0.125452
 Sum of electronic and zero-point Energies=           -422.966660
 Sum of electronic and thermal Energies=              -422.958374
 Sum of electronic and thermal Enthalpies=            -422.957429
 Sum of electronic and thermal Free Energies=         -422.998784

                     E (Thermal)             CV                S
                      KCal/Mol        Cal/Mol-Kelvin    Cal/Mol-Kelvin
 Total                  104.080             32.958             87.039
 Electronic               0.000              0.000              0.000
 Translational            0.889              2.981             40.409
 Rotational               0.889              2.981             28.282
 Vibrational            102.303             26.997             18.348
 Vibration     1          0.621              1.893              2.569
 Vibration     2          0.630              1.863              2.300
 Vibration     3          0.633              1.856              2.246
 Vibration     4          0.672              1.733              1.615
 Vibration     5          0.679              1.714              1.546
 Vibration     6          0.701              1.648              1.345
 Vibration     7          0.712              1.617              1.263
 Vibration     8          0.736              1.551              1.114
 Vibration     9          0.860              1.238              0.645
 Vibration    10          0.896              1.159              0.563
 Vibration    11          0.920              1.108              0.515

 Optimization completed.
    -- Stationary point found.
 Normal termination of Gaussian 09 at Mon Jan 27 20:28:58 2020.
