 Gaussian 09, Revision D.01,
 Gaussian 09:  ES64L-G09RevD.01 24-Apr-2013

 -----------------------------
 # b3lyp 6-31G(2df,p) opt Freq
 -----------------------------

 -----
 titel
 -----
 Symbolic Z-matrix:
 Charge =  0 Multiplicity = 1

 SCF Done:  E(RB3LYP) =  -423.236215120     A.U. after   14 cycles
 Optimization completed.
    -- Stationary point found.
 Normal termination of Gaussian 09 at Tue Jan 28 00:43:27 2020.

 ----------------------------------------------------------------------
 #N Geom=AllCheck Guess=TCheck SCRF=Check GenChk RB3LYP/6-31G(2df,p) Fr
 eq
 ----------------------------------------------------------------------

 Structure from the checkpoint file:  "/scratch/puck/g09_6f359519-47bb-41a2-91de-78c4bfe59e1e/Gau-37402.chk"
 -----
 titel
 -----
 Charge =  0 Multiplicity = 1

                         Standard orientation:
 ---------------------------------------------------------------------
 Center     Atomic      Atomic             Coordinates (Angstroms)
 Number     Number       Type             X           Y           Z
 ---------------------------------------------------------------------
      1          6           0        1.470910    1.888230   -0.202487
      2          6           0        0.585715    0.686095   -0.172709
      3          6           0       -0.746777    0.621281    0.012572
      4          6           0       -1.745076    1.712454    0.230462
      5          6           0       -1.197861   -0.792657   -0.040797
      6          8           0       -2.343733   -1.173588    0.047883
      7          6           0        0.037184   -1.674690   -0.240493
      8          6           0        1.214225   -0.690146   -0.359195
      9          8           0        2.282990   -0.919467    0.556188
     10          1           0        0.954018    2.803339    0.092471
     11          1           0        2.331607    1.733315    0.456411
     12          1           0        1.879096    2.036015   -1.211112
     13          1           0       -1.292403    2.706009    0.215336
     14          1           0       -2.523733    1.670624   -0.538812
     15          1           0       -2.258294    1.576815    1.188795
     16          1           0        0.168945   -2.343577    0.616173
     17          1           0       -0.092978   -2.311759   -1.119681
     18          1           0        1.693287   -0.754534   -1.343342
     19          1           0        1.916476   -0.875212    1.447077
 ---------------------------------------------------------------------

 SCF Done:  E(RB3LYP) =  -423.236215120     A.U. after    1 cycles

 The electronic state is 1-A.
 Alpha  occ. eigenvalues --  -19.14745 -19.11954 -10.25852 -10.24529 -10.20993
 Alpha  occ. eigenvalues --  -10.19600 -10.19373 -10.18787 -10.18652  -1.03125
 Alpha  occ. eigenvalues --   -1.02690  -0.85160  -0.76110  -0.74563  -0.66948
 Alpha  occ. eigenvalues --   -0.65402  -0.56457  -0.52188  -0.48811  -0.48127
 Alpha  occ. eigenvalues --   -0.46065  -0.43015  -0.42716  -0.41973  -0.40572
 Alpha  occ. eigenvalues --   -0.39742  -0.38930  -0.37772  -0.37592  -0.34982
 Alpha  occ. eigenvalues --   -0.33659  -0.28331  -0.25990  -0.23594
 Alpha virt. eigenvalues --   -0.04165   0.04902   0.07876   0.09624   0.11281
 Alpha virt. eigenvalues --    0.12911   0.13821   0.14692   0.15942   0.17376
 Alpha virt. eigenvalues --    0.17991   0.19851   0.20859   0.21575   0.23670

 Mulliken charges:
               1
     1  C   -0.494310
     2  C    0.177096
     3  C    0.098344
     4  C   -0.496967
     5  C    0.336061
     6  O   -0.328114
     7  C   -0.376250
     8  C    0.044629
     9  O   -0.425820
    10  H    0.128770
    11  H    0.146552
    12  H    0.139121
    13  H    0.120591
    14  H    0.146339
    15  H    0.142748
    16  H    0.129139
    17  H    0.133738
    18  H    0.099707
    19  H    0.278628
 Sum of Mulliken charges =   0.00000

 Dipole moment (field-independent basis, Debye):
    X=              1.7383    Y=              1.8555    Z=              0.2002  Tot=              2.5504
 Quadrupole moment (field-independent basis, Debye-Ang):
   XX=            -64.7979   YY=            -52.0669   ZZ=            -48.9383
   XY=             -2.5196   XZ=              0.2919   YZ=             -0.1007

  Exact polarizability:  99.679   4.198  83.783  -3.669   0.617  57.874
 Approx polarizability: 163.521  14.081 113.199  -7.634  -0.686  91.449

                      1                      2                      3
                      A                      A                      A
 Frequencies --     49.3484                67.8583               108.7933
 Red. masses --      2.9988                 1.0927                 3.1341
 Frc consts  --      0.0043                 0.0030                 0.0219
 IR Inten    --      6.6015                 0.0366                 0.8161

                      4                      5                      6
                      A                      A                      A
 Frequencies --    139.0996               228.5510               269.4470
 Red. masses --      1.0526                 2.9429                 2.7976
 Frc consts  --      0.0120                 0.0906                 0.1197
 IR Inten    --      0.4251                 0.0870                 1.6293

                      7                      8                      9
                      A                      A                      A
 Frequencies --    289.8113               330.7906               371.1229
 Red. masses --      2.9331                 1.6277                 2.0414
 Frc consts  --      0.1451                 0.1049                 0.1657
 IR Inten    --      0.1238                16.8891                77.9698

                     10                     11                     12
                      A                      A                      A
 Frequencies --    399.3685               511.2506               544.6976
 Red. masses --      3.2496                 2.6351                 4.6388
 Frc consts  --      0.3054                 0.4058                 0.8109
 IR Inten    --      3.1068                 4.2384                 2.5243

                     13                     14                     15
                      A                      A                      A
 Frequencies --    580.3457               604.2576               655.4314
 Red. masses --      3.5226                 3.3494                 4.3063
 Frc consts  --      0.6990                 0.7206                 1.0900
 IR Inten    --      1.7991                 3.3855                 6.3758

                     16                     17                     18
                      A                      A                      A
 Frequencies --    714.0332               838.2280               910.6455
 Red. masses --      3.1729                 2.3221                 2.1159
 Frc consts  --      0.9531                 0.9613                 1.0338
 IR Inten    --      6.1211                 2.8087                 9.3201

                     19                     20                     21
                      A                      A                      A
 Frequencies --    950.6830              1016.1699              1036.0574
 Red. masses --      1.8134                 2.8675                 1.5339
 Frc consts  --      0.9656                 1.7445                 0.9701
 IR Inten    --      5.2697                19.7226                 0.4610

                     22                     23                     24
                      A                      A                      A
 Frequencies --   1056.3101              1068.9578              1088.9758
 Red. masses --      2.5267                 1.9290                 2.6481
 Frc consts  --      1.6611                 1.2987                 1.8502
 IR Inten    --     52.4629                30.1359                43.1724

                     25                     26                     27
                      A                      A                      A
 Frequencies --   1120.4669              1137.9387              1196.6734
 Red. masses --      2.1520                 1.2554                 2.5242
 Frc consts  --      1.5918                 0.9578                 2.1297
 IR Inten    --      7.9473                32.8475                17.5467

                     28                     29                     30
                      A                      A                      A
 Frequencies --   1256.6821              1283.6223              1309.4583
 Red. masses --      1.6448                 1.4594                 1.9251
 Frc consts  --      1.5304                 1.4167                 1.9448
 IR Inten    --      3.3562                 4.0210                37.8736

                     31                     32                     33
                      A                      A                      A
 Frequencies --   1334.7762              1407.3819              1415.6445
 Red. masses --      2.8337                 1.4117                 1.2831
 Frc consts  --      2.9746                 1.6474                 1.5150
 IR Inten    --     35.1166                21.8550                 1.8194

                     34                     35                     36
                      A                      A                      A
 Frequencies --   1424.9181              1452.3585              1472.2613
 Red. masses --      1.2009                 1.0894                 1.0452
 Frc consts  --      1.4367                 1.3538                 1.3348
 IR Inten    --     59.2228                 3.5141                 1.3844

                     37                     38                     39
                      A                      A                      A
 Frequencies --   1474.3977              1481.1702              1485.8770
 Red. masses --      1.0444                 1.0463                 1.0751
 Frc consts  --      1.3377                 1.3524                 1.3985
 IR Inten    --     10.9420                 8.9111                 5.8081

                     40                     41                     42
                      A                      A                      A
 Frequencies --   1711.3880              1806.6453              3025.9328
 Red. masses --      8.0252                12.6592                 1.0440
 Frc consts  --     13.8484                24.3447                 5.6318
 IR Inten    --     44.6417               255.3994                10.7734

                     43                     44                     45
                      A                      A                      A
 Frequencies --   3039.9811              3041.3177              3060.9803
 Red. masses --      1.0384                 1.0819                 1.0624
 Frc consts  --      5.6541                 5.8961                 5.8651
 IR Inten    --     18.7108                23.2751                 6.3905

                     46                     47                     48
                      A                      A                      A
 Frequencies --   3083.7272              3091.1353              3104.2106
 Red. masses --      1.0905                 1.0983                 1.1014
 Frc consts  --      6.1099                 6.1833                 6.2534
 IR Inten    --      8.7305                 8.9944                 8.4525

                     49                     50                     51
                      A                      A                      A
 Frequencies --   3127.8969              3132.9812              3790.9190
 Red. masses --      1.1013                 1.0998                 1.0661
 Frc consts  --      6.3484                 6.3605                 9.0265
 IR Inten    --      7.9146                21.1913                13.6720

 - Thermochemistry -
 -------------------
 Temperature   298.150 Kelvin.  Pressure   1.00000 Atm.
 Atom     1 has atomic number  6 and mass  12.00000

 Molecular mass:   126.06808 amu.
 Principal axes and moments of inertia in atomic units:
                           1         2         3
     Eigenvalues --   814.653981168.236381856.10234
           X            0.99928  -0.03729  -0.00694
           Y            0.03732   0.99929   0.00539
           Z            0.00673  -0.00564   0.99996
 This molecule is an asymmetric top.
 Rotational symmetry number  1.
 Warning -- assumption of classical behavior for rotation
           may cause significant error
 Rotational temperatures (Kelvin)      0.10632     0.07414     0.04666
 Rotational constants (GHZ):           2.21535     1.54484     0.97233
 Zero-point vibrational energy     413315.6 (Joules/Mol)
                                   98.78481 (Kcal/Mol)
 Warning -- explicit consideration of  14 degrees of freedom as
           vibrations may cause significant error
 Vibrational temperatures:     71.00    97.63   156.53   200.13   328.83
          (Kelvin)            387.67   416.97   475.93   533.96   574.60
                              735.57   783.70   834.99   869.39   943.02
                             1027.33  1206.02  1310.21  1367.82  1462.04
                             1490.65  1519.79  1537.99  1566.79  1612.10
                             1637.24  1721.74  1808.08  1846.84  1884.02
                             1920.44  2024.91  2036.79  2050.14  2089.62
                             2118.25  2121.33  2131.07  2137.84  2462.30
                             2599.36  4353.64  4373.85  4375.77  4404.06
                             4436.79  4447.45  4466.26  4500.34  4507.66
                             5454.28

 Zero-point correction=                           0.157424 (Hartree/Particle)
 Thermal correction to Energy=                    0.167163
 Thermal correction to Enthalpy=                  0.168107
 Thermal correction to Gibbs Free Energy=         0.122137
 Sum of electronic and zero-point Energies=           -423.078792
 Sum of electronic and thermal Energies=              -423.069052
 Sum of electronic and thermal Enthalpies=            -423.068108
 Sum of electronic and thermal Free Energies=         -423.114079

                     E (Thermal)             CV                S
                      KCal/Mol        Cal/Mol-Kelvin    Cal/Mol-Kelvin
 Total                  104.897             35.015             96.754
 Electronic               0.000              0.000              0.000
 Translational            0.889              2.981             40.409
 Rotational               0.889              2.981             28.959
 Vibrational            103.119             29.053             27.386
 Vibration     1          0.595              1.978              4.843
 Vibration     2          0.598              1.970              4.215
 Vibration     3          0.606              1.942              3.290
 Vibration     4          0.615              1.914              2.816
 Vibration     5          0.651              1.797              1.890
 Vibration     6          0.674              1.729              1.600
 Vibration     7          0.686              1.693              1.475
 Vibration     8          0.713              1.614              1.256
 Vibration     9          0.743              1.532              1.075
 Vibration    10          0.765              1.471              0.965
 Vibration    11          0.866              1.225              0.631
 Vibration    12          0.900              1.151              0.555
 Vibration    13          0.937              1.074              0.485
 Vibration    14          0.963              1.023              0.442

 Optimization completed.
    -- Stationary point found.
 Normal termination of Gaussian 09 at Tue Jan 28 02:48:59 2020.
