 Gaussian 09, Revision D.01,
 Gaussian 09:  ES64L-G09RevD.01 24-Apr-2013

 -----------------------------
 # b3lyp 6-31G(2df,p) opt Freq
 -----------------------------

 -----
 titel
 -----
 Symbolic Z-matrix:
 Charge =  0 Multiplicity = 1

 SCF Done:  E(RB3LYP) =  -423.204772885     A.U. after   14 cycles
 Optimization completed.
    -- Stationary point found.
 Normal termination of Gaussian 09 at Mon Jan 27 18:55:00 2020.

 ----------------------------------------------------------------------
 #N Geom=AllCheck Guess=TCheck SCRF=Check GenChk RB3LYP/6-31G(2df,p) Fr
 eq
 ----------------------------------------------------------------------

 Structure from the checkpoint file:  "/scratch/puck/g09_caaf2071-ded9-49bc-b726-ba85ccabf3d0/Gau-43541.chk"
 -----
 titel
 -----
 Charge =  0 Multiplicity = 1

                         Standard orientation:
 ---------------------------------------------------------------------
 Center     Atomic      Atomic             Coordinates (Angstroms)
 Number     Number       Type             X           Y           Z
 ---------------------------------------------------------------------
      1          6           0       -0.576696   -1.930015    0.810987
      2          6           0       -0.063183   -0.683930    0.136591
      3          8           0        0.660102   -0.958456   -1.103954
      4          6           0        1.841986   -0.283641   -0.618292
      5          6           0        1.138207    0.131939    0.687455
      6          6           0        0.688147    1.604541    0.769796
      7          6           0       -0.483188    1.735255   -0.223810
      8          6           0       -1.149280    0.359490   -0.201435
      9          8           0       -2.309750    0.112701   -0.401278
     10          1           0       -0.996540   -1.689605    1.793622
     11          1           0       -1.372442   -2.374508    0.206806
     12          1           0        0.226832   -2.660097    0.939527
     13          1           0        2.681559   -0.979790   -0.503807
     14          1           0        2.151453    0.536992   -1.278462
     15          1           0        1.604813   -0.226372    1.605621
     16          1           0        0.336636    1.821902    1.784607
     17          1           0        1.508006    2.297255    0.558197
     18          1           0       -1.198551    2.524665    0.012008
     19          1           0       -0.120542    1.913756   -1.244016
 ---------------------------------------------------------------------

 SCF Done:  E(RB3LYP) =  -423.204772885     A.U. after    1 cycles

 The electronic state is 1-A.
 Alpha  occ. eigenvalues --  -19.14231 -19.13539 -10.26524 -10.24149 -10.23706
 Alpha  occ. eigenvalues --  -10.20122 -10.19991 -10.19428 -10.17900  -1.05259
 Alpha  occ. eigenvalues --   -1.03635  -0.82891  -0.75687  -0.73049  -0.65727
 Alpha  occ. eigenvalues --   -0.65203  -0.57034  -0.51317  -0.50167  -0.48767
 Alpha  occ. eigenvalues --   -0.46009  -0.44407  -0.43295  -0.42322  -0.40618
 Alpha  occ. eigenvalues --   -0.39609  -0.38786  -0.37504  -0.35193  -0.34922
 Alpha  occ. eigenvalues --   -0.32387  -0.30436  -0.27623  -0.22962
 Alpha virt. eigenvalues --   -0.02700   0.07727   0.09581   0.10351   0.11587
 Alpha virt. eigenvalues --    0.12769   0.14335   0.14814   0.16020   0.16915
 Alpha virt. eigenvalues --    0.17748   0.18477   0.19089   0.20442   0.21841

 Mulliken charges:
               1
     1  C   -0.467014
     2  C    0.336796
     3  O   -0.328532
     4  C   -0.082806
     5  C   -0.122328
     6  C   -0.240570
     7  C   -0.330006
     8  C    0.385587
     9  O   -0.315179
    10  H    0.120873
    11  H    0.147751
    12  H    0.118782
    13  H    0.106506
    14  H    0.101118
    15  H    0.081824
    16  H    0.111479
    17  H    0.108195
    18  H    0.127148
    19  H    0.140372
 Sum of Mulliken charges =   0.00000

 Dipole moment (field-independent basis, Debye):
    X=              2.8390    Y=              1.2958    Z=              1.8719  Tot=              3.6391
 Quadrupole moment (field-independent basis, Debye-Ang):
   XX=            -57.6768   YY=            -51.2013   ZZ=            -53.5602
   XY=              0.2771   XZ=             -1.3716   YZ=             -2.2410

  Exact polarizability:  81.758   1.272  77.745  -1.264  -1.733  63.647
 Approx polarizability: 122.571   3.504 104.557  -1.201   0.507  98.690

                      1                      2                      3
                      A                      A                      A
 Frequencies --     81.3377               155.1265               192.8808
 Red. masses --      3.8316                 2.2925                 1.1229
 Frc consts  --      0.0149                 0.0325                 0.0246
 IR Inten    --      2.4203                 1.4178                 0.3770

                      4                      5                      6
                      A                      A                      A
 Frequencies --    214.2374               264.4934               294.8471
 Red. masses --      2.8314                 2.8383                 3.2534
 Frc consts  --      0.0766                 0.1170                 0.1666
 IR Inten    --      7.0482                 0.2962                 0.3096

                      7                      8                      9
                      A                      A                      A
 Frequencies --    370.3072               468.3449               503.2477
 Red. masses --      2.2435                 4.1888                 2.6857
 Frc consts  --      0.1813                 0.5413                 0.4008
 IR Inten    --      1.9420                 6.3351                 4.5081

                     10                     11                     12
                      A                      A                      A
 Frequencies --    578.1372               638.0759               673.3625
 Red. masses --      2.7850                 3.8192                 4.4249
 Frc consts  --      0.5484                 0.9162                 1.1821
 IR Inten    --      1.5296                 2.0744                 6.9859

                     13                     14                     15
                      A                      A                      A
 Frequencies --    788.9200               813.8840               855.1360
 Red. masses --      2.5009                 2.3562                 1.7714
 Frc consts  --      0.9171                 0.9196                 0.7632
 IR Inten    --      0.9480                 3.9235                 0.5953

                     16                     17                     18
                      A                      A                      A
 Frequencies --    884.1364               894.6099               955.5381
 Red. masses --      2.7431                 2.3767                 1.7849
 Frc consts  --      1.2634                 1.1207                 0.9602
 IR Inten    --     18.0086                 5.3365                 1.0193

                     19                     20                     21
                      A                      A                      A
 Frequencies --    972.8841              1017.0238              1040.0000
 Red. masses --      1.9992                 6.0515                 2.1188
 Frc consts  --      1.1149                 3.6878                 1.3502
 IR Inten    --      6.0243                71.0706                27.9848

                     22                     23                     24
                      A                      A                      A
 Frequencies --   1065.1258              1085.4722              1125.1985
 Red. masses --      1.6538                 2.1835                 2.6596
 Frc consts  --      1.1055                 1.5158                 1.9839
 IR Inten    --     16.4069                15.5711                11.9748

                     25                     26                     27
                      A                      A                      A
 Frequencies --   1160.3032              1163.2296              1184.8851
 Red. masses --      1.2787                 1.3542                 1.5075
 Frc consts  --      1.0143                 1.0796                 1.2470
 IR Inten    --      0.4482                 6.9881                 3.0763

                     28                     29                     30
                      A                      A                      A
 Frequencies --   1217.5201              1237.3388              1279.7428
 Red. masses --      3.2192                 1.8447                 1.4374
 Frc consts  --      2.8116                 1.6640                 1.3870
 IR Inten    --     11.3524                 1.0164                 3.8048

                     31                     32                     33
                      A                      A                      A
 Frequencies --   1320.2571              1323.0205              1336.8928
 Red. masses --      1.7954                 1.6655                 1.4025
 Frc consts  --      1.8438                 1.7176                 1.4769
 IR Inten    --      2.3979                 1.3763                 1.6191

                     34                     35                     36
                      A                      A                      A
 Frequencies --   1371.0554              1404.6143              1455.6855
 Red. masses --      1.6303                 1.3545                 1.0836
 Frc consts  --      1.8056                 1.5745                 1.3529
 IR Inten    --      4.3559                 9.2828                 9.4908

                     37                     38                     39
                      A                      A                      A
 Frequencies --   1477.0939              1482.5421              1496.3728
 Red. masses --      1.0522                 1.0515                 1.0907
 Frc consts  --      1.3526                 1.3617                 1.4390
 IR Inten    --      3.2403                 5.3102                 3.0241

                     40                     41                     42
                      A                      A                      A
 Frequencies --   1525.3193              1847.6069              3010.8993
 Red. masses --      1.0990                12.5886                 1.0560
 Frc consts  --      1.5066                25.3190                 5.6401
 IR Inten    --      0.5618               177.0142                71.2425

                     43                     44                     45
                      A                      A                      A
 Frequencies --   3040.0415              3040.3354              3043.8400
 Red. masses --      1.0446                 1.0593                 1.0610
 Frc consts  --      5.6880                 5.7694                 5.7918
 IR Inten    --     12.9586                 1.0370                29.8491

                     46                     47                     48
                      A                      A                      A
 Frequencies --   3053.2373              3088.3507              3105.1851
 Red. masses --      1.1096                 1.1015                 1.0887
 Frc consts  --      6.0944                 6.1899                 6.1851
 IR Inten    --     35.2092                20.5861                31.2367

                     49                     50                     51
                      A                      A                      A
 Frequencies --   3111.4393              3123.6657              3126.6424
 Red. masses --      1.0998                 1.0959                 1.1026
 Frc consts  --      6.2734                 6.3004                 6.3505
 IR Inten    --     14.6383                10.1863                11.0559

 - Thermochemistry -
 -------------------
 Temperature   298.150 Kelvin.  Pressure   1.00000 Atm.
 Atom     1 has atomic number  6 and mass  12.00000

 Molecular mass:   126.06808 amu.
 Principal axes and moments of inertia in atomic units:
                           1         2         3
     Eigenvalues --   830.65342 930.560801317.75376
           X            0.99297   0.11767  -0.01307
           Y           -0.11811   0.99219  -0.04012
           Z            0.00824   0.04139   0.99911
 This molecule is an asymmetric top.
 Rotational symmetry number  1.
 Warning -- assumption of classical behavior for rotation
           may cause significant error
 Rotational temperatures (Kelvin)      0.10427     0.09308     0.06573
 Rotational constants (GHZ):           2.17268     1.93941     1.36956
 Zero-point vibrational energy     418450.4 (Joules/Mol)
                                  100.01205 (Kcal/Mol)
 Warning -- explicit consideration of  10 degrees of freedom as
           vibrations may cause significant error
 Vibrational temperatures:    117.03   223.19   277.51   308.24   380.55
          (Kelvin)            424.22   532.79   673.84   724.06   831.81
                              918.05   968.82  1135.08  1171.00  1230.35
                             1272.07  1287.14  1374.80  1399.76  1463.27
                             1496.33  1532.48  1561.75  1618.91  1669.42
                             1673.63  1704.78  1751.74  1780.25  1841.26
                             1899.55  1903.53  1923.49  1972.64  2020.92
                             2094.40  2125.21  2133.04  2152.94  2194.59
                             2658.29  4332.01  4373.94  4374.36  4379.40
                             4392.92  4443.44  4467.66  4476.66  4494.25
                             4498.54

 Zero-point correction=                           0.159379 (Hartree/Particle)
 Thermal correction to Energy=                    0.167600
 Thermal correction to Enthalpy=                  0.168544
 Thermal correction to Gibbs Free Energy=         0.126671
 Sum of electronic and zero-point Energies=           -423.045394
 Sum of electronic and thermal Energies=              -423.037173
 Sum of electronic and thermal Enthalpies=            -423.036229
 Sum of electronic and thermal Free Energies=         -423.078102

                     E (Thermal)             CV                S
                      KCal/Mol        Cal/Mol-Kelvin    Cal/Mol-Kelvin
 Total                  105.171             31.458             88.129
 Electronic               0.000              0.000              0.000
 Translational            0.889              2.981             40.409
 Rotational               0.889              2.981             28.412
 Vibrational            103.393             25.496             19.308
 Vibration     1          0.600              1.962              3.858
 Vibration     2          0.620              1.897              2.608
 Vibration     3          0.635              1.850              2.200
 Vibration     4          0.644              1.819              2.007
 Vibration     5          0.671              1.738              1.632
 Vibration     6          0.689              1.683              1.446
 Vibration     7          0.742              1.533              1.079
 Vibration     8          0.826              1.320              0.742
 Vibration     9          0.859              1.243              0.650
 Vibration    10          0.935              1.079              0.489

 Optimization completed.
    -- Stationary point found.
 Normal termination of Gaussian 09 at Mon Jan 27 19:54:31 2020.
