 Gaussian 09, Revision D.01,
 Gaussian 09:  ES64L-G09RevD.01 24-Apr-2013

 -----------------------------
 # b3lyp 6-31G(2df,p) opt Freq
 -----------------------------

 -----
 titel
 -----
 Symbolic Z-matrix:
 Charge =  0 Multiplicity = 1

 SCF Done:  E(RB3LYP) =  -423.163407640     A.U. after   14 cycles
 Optimization completed.
    -- Stationary point found.
 Normal termination of Gaussian 09 at Mon Jan 27 22:03:25 2020.

 ----------------------------------------------------------------------
 #N Geom=AllCheck Guess=TCheck SCRF=Check GenChk RB3LYP/6-31G(2df,p) Fr
 eq
 ----------------------------------------------------------------------

 Structure from the checkpoint file:  "/scratch/puck/g09_6c259c57-86e7-4c30-9353-9390206c6e80/Gau-181020.chk"
 -----
 titel
 -----
 Charge =  0 Multiplicity = 1

                         Standard orientation:
 ---------------------------------------------------------------------
 Center     Atomic      Atomic             Coordinates (Angstroms)
 Number     Number       Type             X           Y           Z
 ---------------------------------------------------------------------
      1          6           0       -2.778667    0.075238   -0.037094
      2          6           0       -1.282474    0.224410    0.103406
      3          6           0       -0.699384    1.424067    0.032357
      4          6           0        0.769089    1.753281    0.112458
      5          8           0        1.631562    0.832372   -0.528750
      6          6           0        1.966879   -0.295027    0.233137
      7          6           0        0.870932   -1.325418    0.394796
      8          8           0        0.132480   -1.698777   -0.760661
      9          6           0       -0.578017   -1.072250    0.333617
     10          1           0       -3.268805    1.040940   -0.180443
     11          1           0       -3.028631   -0.565469   -0.891839
     12          1           0       -3.214843   -0.402024    0.849756
     13          1           0       -1.344084    2.288946   -0.117066
     14          1           0        0.938311    2.712679   -0.388154
     15          1           0        1.077706    1.888456    1.165075
     16          1           0        2.807818   -0.770235   -0.285901
     17          1           0        2.319568   -0.007880    1.240211
     18          1           0        1.191668   -2.169250    1.015526
     19          1           0       -1.201193   -1.790726    0.872063
 ---------------------------------------------------------------------

 SCF Done:  E(RB3LYP) =  -423.163407640     A.U. after    1 cycles

 The electronic state is 1-A.
 Alpha  occ. eigenvalues --  -19.14635 -19.14229 -10.23862 -10.23643 -10.23469
 Alpha  occ. eigenvalues --  -10.23431 -10.19631 -10.18426 -10.18374  -1.06835
 Alpha  occ. eigenvalues --   -1.03505  -0.81269  -0.75414  -0.71331  -0.66712
 Alpha  occ. eigenvalues --   -0.64786  -0.58340  -0.53580  -0.51327  -0.49137
 Alpha  occ. eigenvalues --   -0.46776  -0.46659  -0.43303  -0.41905  -0.40402
 Alpha  occ. eigenvalues --   -0.39354  -0.37701  -0.37255  -0.36414  -0.32505
 Alpha  occ. eigenvalues --   -0.29763  -0.27053  -0.25999  -0.23865
 Alpha virt. eigenvalues --   -0.00018   0.08534   0.10566   0.10942   0.12028
 Alpha virt. eigenvalues --    0.12465   0.13650   0.15293   0.15738   0.16220
 Alpha virt. eigenvalues --    0.17603   0.18675   0.20088   0.21067   0.22058

 Mulliken charges:
               1
     1  C   -0.483401
     2  C    0.317292
     3  C   -0.154965
     4  C   -0.148431
     5  O   -0.220622
     6  C   -0.134252
     7  C    0.048430
     8  O   -0.249215
     9  C   -0.036699
    10  H    0.122041
    11  H    0.139410
    12  H    0.123864
    13  H    0.085815
    14  H    0.115940
    15  H    0.098360
    16  H    0.120417
    17  H    0.088502
    18  H    0.083499
    19  H    0.084013
 Sum of Mulliken charges =   0.00000

 Dipole moment (field-independent basis, Debye):
    X=             -0.5766    Y=              0.7135    Z=              2.3804  Tot=              2.5511
 Quadrupole moment (field-independent basis, Debye-Ang):
   XX=            -49.9975   YY=            -51.7415   ZZ=            -55.4438
   XY=             -1.6496   XZ=              2.2646   YZ=             -2.4504

  Exact polarizability:  91.848   1.307  86.782   2.382  -2.577  56.464
 Approx polarizability: 120.730   6.250 130.959   1.168  -0.611  93.878

                      1                      2                      3
                      A                      A                      A
 Frequencies --     50.0486               175.9491               220.6894
 Red. masses --      2.7371                 1.4492                 1.7726
 Frc consts  --      0.0040                 0.0264                 0.0509
 IR Inten    --      0.4794                 1.7817                 1.1254

                      4                      5                      6
                      A                      A                      A
 Frequencies --    228.8774               269.3656               314.8890
 Red. masses --      3.6192                 5.2169                 3.5460
 Frc consts  --      0.1117                 0.2230                 0.2072
 IR Inten    --      2.7920                 1.7269                 2.2484

                      7                      8                      9
                      A                      A                      A
 Frequencies --    359.0585               415.6911               454.7589
 Red. masses --      2.6468                 2.2388                 3.3046
 Frc consts  --      0.2010                 0.2279                 0.4027
 IR Inten    --      3.2259                 3.0967                 4.0664

                     10                     11                     12
                      A                      A                      A
 Frequencies --    568.1163               655.9121               713.6170
 Red. masses --      4.0661                 3.5372                 4.6352
 Frc consts  --      0.7732                 0.8966                 1.3908
 IR Inten    --      4.2339                 1.2287                24.4691

                     13                     14                     15
                      A                      A                      A
 Frequencies --    737.8485               830.6974               855.1229
 Red. masses --      4.1284                 1.6672                 2.7552
 Frc consts  --      1.3242                 0.6778                 1.1870
 IR Inten    --     11.1756                 5.6472                 0.6946

                     16                     17                     18
                      A                      A                      A
 Frequencies --    871.5134               926.8297               937.7116
 Red. masses --      2.6117                 3.2603                 3.2286
 Frc consts  --      1.1687                 1.6501                 1.6727
 IR Inten    --     26.5936                 9.2243                14.1565

                     19                     20                     21
                      A                      A                      A
 Frequencies --   1012.3187              1033.0576              1054.0724
 Red. masses --      1.7587                 1.9823                 1.7163
 Frc consts  --      1.0619                 1.2465                 1.1235
 IR Inten    --     19.3782                 9.5811                 4.2142

                     22                     23                     24
                      A                      A                      A
 Frequencies --   1071.3745              1093.8042              1123.7718
 Red. masses --      1.6291                 2.7786                 1.6168
 Frc consts  --      1.1017                 1.9586                 1.2030
 IR Inten    --      3.0164                 1.8771                24.0718

                     25                     26                     27
                      A                      A                      A
 Frequencies --   1155.3605              1179.3572              1203.8213
 Red. masses --      1.8295                 1.7546                 3.2084
 Frc consts  --      1.4389                 1.4379                 2.7395
 IR Inten    --      3.7360                 7.1443                72.5287

                     28                     29                     30
                      A                      A                      A
 Frequencies --   1274.5239              1305.5255              1338.6120
 Red. masses --      1.1893                 1.3224                 1.1619
 Frc consts  --      1.1383                 1.3279                 1.2267
 IR Inten    --     16.5630                13.2491                 7.2272

                     31                     32                     33
                      A                      A                      A
 Frequencies --   1365.3378              1398.5134              1410.4532
 Red. masses --      1.2752                 1.2831                 1.5488
 Frc consts  --      1.4006                 1.4786                 1.8153
 IR Inten    --      1.4791                 3.7543                 2.9123

                     34                     35                     36
                      A                      A                      A
 Frequencies --   1413.7978              1426.2948              1472.9066
 Red. masses --      1.3149                 1.3254                 1.0828
 Frc consts  --      1.5485                 1.5886                 1.3840
 IR Inten    --      4.2727                 9.2954                 1.0805

                     37                     38                     39
                      A                      A                      A
 Frequencies --   1478.4969              1485.1379              1492.3506
 Red. masses --      1.0531                 1.1042                 1.1701
 Frc consts  --      1.3563                 1.4349                 1.5354
 IR Inten    --      5.0670                 5.2719                 6.3952

                     40                     41                     42
                      A                      A                      A
 Frequencies --   1500.7107              1741.0133              2938.9058
 Red. masses --      2.4361                 7.2670                 1.0716
 Frc consts  --      3.2325                12.9781                 5.4534
 IR Inten    --     13.1814                 1.1842                36.0656

                     43                     44                     45
                      A                      A                      A
 Frequencies --   2948.7170              3018.8279              3046.6368
 Red. masses --      1.0696                 1.0386                 1.0859
 Frc consts  --      5.4795                 5.5768                 5.9386
 IR Inten    --     67.9369                22.2874                31.6056

                     46                     47                     48
                      A                      A                      A
 Frequencies --   3059.0028              3062.8350              3067.3072
 Red. masses --      1.0883                 1.0894                 1.0980
 Frc consts  --      6.0001                 6.0210                 6.0867
 IR Inten    --     44.7941                26.0833                11.5528

                     49                     50                     51
                      A                      A                      A
 Frequencies --   3075.0640              3118.7841              3135.9144
 Red. masses --      1.0875                 1.0992                 1.0884
 Frc consts  --      6.0589                 6.2994                 6.3063
 IR Inten    --     55.3251                12.5547                29.0229

 - Thermochemistry -
 -------------------
 Temperature   298.150 Kelvin.  Pressure   1.00000 Atm.
 Atom     1 has atomic number  6 and mass  12.00000

 Molecular mass:   126.06808 amu.
 Principal axes and moments of inertia in atomic units:
                           1         2         3
     Eigenvalues --   734.662231080.345911641.84170
           X            0.99977  -0.01542   0.01473
           Y            0.01567   0.99974  -0.01679
           Z           -0.01446   0.01702   0.99975
 This molecule is an asymmetric top.
 Rotational symmetry number  1.
 Warning -- assumption of classical behavior for rotation
           may cause significant error
 Rotational temperatures (Kelvin)      0.11790     0.08017     0.05275
 Rotational constants (GHZ):           2.45656     1.67052     1.09922
 Zero-point vibrational energy     419227.1 (Joules/Mol)
                                  100.19769 (Kcal/Mol)
 Warning -- explicit consideration of  10 degrees of freedom as
           vibrations may cause significant error
 Vibrational temperatures:     72.01   253.15   317.52   329.30   387.56
          (Kelvin)            453.05   516.60   598.09   654.30   817.39
                              943.71  1026.73  1061.60  1195.19  1230.33
                             1253.91  1333.50  1349.16  1456.50  1486.34
                             1516.57  1541.47  1573.74  1616.85  1662.30
                             1696.83  1732.03  1833.75  1878.36  1925.96
                             1964.41  2012.15  2029.33  2034.14  2052.12
                             2119.18  2127.22  2136.78  2147.16  2159.19
                             2504.93  4228.42  4242.54  4343.41  4383.43
                             4401.22  4406.73  4413.17  4424.33  4487.23
                             4511.88

 Zero-point correction=                           0.159675 (Hartree/Particle)
 Thermal correction to Energy=                    0.167886
 Thermal correction to Enthalpy=                  0.168831
 Thermal correction to Gibbs Free Energy=         0.126624
 Sum of electronic and zero-point Energies=           -423.003732
 Sum of electronic and thermal Energies=              -422.995521
 Sum of electronic and thermal Enthalpies=            -422.994577
 Sum of electronic and thermal Free Energies=         -423.036783

                     E (Thermal)             CV                S
                      KCal/Mol        Cal/Mol-Kelvin    Cal/Mol-Kelvin
 Total                  105.350             31.259             88.830
 Electronic               0.000              0.000              0.000
 Translational            0.889              2.981             40.409
 Rotational               0.889              2.981             28.657
 Vibrational            103.573             25.297             19.765
 Vibration     1          0.595              1.978              4.815
 Vibration     2          0.628              1.872              2.371
 Vibration     3          0.647              1.810              1.953
 Vibration     4          0.652              1.797              1.888
 Vibration     5          0.674              1.730              1.600
 Vibration     6          0.702              1.645              1.337
 Vibration     7          0.734              1.557              1.126
 Vibration     8          0.779              1.436              0.907
 Vibration     9          0.813              1.350              0.782
 Vibration    10          0.924              1.100              0.508

 Normal termination of Gaussian 09 at Mon Jan 27 22:47:42 2020.
