 Gaussian 09, Revision D.01,
 Gaussian 09:  ES64L-G09RevD.01 24-Apr-2013

 -----------------------------
 # b3lyp 6-31G(2df,p) opt Freq
 -----------------------------

 -----
 titel
 -----
 Symbolic Z-matrix:
 Charge =  0 Multiplicity = 1

 SCF Done:  E(RB3LYP) =  -423.176520916     A.U. after   13 cycles
 Optimization completed.
    -- Stationary point found.
 Normal termination of Gaussian 09 at Mon Jan 27 19:02:38 2020.

 ----------------------------------------------------------------------
 #N Geom=AllCheck Guess=TCheck SCRF=Check GenChk RB3LYP/6-31G(2df,p) Fr
 eq
 ----------------------------------------------------------------------

 Structure from the checkpoint file:  "/scratch/puck/g09_8b0dbffa-c721-4416-a220-b119bc5ed413/Gau-64739.chk"
 -----
 titel
 -----
 Charge =  0 Multiplicity = 1

                         Standard orientation:
 ---------------------------------------------------------------------
 Center     Atomic      Atomic             Coordinates (Angstroms)
 Number     Number       Type             X           Y           Z
 ---------------------------------------------------------------------
      1          8           0        1.743624    1.343567   -0.042019
      2          6           0        0.529257    0.649249   -0.067894
      3          6           0       -0.741653    1.475611   -0.315955
      4          6           0       -1.867902    0.568364    0.251309
      5          6           0       -1.136032   -0.766593    0.427620
      6          8           0       -0.694765   -1.163732   -0.903061
      7          6           0        0.653743   -0.679606   -0.885727
      8          6           0        1.243052   -1.347193    0.377199
      9          6           0        0.225156   -0.409510    1.068739
     10          1           0        1.685180    2.029852    0.631694
     11          1           0       -0.676905    2.435201    0.209707
     12          1           0       -0.874485    1.697066   -1.378408
     13          1           0       -2.240488    0.936906    1.214126
     14          1           0       -2.719473    0.465834   -0.424915
     15          1           0       -1.714993   -1.573172    0.881922
     16          1           0        1.095157   -0.729365   -1.880334
     17          1           0        1.112841   -2.427482    0.466633
     18          1           0        2.271129   -1.044910    0.575765
     19          1           0        0.237446   -0.170541    2.132705
 ---------------------------------------------------------------------

 SCF Done:  E(RB3LYP) =  -423.176520916     A.U. after    1 cycles

 The electronic state is 1-A.
 Alpha  occ. eigenvalues --  -19.14707 -19.13045 -10.23597 -10.22811 -10.22765
 Alpha  occ. eigenvalues --  -10.18741 -10.18107 -10.18045 -10.17637  -1.04712
 Alpha  occ. eigenvalues --   -1.02445  -0.82952  -0.78422  -0.71167  -0.64504
 Alpha  occ. eigenvalues --   -0.61187  -0.57007  -0.54235  -0.52601  -0.48208
 Alpha  occ. eigenvalues --   -0.47004  -0.45157  -0.42747  -0.39885  -0.38260
 Alpha  occ. eigenvalues --   -0.36754  -0.34909  -0.34744  -0.34387  -0.33654
 Alpha  occ. eigenvalues --   -0.32834  -0.29452  -0.25441  -0.23360
 Alpha virt. eigenvalues --    0.07007   0.09220   0.10554   0.12563   0.13919
 Alpha virt. eigenvalues --    0.14761   0.15494   0.16150   0.16631   0.17303
 Alpha virt. eigenvalues --    0.17936   0.18883   0.20622   0.21377   0.22309

 Mulliken charges:
               1
     1  O   -0.501164
     2  C    0.440140
     3  C   -0.296778
     4  C   -0.215568
     5  C    0.096263
     6  O   -0.293562
     7  C    0.067700
     8  C   -0.252343
     9  C   -0.150387
    10  H    0.278415
    11  H    0.085552
    12  H    0.114845
    13  H    0.091538
    14  H    0.108941
    15  H    0.072646
    16  H    0.080236
    17  H    0.094858
    18  H    0.114821
    19  H    0.063848
 Sum of Mulliken charges =   0.00000

 Dipole moment (field-independent basis, Debye):
    X=             -0.2512    Y=              1.3103    Z=              1.8909  Tot=              2.3142
 Quadrupole moment (field-independent basis, Debye-Ang):
   XX=            -54.5469   YY=            -51.6500   ZZ=            -52.1179
   XY=             -0.9676   XZ=             -0.1979   YZ=              0.7869

  Exact polarizability:  77.792  -2.363  75.329  -1.564  -0.259  67.245
 Approx polarizability: 110.036   1.411 107.380  -2.278   2.351 107.133

                      1                      2                      3
                      A                      A                      A
 Frequencies --    205.4736               285.8000               320.9405
 Red. masses --      1.9182                 1.7614                 1.7507
 Frc consts  --      0.0477                 0.0848                 0.1062
 IR Inten    --      1.0068                16.9927                42.9259

                      4                      5                      6
                      A                      A                      A
 Frequencies --    350.5513               380.7457               428.9906
 Red. masses --      2.6404                 2.9027                 3.0325
 Frc consts  --      0.1912                 0.2479                 0.3288
 IR Inten    --     40.5879                 2.1238                 3.8497

                      7                      8                      9
                      A                      A                      A
 Frequencies --    483.9003               573.8595               626.1024
 Red. masses --      2.5735                 5.2232                 4.6790
 Frc consts  --      0.3550                 1.0134                 1.0807
 IR Inten    --      5.3269                 1.8859                 1.6209

                     10                     11                     12
                      A                      A                      A
 Frequencies --    682.6431               716.2712               794.9374
 Red. masses --      3.9486                 3.5064                 1.5663
 Frc consts  --      1.0841                 1.0599                 0.5832
 IR Inten    --      0.2497                 0.7403                 1.6384

                     13                     14                     15
                      A                      A                      A
 Frequencies --    851.8292               866.2664               894.9771
 Red. masses --      2.6047                 3.1905                 2.2258
 Frc consts  --      1.1136                 1.4106                 1.0504
 IR Inten    --      1.5194                18.1057                 3.4141

                     16                     17                     18
                      A                      A                      A
 Frequencies --    914.7103               928.6859               955.9408
 Red. masses --      2.1558                 2.3265                 2.0825
 Frc consts  --      1.0628                 1.1822                 1.1212
 IR Inten    --     11.7849                 4.1185                14.9030

                     19                     20                     21
                      A                      A                      A
 Frequencies --    975.3956               999.0582              1011.8006
 Red. masses --      2.2570                 1.9592                 2.3175
 Frc consts  --      1.2652                 1.1522                 1.3979
 IR Inten    --     36.3138                 2.5527                 0.6420

                     22                     23                     24
                      A                      A                      A
 Frequencies --   1045.5105              1062.4030              1102.5902
 Red. masses --      1.8491                 2.8010                 1.4476
 Frc consts  --      1.1909                 1.8627                 1.0369
 IR Inten    --      8.8750                28.3963                 3.1658

                     25                     26                     27
                      A                      A                      A
 Frequencies --   1113.6255              1136.0623              1165.8784
 Red. masses --      1.4442                 2.3689                 1.3975
 Frc consts  --      1.0553                 1.8014                 1.1192
 IR Inten    --     15.1800                63.7550                 0.7357

                     28                     29                     30
                      A                      A                      A
 Frequencies --   1195.5626              1227.7218              1234.4886
 Red. masses --      1.9516                 1.6575                 1.4563
 Frc consts  --      1.6436                 1.4720                 1.3076
 IR Inten    --      2.7458                16.3168                 7.8484

                     31                     32                     33
                      A                      A                      A
 Frequencies --   1239.2583              1256.1442              1274.0903
 Red. masses --      1.8488                 1.3488                 1.5187
 Frc consts  --      1.6728                 1.2540                 1.4525
 IR Inten    --     63.3849                 3.5730                16.4510

                     34                     35                     36
                      A                      A                      A
 Frequencies --   1287.8489              1328.4484              1337.0146
 Red. masses --      1.7021                 1.7312                 1.6085
 Frc consts  --      1.6633                 1.8000                 1.6941
 IR Inten    --     11.0835                30.1464                 2.5250

                     37                     38                     39
                      A                      A                      A
 Frequencies --   1351.4024              1392.0469              1474.3820
 Red. masses --      1.4555                 1.7711                 1.0847
 Frc consts  --      1.5662                 2.0221                 1.3893
 IR Inten    --      4.2962                13.7607                 0.6434

                     40                     41                     42
                      A                      A                      A
 Frequencies --   1478.8922              1495.0648              3034.0963
 Red. masses --      1.1343                 1.1088                 1.0660
 Frc consts  --      1.4617                 1.4602                 5.7819
 IR Inten    --      4.0391                 2.6011                28.5377

                     43                     44                     45
                      A                      A                      A
 Frequencies --   3046.2607              3078.6248              3088.6490
 Red. masses --      1.0649                 1.0578                 1.0973
 Frc consts  --      5.8221                 5.9070                 6.1673
 IR Inten    --     43.0717                31.4230                 5.4665

                     46                     47                     48
                      A                      A                      A
 Frequencies --   3091.6623              3111.0824              3113.1934
 Red. masses --      1.0903                 1.0997                 1.0897
 Frc consts  --      6.1401                 6.2713                 6.2227
 IR Inten    --     44.8293                29.4819                47.3704

                     49                     50                     51
                      A                      A                      A
 Frequencies --   3133.8345              3152.2745              3797.3348
 Red. masses --      1.0921                 1.1079                 1.0659
 Frc consts  --      6.3192                 6.4863                 9.0559
 IR Inten    --     29.8060                14.6081                15.5715

 - Thermochemistry -
 -------------------
 Temperature   298.150 Kelvin.  Pressure   1.00000 Atm.
 Atom     1 has atomic number  8 and mass  15.99491

 Molecular mass:   126.06808 amu.
 Principal axes and moments of inertia in atomic units:
                           1         2         3
     Eigenvalues --   715.90260 828.634691147.86414
           X            0.97925  -0.20260  -0.00492
           Y            0.20248   0.97912  -0.01810
           Z            0.00848   0.01673   0.99982
 This molecule is an asymmetric top.
 Rotational symmetry number  1.
 Warning -- assumption of classical behavior for rotation
           may cause significant error
 Rotational temperatures (Kelvin)      0.12099     0.10453     0.07546
 Rotational constants (GHZ):           2.52093     2.17797     1.57226
 Zero-point vibrational energy     425238.5 (Joules/Mol)
                                  101.63444 (Kcal/Mol)
 Warning -- explicit consideration of   8 degrees of freedom as
           vibrations may cause significant error
 Vibrational temperatures:    295.63   411.20   461.76   504.36   547.81
          (Kelvin)            617.22   696.22   825.65   900.82   982.17
                             1030.55  1143.74  1225.59  1246.36  1287.67
                             1316.06  1336.17  1375.38  1403.37  1437.42
                             1455.75  1504.25  1528.56  1586.38  1602.26
                             1634.54  1677.44  1720.15  1766.42  1776.15
                             1783.01  1807.31  1833.13  1852.93  1911.34
                             1923.66  1944.36  2002.84  2121.30  2127.79
                             2151.06  4365.38  4382.88  4429.45  4443.87
                             4448.21  4476.15  4479.19  4508.88  4535.41
                             5463.51

 Zero-point correction=                           0.161965 (Hartree/Particle)
 Thermal correction to Energy=                    0.168754
 Thermal correction to Enthalpy=                  0.169698
 Thermal correction to Gibbs Free Energy=         0.131371
 Sum of electronic and zero-point Energies=           -423.014556
 Sum of electronic and thermal Energies=              -423.007767
 Sum of electronic and thermal Enthalpies=            -423.006823
 Sum of electronic and thermal Free Energies=         -423.045150

                     E (Thermal)             CV                S
                      KCal/Mol        Cal/Mol-Kelvin    Cal/Mol-Kelvin
 Total                  105.895             29.086             80.666
 Electronic               0.000              0.000              0.000
 Translational            0.889              2.981             40.409
 Rotational               0.889              2.981             28.012
 Vibrational            104.117             23.124             12.245
 Vibration     1          0.640              1.832              2.084
 Vibration     2          0.684              1.700              1.499
 Vibration     3          0.706              1.633              1.305
 Vibration     4          0.727              1.574              1.164
 Vibration     5          0.750              1.511              1.036
 Vibration     6          0.790              1.407              0.862
 Vibration     7          0.840              1.286              0.700
 Vibration     8          0.930              1.088              0.497

 Normal termination of Gaussian 09 at Mon Jan 27 19:48:15 2020.
