 Gaussian 09, Revision D.01,
 Gaussian 09:  ES64L-G09RevD.01 24-Apr-2013

 -----------------------------
 # b3lyp 6-31G(2df,p) opt Freq
 -----------------------------

 -----
 titel
 -----
 Symbolic Z-matrix:
 Charge =  0 Multiplicity = 1

 SCF Done:  E(RB3LYP) =  -423.114673763     A.U. after   13 cycles
 Optimization completed.
    -- Stationary point found.
 Normal termination of Gaussian 09 at Mon Jan 27 16:30:03 2020.

 ----------------------------------------------------------------------
 #N Geom=AllCheck Guess=TCheck SCRF=Check GenChk RB3LYP/6-31G(2df,p) Fr
 eq
 ----------------------------------------------------------------------

 Structure from the checkpoint file:  "/scratch/puck/g09_d96fe041-b3c1-4148-8eec-e3ec808f44d9/Gau-37217.chk"
 -----
 titel
 -----
 Charge =  0 Multiplicity = 1

                         Standard orientation:
 ---------------------------------------------------------------------
 Center     Atomic      Atomic             Coordinates (Angstroms)
 Number     Number       Type             X           Y           Z
 ---------------------------------------------------------------------
      1          6           0       -0.608475    2.104802   -0.387472
      2          6           0       -0.211854    0.675699   -0.013846
      3          6           0       -1.064477    0.109209    1.193751
      4          6           0       -1.763025   -0.826781    0.199599
      5          8           0       -0.754942   -1.659767   -0.386709
      6          6           0       -0.939792   -0.347070   -0.919360
      7          6           0        1.299375    0.571279    0.121506
      8          6           0        2.122349   -0.435016   -0.569500
      9          8           0        1.840733   -0.545196    0.824301
     10          1           0       -0.122857    2.417688   -1.319245
     11          1           0       -1.690489    2.188498   -0.530116
     12          1           0       -0.315558    2.810316    0.397207
     13          1           0       -0.498753   -0.402666    1.973165
     14          1           0       -1.721269    0.864312    1.632588
     15          1           0       -2.773980   -1.216046    0.214149
     16          1           0       -1.150595   -0.262882   -1.980897
     17          1           0        1.786541    1.514707    0.380935
     18          1           0        1.639270   -1.182604   -1.193837
     19          1           0        3.156751   -0.204344   -0.822745
 ---------------------------------------------------------------------

 SCF Done:  E(RB3LYP) =  -423.114673763     A.U. after    1 cycles

 The electronic state is 1-A.
 Alpha  occ. eigenvalues --  -19.15022 -19.14432 -10.23703 -10.23508 -10.23363
 Alpha  occ. eigenvalues --  -10.22719 -10.20672 -10.18713 -10.18665  -1.07840
 Alpha  occ. eigenvalues --   -1.06429  -0.82522  -0.72510  -0.67171  -0.64803
 Alpha  occ. eigenvalues --   -0.64189  -0.60137  -0.54100  -0.51618  -0.49510
 Alpha  occ. eigenvalues --   -0.47168  -0.45312  -0.42339  -0.41616  -0.40439
 Alpha  occ. eigenvalues --   -0.39149  -0.37368  -0.35455  -0.34493  -0.32823
 Alpha  occ. eigenvalues --   -0.30878  -0.28216  -0.26863  -0.24318
 Alpha virt. eigenvalues --    0.08290   0.09309   0.09703   0.10976   0.12202
 Alpha virt. eigenvalues --    0.12227   0.13076   0.14547   0.14734   0.16327
 Alpha virt. eigenvalues --    0.16944   0.18019   0.18435   0.18561   0.21152

 Mulliken charges:
               1
     1  C   -0.468949
     2  C    0.283903
     3  C   -0.305855
     4  C    0.035493
     5  O   -0.242191
     6  C   -0.034409
     7  C    0.026120
     8  C   -0.184287
     9  O   -0.229501
    10  H    0.120470
    11  H    0.119319
    12  H    0.124667
    13  H    0.130900
    14  H    0.102696
    15  H    0.104806
    16  H    0.094875
    17  H    0.081686
    18  H    0.131247
    19  H    0.109010
 Sum of Mulliken charges =   0.00000

 Dipole moment (field-independent basis, Debye):
    X=             -1.2062    Y=              2.3737    Z=             -1.2432  Tot=              2.9385
 Quadrupole moment (field-independent basis, Debye-Ang):
   XX=            -50.0634   YY=            -55.8805   ZZ=            -52.3487
   XY=              1.2504   XZ=             -3.4442   YZ=              0.8164

  Exact polarizability:  79.895   0.751  73.588  -5.359   1.889  68.725
 Approx polarizability: 107.959  -1.731 110.733  -8.242   1.259 109.260

                      1                      2                      3
                      A                      A                      A
 Frequencies --     31.5655               147.8459               209.8671
 Red. masses --      3.3980                 5.6225                 2.6157
 Frc consts  --      0.0020                 0.0724                 0.0679
 IR Inten    --      2.9231                 0.5387                 4.3257

                      4                      5                      6
                      A                      A                      A
 Frequencies --    250.6174               261.9665               292.1267
 Red. masses --      1.5091                 1.6908                 2.6501
 Frc consts  --      0.0558                 0.0684                 0.1332
 IR Inten    --      0.2262                 1.9642                 0.8657

                      7                      8                      9
                      A                      A                      A
 Frequencies --    348.8936               437.6755               487.0332
 Red. masses --      3.2655                 2.5849                 3.2548
 Frc consts  --      0.2342                 0.2917                 0.4549
 IR Inten    --      2.1369                 4.1559                 7.6424

                     10                     11                     12
                      A                      A                      A
 Frequencies --    548.6637               647.7285               790.0132
 Red. masses --      4.3800                 2.9369                 4.2084
 Frc consts  --      0.7769                 0.7260                 1.5475
 IR Inten    --      2.4072                 3.9743                 6.4178

                     13                     14                     15
                      A                      A                      A
 Frequencies --    829.7896               850.6595               864.4591
 Red. masses --      2.7640                 2.6381                 2.8130
 Frc consts  --      1.1213                 1.1247                 1.2385
 IR Inten    --      5.6327                 6.8888                27.8834

                     16                     17                     18
                      A                      A                      A
 Frequencies --    866.7726               892.9276               928.5166
 Red. masses --      2.4977                 2.0946                 2.3607
 Frc consts  --      1.1056                 0.9840                 1.1992
 IR Inten    --      6.7604                 5.6867                 9.6718

                     19                     20                     21
                      A                      A                      A
 Frequencies --    953.0810               969.8194               991.4116
 Red. masses --      2.0393                 2.0156                 2.0527
 Frc consts  --      1.0914                 1.1170                 1.1888
 IR Inten    --     19.2244                 1.0047                19.8977

                     22                     23                     24
                      A                      A                      A
 Frequencies --   1024.9453              1049.5134              1093.3718
 Red. masses --      1.4587                 1.3616                 1.2101
 Frc consts  --      0.9028                 0.8836                 0.8523
 IR Inten    --      4.2463                 0.6906                 1.2618

                     25                     26                     27
                      A                      A                      A
 Frequencies --   1120.7243              1155.1427              1165.2179
 Red. masses --      1.8723                 2.4308                 1.3424
 Frc consts  --      1.3855                 1.9110                 1.0738
 IR Inten    --      0.7749                 1.3785                 0.2308

                     28                     29                     30
                      A                      A                      A
 Frequencies --   1177.5512              1185.5263              1222.9376
 Red. masses --      1.4535                 1.5304                 1.4959
 Frc consts  --      1.1874                 1.2673                 1.3181
 IR Inten    --      2.1302                 0.5552                 5.8626

                     31                     32                     33
                      A                      A                      A
 Frequencies --   1243.3025              1260.8915              1285.3976
 Red. masses --      1.5699                 1.6853                 2.0973
 Frc consts  --      1.4298                 1.5787                 2.0417
 IR Inten    --     10.0153                 4.2555                 1.0644

                     34                     35                     36
                      A                      A                      A
 Frequencies --   1324.9143              1382.1618              1407.8944
 Red. masses --      2.0123                 3.2420                 1.3197
 Frc consts  --      2.0812                 3.6491                 1.5413
 IR Inten    --      5.5065                10.7605                 3.0762

                     37                     38                     39
                      A                      A                      A
 Frequencies --   1434.3080              1467.4383              1494.0332
 Red. masses --      1.6602                 1.1184                 1.0542
 Frc consts  --      2.0123                 1.4190                 1.3864
 IR Inten    --     10.8524                 4.0344                 2.7991

                     40                     41                     42
                      A                      A                      A
 Frequencies --   1497.4658              1522.8861              3025.5858
 Red. masses --      1.0560                 1.3222                 1.0354
 Frc consts  --      1.3952                 1.8067                 5.5845
 IR Inten    --      4.3835                 3.0039                19.2851

                     43                     44                     45
                      A                      A                      A
 Frequencies --   3068.6963              3072.7767              3088.4777
 Red. masses --      1.0818                 1.0616                 1.0550
 Frc consts  --      6.0021                 5.9059                 5.9289
 IR Inten    --     26.7240                27.4309                32.6984

                     46                     47                     48
                      A                      A                      A
 Frequencies --   3092.1739              3103.4054              3140.1241
 Red. masses --      1.1001                 1.1015                 1.1073
 Frc consts  --      6.1973                 6.2506                 6.4329
 IR Inten    --     24.0690                24.1583                 9.3074

                     49                     50                     51
                      A                      A                      A
 Frequencies --   3164.2022              3183.5077              3193.9767
 Red. masses --      1.0898                 1.1172                 1.0980
 Frc consts  --      6.4288                 6.6710                 6.5994
 IR Inten    --     17.8684                20.1558                22.4230

 - Thermochemistry -
 -------------------
 Temperature   298.150 Kelvin.  Pressure   1.00000 Atm.
 Atom     1 has atomic number  6 and mass  12.00000

 Molecular mass:   126.06808 amu.
 Principal axes and moments of inertia in atomic units:
                           1         2         3
     Eigenvalues --   748.946351061.858081369.63025
           X            0.99920  -0.02796  -0.02867
           Y            0.02791   0.99961  -0.00221
           Z            0.02872   0.00141   0.99959
 This molecule is an asymmetric top.
 Rotational symmetry number  1.
 Warning -- assumption of classical behavior for rotation
           may cause significant error
 Rotational temperatures (Kelvin)      0.11565     0.08157     0.06324
 Rotational constants (GHZ):           2.40971     1.69961     1.31768
 Zero-point vibrational energy     414206.9 (Joules/Mol)
                                   98.99782 (Kcal/Mol)
 Warning -- explicit consideration of  10 degrees of freedom as
           vibrations may cause significant error
 Vibrational temperatures:     45.42   212.72   301.95   360.58   376.91
          (Kelvin)            420.30   501.98   629.72   700.73   789.40
                              931.94  1136.65  1193.88  1223.91  1243.76
                             1247.09  1284.72  1335.93  1371.27  1395.35
                             1426.42  1474.67  1510.01  1573.12  1612.47
                             1661.99  1676.49  1694.23  1705.71  1759.53
                             1788.83  1814.14  1849.40  1906.25  1988.62
                             2025.64  2063.65  2111.31  2149.58  2154.52
                             2191.09  4353.14  4415.16  4421.03  4443.63
                             4448.94  4465.10  4517.93  4552.58  4580.35
                             4595.41

 Zero-point correction=                           0.157763 (Hartree/Particle)
 Thermal correction to Energy=                    0.166106
 Thermal correction to Enthalpy=                  0.167050
 Thermal correction to Gibbs Free Energy=         0.124281
 Sum of electronic and zero-point Energies=           -422.956911
 Sum of electronic and thermal Energies=              -422.948568
 Sum of electronic and thermal Enthalpies=            -422.947624
 Sum of electronic and thermal Free Energies=         -422.990393

                     E (Thermal)             CV                S
                      KCal/Mol        Cal/Mol-Kelvin    Cal/Mol-Kelvin
 Total                  104.233             31.897             90.016
 Electronic               0.000              0.000              0.000
 Translational            0.889              2.981             40.409
 Rotational               0.889              2.981             28.479
 Vibrational            102.455             25.935             21.129
 Vibration     1          0.594              1.983              5.729
 Vibration     2          0.617              1.905              2.700
 Vibration     3          0.642              1.826              2.045
 Vibration     4          0.663              1.762              1.726
 Vibration     5          0.669              1.742              1.649
 Vibration     6          0.688              1.688              1.462
 Vibration     7          0.726              1.578              1.171
 Vibration     8          0.798              1.388              0.834
 Vibration     9          0.843              1.279              0.691
 Vibration    10          0.904              1.143              0.547

 Optimization completed.
    -- Stationary point found.
 Normal termination of Gaussian 09 at Mon Jan 27 17:24:26 2020.
