 Gaussian 09, Revision D.01,
 Gaussian 09:  ES64L-G09RevD.01 24-Apr-2013

 -----------------------------
 # b3lyp 6-31G(2df,p) opt Freq
 -----------------------------

 -----
 titel
 -----
 Symbolic Z-matrix:
 Charge =  0 Multiplicity = 1

 SCF Done:  E(RB3LYP) =  -423.107431667     A.U. after   13 cycles
 Optimization completed.
    -- Stationary point found.
 Normal termination of Gaussian 09 at Tue Jan 28 09:53:33 2020.

 ----------------------------------------------------------------------
 #N Geom=AllCheck Guess=TCheck SCRF=Check GenChk RB3LYP/6-31G(2df,p) Fr
 eq
 ----------------------------------------------------------------------

 Structure from the checkpoint file:  "/scratch/puck/g09_c84bfcc1-74e7-4cbe-b399-c38c9569b253/Gau-18849.chk"
 -----
 titel
 -----
 Charge =  0 Multiplicity = 1

                         Standard orientation:
 ---------------------------------------------------------------------
 Center     Atomic      Atomic             Coordinates (Angstroms)
 Number     Number       Type             X           Y           Z
 ---------------------------------------------------------------------
      1          6           0        2.923265   -0.220200   -0.438157
      2          8           0        2.006535   -0.219923    0.646619
      3          6           0        0.698489   -0.102006    0.255617
      4          6           0       -0.212934   -1.149086   -0.390549
      5          6           0       -1.358673   -0.163932   -0.013354
      6          6           0       -2.797504   -0.561278    0.086631
      7          8           0       -1.111869    0.983698   -0.895069
      8          6           0        0.030928    1.251045   -0.087302
      9          6           0       -0.424709    0.465289    1.099507
     10          1           0        2.840362    0.699986   -1.032003
     11          1           0        3.924479   -0.285662   -0.007448
     12          1           0        2.761898   -1.080758   -1.101541
     13          1           0       -0.109811   -1.381960   -1.455105
     14          1           0       -0.250824   -2.061572    0.210490
     15          1           0       -3.407019    0.278007    0.432973
     16          1           0       -3.168696   -0.873990   -0.895385
     17          1           0       -2.918804   -1.396490    0.782757
     18          1           0        0.550856    2.195825   -0.175533
     19          1           0       -0.532939    0.677426    2.154042
 ---------------------------------------------------------------------

 SCF Done:  E(RB3LYP) =  -423.107431667     A.U. after    1 cycles

 The electronic state is 1-A.
 Alpha  occ. eigenvalues --  -19.15362 -19.13009 -10.24903 -10.23968 -10.23316
 Alpha  occ. eigenvalues --  -10.22811 -10.18758 -10.18286 -10.18254  -1.06265
 Alpha  occ. eigenvalues --   -1.04011  -0.85049  -0.76205  -0.69956  -0.69739
 Alpha  occ. eigenvalues --   -0.61650  -0.55364  -0.53922  -0.50646  -0.48139
 Alpha  occ. eigenvalues --   -0.46307  -0.44923  -0.44352  -0.42517  -0.41255
 Alpha  occ. eigenvalues --   -0.40311  -0.37353  -0.36935  -0.34905  -0.32511
 Alpha  occ. eigenvalues --   -0.29462  -0.27648  -0.25675  -0.21415
 Alpha virt. eigenvalues --    0.08230   0.09905   0.10579   0.11588   0.12592
 Alpha virt. eigenvalues --    0.13717   0.14451   0.14968   0.15908   0.16305
 Alpha virt. eigenvalues --    0.17374   0.18083   0.18993   0.19925   0.20985

 Mulliken charges:
               1
     1  C   -0.258296
     2  O   -0.280772
     3  C    0.387707
     4  C   -0.341402
     5  C    0.418737
     6  C   -0.501290
     7  O   -0.328058
     8  C    0.018423
     9  C   -0.281062
    10  H    0.114454
    11  H    0.128948
    12  H    0.117419
    13  H    0.096823
    14  H    0.105162
    15  H    0.132681
    16  H    0.133558
    17  H    0.124061
    18  H    0.108795
    19  H    0.104114
 Sum of Mulliken charges =   0.00000

 Dipole moment (field-independent basis, Debye):
    X=              0.3735    Y=             -0.7228    Z=              0.2643  Tot=              0.8555
 Quadrupole moment (field-independent basis, Debye-Ang):
   XX=            -49.5508   YY=            -52.3292   ZZ=            -54.4336
   XY=              3.0112   XZ=             -4.7510   YZ=              1.9635

  Exact polarizability:  90.401   2.284  70.407  -2.821   1.773  65.254
 Approx polarizability: 113.919   0.710 106.294  -0.930  -1.277 104.776

                      1                      2                      3
                      A                      A                      A
 Frequencies --     81.7370               156.1914               166.3875
 Red. masses --      2.7254                 3.0015                 1.0889
 Frc consts  --      0.0107                 0.0431                 0.0178
 IR Inten    --      3.0552                 2.3050                 0.0527

                      4                      5                      6
                      A                      A                      A
 Frequencies --    196.0923               265.7459               271.2721
 Red. masses --      1.0453                 2.7793                 2.7436
 Frc consts  --      0.0237                 0.1156                 0.1190
 IR Inten    --      0.0595                 1.2645                 1.0290

                      7                      8                      9
                      A                      A                      A
 Frequencies --    387.5261               419.7136               471.8334
 Red. masses --      3.8648                 2.6303                 2.3605
 Frc consts  --      0.3420                 0.2730                 0.3096
 IR Inten    --      9.9593                 2.5662                 1.0574

                     10                     11                     12
                      A                      A                      A
 Frequencies --    524.1389               598.1508               649.5276
 Red. masses --      5.1194                 3.5103                 3.0961
 Frc consts  --      0.8286                 0.7400                 0.7696
 IR Inten    --      2.2226                 5.2542                 3.6638

                     13                     14                     15
                      A                      A                      A
 Frequencies --    756.3052               781.7282               819.4015
 Red. masses --      2.6781                 4.4212                 2.4768
 Frc consts  --      0.9025                 1.5918                 0.9798
 IR Inten    --      1.9653                 8.6369                17.0467

                     16                     17                     18
                      A                      A                      A
 Frequencies --    829.4309               870.5176               940.0107
 Red. masses --      1.5010                 2.6061                 2.3503
 Frc consts  --      0.6084                 1.1636                 1.2236
 IR Inten    --     14.3838                19.6716                 9.3866

                     19                     20                     21
                      A                      A                      A
 Frequencies --    961.8080               984.2861              1019.5118
 Red. masses --      1.5132                 1.9540                 2.4382
 Frc consts  --      0.8247                 1.1154                 1.4932
 IR Inten    --      5.4615                 3.2525                 4.5215

                     22                     23                     24
                      A                      A                      A
 Frequencies --   1032.1873              1058.4966              1101.4582
 Red. masses --      3.1706                 4.2640                 2.0564
 Frc consts  --      1.9902                 2.8148                 1.4699
 IR Inten    --     46.9135                47.3084                11.6693

                     25                     26                     27
                      A                      A                      A
 Frequencies --   1115.6123              1141.0848              1150.7857
 Red. masses --      1.9864                 2.0408                 1.5763
 Frc consts  --      1.4566                 1.5656                 1.2299
 IR Inten    --     14.4031                 9.8184                 2.1475

                     28                     29                     30
                      A                      A                      A
 Frequencies --   1177.7494              1182.0616              1218.7028
 Red. masses --      1.3889                 1.4353                 1.5496
 Frc consts  --      1.1351                 1.1816                 1.3560
 IR Inten    --     12.8357                12.9365                 1.6102

                     31                     32                     33
                      A                      A                      A
 Frequencies --   1238.8235              1304.4696              1343.3533
 Red. masses --      2.3076                 3.5080                 2.5129
 Frc consts  --      2.0866                 3.5170                 2.6718
 IR Inten    --     33.2559                84.8137                44.1596

                     34                     35                     36
                      A                      A                      A
 Frequencies --   1395.8518              1418.3894              1477.0311
 Red. masses --      2.4484                 1.7140                 1.0731
 Frc consts  --      2.8106                 2.0317                 1.3793
 IR Inten    --     96.3871                 4.6947                 2.0232

                     37                     38                     39
                      A                      A                      A
 Frequencies --   1477.9906              1486.2902              1489.1771
 Red. masses --      1.1100                 1.0547                 1.0501
 Frc consts  --      1.4286                 1.3728                 1.3720
 IR Inten    --      1.1727                 4.8910                 4.4033

                     40                     41                     42
                      A                      A                      A
 Frequencies --   1500.1182              1506.1596              2998.9155
 Red. masses --      1.3738                 1.0792                 1.0342
 Frc consts  --      1.8215                 1.4424                 5.4798
 IR Inten    --     19.3918                 3.4153                48.2662

                     43                     44                     45
                      A                      A                      A
 Frequencies --   3038.0024              3046.1042              3054.9468
 Red. masses --      1.0361                 1.0576                 1.1024
 Frc consts  --      5.6342                 5.7816                 6.0620
 IR Inten    --     15.8073                23.1381                52.2785

                     46                     47                     48
                      A                      A                      A
 Frequencies --   3108.2258              3112.4198              3120.4592
 Red. masses --      1.1014                 1.1066                 1.1020
 Frc consts  --      6.2693                 6.3159                 6.3223
 IR Inten    --      4.0683                25.2868                15.7522

                     49                     50                     51
                      A                      A                      A
 Frequencies --   3126.6049              3204.1977              3217.1791
 Red. masses --      1.0993                 1.0903                 1.1024
 Frc consts  --      6.3313                 6.5956                 6.7224
 IR Inten    --     28.7810                10.5030                 7.9891

 - Thermochemistry -
 -------------------
 Temperature   298.150 Kelvin.  Pressure   1.00000 Atm.
 Atom     1 has atomic number  6 and mass  12.00000

 Molecular mass:   126.06808 amu.
 Principal axes and moments of inertia in atomic units:
                           1         2         3
     Eigenvalues --   442.479171512.151161601.91143
           X            0.99953   0.02043  -0.02264
           Y           -0.01777   0.99354   0.11206
           Z            0.02478  -0.11160   0.99344
 This molecule is an asymmetric top.
 Rotational symmetry number  1.
 Warning -- assumption of classical behavior for rotation
           may cause significant error
 Rotational temperatures (Kelvin)      0.19575     0.05728     0.05407
 Rotational constants (GHZ):           4.07870     1.19349     1.12662
 Zero-point vibrational energy     412676.7 (Joules/Mol)
                                   98.63211 (Kcal/Mol)
 Warning -- explicit consideration of  11 degrees of freedom as
           vibrations may cause significant error
 Vibrational temperatures:    117.60   224.72   239.39   282.13   382.35
          (Kelvin)            390.30   557.56   603.87   678.86   754.12
                              860.60   934.52  1088.15  1124.73  1178.93
                             1193.36  1252.48  1352.46  1383.83  1416.17
                             1466.85  1485.09  1522.94  1584.75  1605.12
                             1641.76  1655.72  1694.52  1700.72  1753.44
                             1782.39  1876.84  1932.78  2008.32  2040.74
                             2125.12  2126.50  2138.44  2142.59  2158.33
                             2167.03  4314.77  4371.00  4382.66  4395.38
                             4472.04  4478.07  4489.64  4498.48  4610.12
                             4628.80

 Zero-point correction=                           0.157180 (Hartree/Particle)
 Thermal correction to Energy=                    0.165706
 Thermal correction to Enthalpy=                  0.166650
 Thermal correction to Gibbs Free Energy=         0.124197
 Sum of electronic and zero-point Energies=           -422.950251
 Sum of electronic and thermal Energies=              -422.941726
 Sum of electronic and thermal Enthalpies=            -422.940781
 Sum of electronic and thermal Free Energies=         -422.983235

                     E (Thermal)             CV                S
                      KCal/Mol        Cal/Mol-Kelvin    Cal/Mol-Kelvin
 Total                  103.982             32.650             89.351
 Electronic               0.000              0.000              0.000
 Translational            0.889              2.981             40.409
 Rotational               0.889              2.981             28.463
 Vibrational            102.205             26.689             20.480
 Vibration     1          0.600              1.962              3.849
 Vibration     2          0.620              1.896              2.595
 Vibration     3          0.624              1.884              2.476
 Vibration     4          0.636              1.845              2.169
 Vibration     5          0.672              1.736              1.624
 Vibration     6          0.675              1.726              1.588
 Vibration     7          0.756              1.497              1.010
 Vibration     8          0.782              1.427              0.893
 Vibration     9          0.829              1.313              0.732
 Vibration    10          0.879              1.197              0.600
 Vibration    11          0.956              1.036              0.453

 Optimization completed.
    -- Stationary point found.
 Normal termination of Gaussian 09 at Tue Jan 28 10:35:23 2020.
