 Gaussian 09, Revision D.01,
 Gaussian 09:  ES64L-G09RevD.01 24-Apr-2013

 -----------------------------
 # b3lyp 6-31G(2df,p) opt Freq
 -----------------------------

 -----
 titel
 -----
 Symbolic Z-matrix:
 Charge =  0 Multiplicity = 1

 SCF Done:  E(RB3LYP) =  -423.112586322     A.U. after   13 cycles
 Optimization completed.
    -- Stationary point found.
 Normal termination of Gaussian 09 at Tue Jan 28 04:00:20 2020.

 ----------------------------------------------------------------------
 #N Geom=AllCheck Guess=TCheck SCRF=Check GenChk RB3LYP/6-31G(2df,p) Fr
 eq
 ----------------------------------------------------------------------

 Structure from the checkpoint file:  "/scratch/puck/g09_0708a83b-d586-490f-ae72-127c94bfbf6e/Gau-92483.chk"
 -----
 titel
 -----
 Charge =  0 Multiplicity = 1

                         Standard orientation:
 ---------------------------------------------------------------------
 Center     Atomic      Atomic             Coordinates (Angstroms)
 Number     Number       Type             X           Y           Z
 ---------------------------------------------------------------------
      1          6           0       -2.282636   -1.252901   -0.222753
      2          6           0       -1.534489   -0.138858    0.484249
      3          8           0       -1.852662    1.169388   -0.054659
      4          6           0       -0.461452    1.482070   -0.301739
      5          6           0       -0.052966    0.093245    0.166891
      6          6           0        1.120351   -0.397959    0.973466
      7          6           0        2.398476    0.214483    0.408786
      8          8           0        2.051588   -0.201127   -0.942795
      9          6           0        0.892184   -0.878117   -0.448100
     10          1           0       -2.005078   -2.230021    0.188712
     11          1           0       -3.360393   -1.122540   -0.084348
     12          1           0       -2.068736   -1.246587   -1.295170
     13          1           0       -1.745083   -0.167408    1.564161
     14          1           0       -0.266156    1.711364   -1.355428
     15          1           0       -0.113508    2.316571    0.321815
     16          1           0        1.014598   -0.906753    1.923161
     17          1           0        2.526816    1.300218    0.492251
     18          1           0        3.311105   -0.293022    0.739500
     19          1           0        0.638216   -1.839694   -0.879827
 ---------------------------------------------------------------------

 SCF Done:  E(RB3LYP) =  -423.112586322     A.U. after    1 cycles

 The electronic state is 1-A.
 Alpha  occ. eigenvalues --  -19.14355 -19.13011 -10.24409 -10.24156 -10.23906
 Alpha  occ. eigenvalues --  -10.22738 -10.20249 -10.20217 -10.17961  -1.05708
 Alpha  occ. eigenvalues --   -1.03405  -0.84043  -0.75237  -0.70888  -0.68008
 Alpha  occ. eigenvalues --   -0.63594  -0.55946  -0.54668  -0.51671  -0.49434
 Alpha  occ. eigenvalues --   -0.47140  -0.46937  -0.43995  -0.42254  -0.40911
 Alpha  occ. eigenvalues --   -0.38730  -0.37624  -0.34820  -0.34268  -0.33065
 Alpha  occ. eigenvalues --   -0.31368  -0.27233  -0.25010  -0.23489
 Alpha virt. eigenvalues --    0.06763   0.08453   0.09091   0.09721   0.11260
 Alpha virt. eigenvalues --    0.12457   0.13281   0.15356   0.15787   0.16196
 Alpha virt. eigenvalues --    0.16831   0.18174   0.18925   0.20795   0.20947

 Mulliken charges:
               1
     1  C   -0.403052
     2  C    0.074075
     3  O   -0.298915
     4  C   -0.144257
     5  C    0.268931
     6  C   -0.225746
     7  C   -0.091191
     8  O   -0.287909
     9  C    0.020212
    10  H    0.113859
    11  H    0.129655
    12  H    0.124003
    13  H    0.074116
    14  H    0.115242
    15  H    0.098780
    16  H    0.101485
    17  H    0.109272
    18  H    0.113909
    19  H    0.107532
 Sum of Mulliken charges =   0.00000

 Dipole moment (field-independent basis, Debye):
    X=              0.6724    Y=             -1.2807    Z=              1.6188  Tot=              2.1709
 Quadrupole moment (field-independent basis, Debye-Ang):
   XX=            -56.5926   YY=            -51.9288   ZZ=            -53.3006
   XY=              4.3653   XZ=              3.3027   YZ=             -0.2849

  Exact polarizability:  86.979   4.438  72.867   1.952  -0.448  65.645
 Approx polarizability: 113.841   2.526 105.033   0.421   0.207 105.062

                      1                      2                      3
                      A                      A                      A
 Frequencies --     82.0242               141.6226               158.5506
 Red. masses --      3.2388                 3.4808                 3.0093
 Frc consts  --      0.0128                 0.0411                 0.0446
 IR Inten    --      1.9373                 1.4498                 1.0125

                      4                      5                      6
                      A                      A                      A
 Frequencies --    226.2645               233.1995               293.2562
 Red. masses --      2.4801                 1.2171                 2.5109
 Frc consts  --      0.0748                 0.0390                 0.1272
 IR Inten    --      4.1496                 0.4794                 0.3685

                      7                      8                      9
                      A                      A                      A
 Frequencies --    418.4763               462.2434               499.5167
 Red. masses --      2.5515                 3.4625                 2.6936
 Frc consts  --      0.2633                 0.4359                 0.3960
 IR Inten    --      5.6514                 1.5031                 2.8156

                     10                     11                     12
                      A                      A                      A
 Frequencies --    599.5222               760.5739               782.4685
 Red. masses --      3.9557                 2.7322                 2.6723
 Frc consts  --      0.8377                 0.9312                 0.9640
 IR Inten    --      4.1060                 7.1180                 4.4226

                     13                     14                     15
                      A                      A                      A
 Frequencies --    825.8228               882.2171               901.8928
 Red. masses --      1.4894                 2.7828                 2.8486
 Frc consts  --      0.5985                 1.2761                 1.3652
 IR Inten    --      2.8899                20.9685                 2.7181

                     16                     17                     18
                      A                      A                      A
 Frequencies --    941.2831               960.2798               990.6631
 Red. masses --      3.1489                 1.6008                 2.2471
 Frc consts  --      1.6438                 0.8697                 1.2993
 IR Inten    --     23.5339                14.0557                57.2497

                     19                     20                     21
                      A                      A                      A
 Frequencies --   1000.5083              1013.4582              1032.3478
 Red. masses --      3.0817                 2.2543                 2.2238
 Frc consts  --      1.8175                 1.3642                 1.3963
 IR Inten    --     19.0088                29.9635                26.7237

                     22                     23                     24
                      A                      A                      A
 Frequencies --   1066.3538              1069.4806              1084.6003
 Red. masses --      2.8374                 2.9647                 2.1100
 Frc consts  --      1.9010                 1.9979                 1.4624
 IR Inten    --      5.5217                32.3093                17.1920

                     25                     26                     27
                      A                      A                      A
 Frequencies --   1097.3433              1141.6503              1154.9570
 Red. masses --      2.1398                 1.4633                 1.2573
 Frc consts  --      1.5181                 1.1237                 0.9881
 IR Inten    --     10.8650                 2.8881                 6.7471

                     28                     29                     30
                      A                      A                      A
 Frequencies --   1161.9258              1187.3036              1239.0380
 Red. masses --      1.6566                 2.0212                 1.4119
 Frc consts  --      1.3178                 1.6787                 1.2771
 IR Inten    --      5.7253                 9.4189                 3.8461

                     31                     32                     33
                      A                      A                      A
 Frequencies --   1252.9182              1284.9984              1327.2612
 Red. masses --      1.7405                 1.4324                 1.5309
 Frc consts  --      1.6098                 1.3935                 1.5889
 IR Inten    --      4.7666                 4.3187                 4.2389

                     34                     35                     36
                      A                      A                      A
 Frequencies --   1353.2855              1382.8913              1403.5918
 Red. masses --      1.4483                 1.3376                 1.3356
 Frc consts  --      1.5627                 1.5072                 1.5503
 IR Inten    --      2.0368                15.9388                16.4406

                     37                     38                     39
                      A                      A                      A
 Frequencies --   1453.0643              1484.1642              1493.1775
 Red. masses --      4.8125                 1.0631                 1.0627
 Frc consts  --      5.9868                 1.3797                 1.3960
 IR Inten    --     15.1031                 1.8285                 2.9004

                     40                     41                     42
                      A                      A                      A
 Frequencies --   1516.5616              1523.0891              2982.2157
 Red. masses --      1.1044                 1.1018                 1.0830
 Frc consts  --      1.4966                 1.5059                 5.6747
 IR Inten    --      0.3795                 0.4821                62.9484

                     43                     44                     45
                      A                      A                      A
 Frequencies --   3007.1489              3025.8373              3033.8965
 Red. masses --      1.0603                 1.0551                 1.0357
 Frc consts  --      5.6492                 5.6915                 5.6168
 IR Inten    --     51.3917                81.4052                10.6157

                     46                     47                     48
                      A                      A                      A
 Frequencies --   3059.5849              3075.7931              3103.9138
 Red. masses --      1.1056                 1.1112                 1.0997
 Frc consts  --      6.0977                 6.1936                 6.2422
 IR Inten    --     31.6697                34.9043                19.2159

                     49                     50                     51
                      A                      A                      A
 Frequencies --   3119.9959              3175.8409              3194.4298
 Red. masses --      1.1026                 1.0900                 1.0967
 Frc consts  --      6.3240                 6.4773                 6.5939
 IR Inten    --     22.1619                16.2995                 9.5868

 - Thermochemistry -
 -------------------
 Temperature   298.150 Kelvin.  Pressure   1.00000 Atm.
 Atom     1 has atomic number  6 and mass  12.00000

 Molecular mass:   126.06808 amu.
 Principal axes and moments of inertia in atomic units:
                           1         2         3
     Eigenvalues --   527.680001420.604491618.05093
           X            0.99896   0.04231   0.01695
           Y           -0.04229   0.99910  -0.00178
           Z           -0.01701   0.00106   0.99985
 This molecule is an asymmetric top.
 Rotational symmetry number  1.
 Warning -- assumption of classical behavior for rotation
           may cause significant error
 Rotational temperatures (Kelvin)      0.16414     0.06097     0.05353
 Rotational constants (GHZ):           3.42014     1.27040     1.11538
 Zero-point vibrational energy     416674.3 (Joules/Mol)
                                   99.58755 (Kcal/Mol)
 Warning -- explicit consideration of  10 degrees of freedom as
           vibrations may cause significant error
 Vibrational temperatures:    118.01   203.76   228.12   325.54   335.52
          (Kelvin)            421.93   602.09   665.06   718.69   862.58
                             1094.29  1125.80  1188.17  1269.31  1297.62
                             1354.29  1381.63  1425.34  1439.51  1458.14
                             1485.32  1534.24  1538.74  1560.50  1578.83
                             1642.58  1661.72  1671.75  1708.26  1782.70
                             1802.67  1848.82  1909.63  1947.07  1989.67
                             2019.45  2090.63  2135.38  2148.35  2181.99
                             2191.38  4290.74  4326.61  4353.50  4365.09
                             4402.05  4425.37  4465.83  4488.97  4569.32
                             4596.07

 Zero-point correction=                           0.158703 (Hartree/Particle)
 Thermal correction to Energy=                    0.166856
 Thermal correction to Enthalpy=                  0.167800
 Thermal correction to Gibbs Free Energy=         0.125796
 Sum of electronic and zero-point Energies=           -422.953883
 Sum of electronic and thermal Energies=              -422.945730
 Sum of electronic and thermal Enthalpies=            -422.944786
 Sum of electronic and thermal Free Energies=         -422.986790

                     E (Thermal)             CV                S
                      KCal/Mol        Cal/Mol-Kelvin    Cal/Mol-Kelvin
 Total                  104.704             30.911             88.405
 Electronic               0.000              0.000              0.000
 Translational            0.889              2.981             40.409
 Rotational               0.889              2.981             28.585
 Vibrational            102.926             24.950             19.411
 Vibration     1          0.600              1.961              3.842
 Vibration     2          0.615              1.912              2.782
 Vibration     3          0.621              1.893              2.567
 Vibration     4          0.650              1.801              1.908
 Vibration     5          0.654              1.790              1.854
 Vibration     6          0.688              1.686              1.455
 Vibration     7          0.781              1.430              0.897
 Vibration     8          0.820              1.334              0.760
 Vibration     9          0.855              1.251              0.659
 Vibration    10          0.958              1.033              0.450

 Optimization completed.
    -- Stationary point found.
 Normal termination of Gaussian 09 at Tue Jan 28 04:49:55 2020.
