 Gaussian 09, Revision D.01,
 Gaussian 09:  ES64L-G09RevD.01 24-Apr-2013

 -----------------------------
 # b3lyp 6-31G(2df,p) opt Freq
 -----------------------------

 -----
 titel
 -----
 Symbolic Z-matrix:
 Charge =  0 Multiplicity = 1

 SCF Done:  E(RB3LYP) =  -423.209064317     A.U. after   14 cycles
 Optimization completed.
    -- Stationary point found.
 Normal termination of Gaussian 09 at Mon Jan 27 16:20:50 2020.

 ----------------------------------------------------------------------
 #N Geom=AllCheck Guess=TCheck SCRF=Check GenChk RB3LYP/6-31G(2df,p) Fr
 eq
 ----------------------------------------------------------------------

 Structure from the checkpoint file:  "/scratch/puck/g09_9f45b1e5-4d4c-4d3c-ad64-a0e470915660/Gau-57127.chk"
 -----
 titel
 -----
 Charge =  0 Multiplicity = 1

                         Standard orientation:
 ---------------------------------------------------------------------
 Center     Atomic      Atomic             Coordinates (Angstroms)
 Number     Number       Type             X           Y           Z
 ---------------------------------------------------------------------
      1          6           0        1.274698   -0.853202    1.350409
      2          6           0        0.798100   -0.394842   -0.034993
      3          8           0        1.920466   -0.267836   -0.896619
      4          6           0       -0.260095   -1.309109   -0.694034
      5          6           0       -1.600163   -0.572521   -0.614375
      6          6           0       -2.077251   -0.146377    0.730245
      7          6           0       -1.354153    0.865634   -0.156936
      8          6           0        0.109729    0.998205    0.025158
      9          8           0        0.754638    2.020973    0.074303
     10          1           0        1.920603   -0.088438    1.792745
     11          1           0        0.450497   -1.047712    2.043230
     12          1           0        1.854895   -1.773644    1.237684
     13          1           0        2.274960    0.618243   -0.729722
     14          1           0        0.029025   -1.443910   -1.739142
     15          1           0       -0.309248   -2.298847   -0.229116
     16          1           0       -2.337365   -0.766991   -1.384624
     17          1           0       -3.137815    0.041261    0.855709
     18          1           0       -1.586756   -0.513487    1.624032
     19          1           0       -1.904821    1.721703   -0.525104
 ---------------------------------------------------------------------

 SCF Done:  E(RB3LYP) =  -423.209064317     A.U. after    1 cycles

 The electronic state is 1-A.
 Alpha  occ. eigenvalues --  -19.13676 -19.13191 -10.26756 -10.24180 -10.21340
 Alpha  occ. eigenvalues --  -10.20983 -10.20726 -10.19076 -10.18083  -1.05215
 Alpha  occ. eigenvalues --   -1.01118  -0.89584  -0.77401  -0.70991  -0.68009
 Alpha  occ. eigenvalues --   -0.61242  -0.57697  -0.55528  -0.50868  -0.48402
 Alpha  occ. eigenvalues --   -0.45918  -0.44981  -0.43447  -0.41524  -0.41377
 Alpha  occ. eigenvalues --   -0.38954  -0.38424  -0.36828  -0.35327  -0.33860
 Alpha  occ. eigenvalues --   -0.30989  -0.30187  -0.27122  -0.24322
 Alpha virt. eigenvalues --   -0.02288   0.08289   0.08778   0.11116   0.11456
 Alpha virt. eigenvalues --    0.13237   0.14554   0.16203   0.16382   0.16876
 Alpha virt. eigenvalues --    0.17191   0.18311   0.20279   0.21878   0.22172

 Mulliken charges:
               1
     1  C   -0.439310
     2  C    0.299204
     3  O   -0.475181
     4  C   -0.274098
     5  C   -0.043168
     6  C   -0.291763
     7  C   -0.149348
     8  C    0.378920
     9  O   -0.363217
    10  H    0.127799
    11  H    0.114492
    12  H    0.129934
    13  H    0.285286
    14  H    0.127063
    15  H    0.104068
    16  H    0.100812
    17  H    0.128852
    18  H    0.128583
    19  H    0.111073
 Sum of Mulliken charges =   0.00000

 Dipole moment (field-independent basis, Debye):
    X=             -2.4188    Y=             -1.4732    Z=              0.6356  Tot=              2.9026
 Quadrupole moment (field-independent basis, Debye-Ang):
   XX=            -50.8669   YY=            -57.7987   ZZ=            -52.7747
   XY=             -0.5283   XZ=              2.1939   YZ=             -1.5736

  Exact polarizability:  84.096   2.747  75.027  -0.090  -0.293  65.301
 Approx polarizability: 117.551  11.459 119.731  -3.478   0.805  98.685

                      1                      2                      3
                      A                      A                      A
 Frequencies --     90.1523               189.6405               216.8421
 Red. masses --      4.4501                 2.4134                 2.2226
 Frc consts  --      0.0213                 0.0511                 0.0616
 IR Inten    --      2.8421                 0.6211                 2.0125

                      4                      5                      6
                      A                      A                      A
 Frequencies --    241.1137               314.6592               340.9104
 Red. masses --      1.3300                 4.1013                 3.0780
 Frc consts  --      0.0456                 0.2393                 0.2108
 IR Inten    --      0.2671                24.2397                 1.5765

                      7                      8                      9
                      A                      A                      A
 Frequencies --    352.0169               400.5554               454.7641
 Red. masses --      2.5550                 2.1065                 1.3502
 Frc consts  --      0.1865                 0.1991                 0.1645
 IR Inten    --      3.2391                36.7317                30.7300

                     10                     11                     12
                      A                      A                      A
 Frequencies --    504.2334               586.7990               612.4987
 Red. masses --      3.3955                 4.1725                 4.1322
 Frc consts  --      0.5086                 0.8465                 0.9134
 IR Inten    --     22.9859                 3.0054                 3.7485

                     13                     14                     15
                      A                      A                      A
 Frequencies --    687.5868               774.7200               796.7254
 Red. masses --      3.4691                 3.1856                 3.4105
 Frc consts  --      0.9663                 1.1265                 1.2755
 IR Inten    --      4.5314                 2.3167                 4.2079

                     16                     17                     18
                      A                      A                      A
 Frequencies --    835.3947               871.5779               905.3644
 Red. masses --      1.7905                 1.8357                 1.7726
 Frc consts  --      0.7362                 0.8216                 0.8561
 IR Inten    --     17.7798                16.4028                 4.9298

                     19                     20                     21
                      A                      A                      A
 Frequencies --    949.0610               954.5764               978.2271
 Red. masses --      1.8250                 1.8334                 2.7027
 Frc consts  --      0.9685                 0.9843                 1.5238
 IR Inten    --     24.6403                 9.4537                14.2376

                     22                     23                     24
                      A                      A                      A
 Frequencies --    984.2950              1057.1179              1067.9943
 Red. masses --      2.1482                 1.3677                 1.2953
 Frc consts  --      1.2263                 0.9005                 0.8705
 IR Inten    --     11.5589                 5.6067                13.7365

                     25                     26                     27
                      A                      A                      A
 Frequencies --   1105.6263              1134.8141              1141.5166
 Red. masses --      1.1967                 1.9419                 1.9996
 Frc consts  --      0.8619                 1.4734                 1.5352
 IR Inten    --      0.4834                16.6222                 4.9612

                     28                     29                     30
                      A                      A                      A
 Frequencies --   1160.0300              1204.5260              1220.1640
 Red. masses --      1.9084                 1.7805                 2.1936
 Frc consts  --      1.5131                 1.5220                 1.9241
 IR Inten    --     82.6755                20.8232                 6.9865

                     31                     32                     33
                      A                      A                      A
 Frequencies --   1256.2296              1323.5396              1332.4019
 Red. masses --      1.5180                 1.9786                 2.2294
 Frc consts  --      1.4114                 2.0421                 2.3319
 IR Inten    --     22.3787                 5.8005                 6.4719

                     34                     35                     36
                      A                      A                      A
 Frequencies --   1371.9531              1395.9980              1402.9339
 Red. masses --      1.6689                 1.4180                 1.3750
 Frc consts  --      1.8508                 1.6281                 1.5945
 IR Inten    --     15.4466                42.1418                13.9273

                     37                     38                     39
                      A                      A                      A
 Frequencies --   1477.4478              1489.1402              1491.6630
 Red. masses --      1.0995                 1.0846                 1.0866
 Frc consts  --      1.4141                 1.4171                 1.4246
 IR Inten    --      5.7449                 2.3376                 2.0035

                     40                     41                     42
                      A                      A                      A
 Frequencies --   1502.4739              1816.0431              3038.4190
 Red. masses --      1.1475                12.1295                 1.0342
 Frc consts  --      1.5263                23.5692                 5.6251
 IR Inten    --      6.2318               221.4808                13.2271

                     43                     44                     45
                      A                      A                      A
 Frequencies --   3054.3615              3106.8981              3113.8070
 Red. masses --      1.0622                 1.1019                 1.1009
 Frc consts  --      5.8387                 6.2671                 6.2892
 IR Inten    --     25.8201                 7.4241                24.0923

                     46                     47                     48
                      A                      A                      A
 Frequencies --   3117.5990              3143.6521              3178.3409
 Red. masses --      1.1022                 1.0547                 1.0908
 Frc consts  --      6.3120                 6.1412                 6.4923
 IR Inten    --     13.8459                15.6528                10.6411

                     49                     50                     51
                      A                      A                      A
 Frequencies --   3200.9368              3227.6051              3723.0956
 Red. masses --      1.0933                 1.1150                 1.0651
 Frc consts  --      6.5999                 6.8433                 8.6987
 IR Inten    --      3.6212                 6.7008                34.3196

 - Thermochemistry -
 -------------------
 Temperature   298.150 Kelvin.  Pressure   1.00000 Atm.
 Atom     1 has atomic number  6 and mass  12.00000

 Molecular mass:   126.06808 amu.
 Principal axes and moments of inertia in atomic units:
                           1         2         3
     Eigenvalues --   744.072341089.018501334.39321
           X            0.99941  -0.02442   0.02414
           Y            0.02536   0.99890  -0.03949
           Z           -0.02315   0.04008   0.99893
 This molecule is an asymmetric top.
 Rotational symmetry number  1.
 Warning -- assumption of classical behavior for rotation
           may cause significant error
 Rotational temperatures (Kelvin)      0.11641     0.07953     0.06491
 Rotational constants (GHZ):           2.42549     1.65722     1.35248
 Zero-point vibrational energy     418083.1 (Joules/Mol)
                                   99.92427 (Kcal/Mol)
 Warning -- explicit consideration of  12 degrees of freedom as
           vibrations may cause significant error
 Vibrational temperatures:    129.71   272.85   311.99   346.91   452.72
          (Kelvin)            490.49   506.47   576.31   654.30   725.48
                              844.27   881.25   989.28  1114.65  1146.31
                             1201.95  1254.00  1302.62  1365.49  1373.42
                             1407.45  1416.18  1520.95  1536.60  1590.75
                             1632.74  1642.39  1669.02  1733.04  1755.54
                             1807.43  1904.28  1917.03  1973.93  2008.53
                             2018.51  2125.72  2142.54  2146.17  2161.72
                             2612.88  4371.60  4394.54  4470.13  4480.07
                             4485.52  4523.01  4572.92  4605.43  4643.80
                             5356.70

 Zero-point correction=                           0.159239 (Hartree/Particle)
 Thermal correction to Energy=                    0.167567
 Thermal correction to Enthalpy=                  0.168512
 Thermal correction to Gibbs Free Energy=         0.126779
 Sum of electronic and zero-point Energies=           -423.049825
 Sum of electronic and thermal Energies=              -423.041497
 Sum of electronic and thermal Enthalpies=            -423.040553
 Sum of electronic and thermal Free Energies=         -423.082286

                     E (Thermal)             CV                S
                      KCal/Mol        Cal/Mol-Kelvin    Cal/Mol-Kelvin
 Total                  105.150             32.924             87.834
 Electronic               0.000              0.000              0.000
 Translational            0.889              2.981             40.409
 Rotational               0.889              2.981             28.471
 Vibrational            103.373             26.962             18.954
 Vibration     1          0.602              1.956              3.657
 Vibration     2          0.633              1.854              2.231
 Vibration     3          0.646              1.815              1.985
 Vibration     4          0.658              1.777              1.795
 Vibration     5          0.702              1.646              1.338
 Vibration     6          0.720              1.594              1.208
 Vibration     7          0.729              1.571              1.157
 Vibration     8          0.766              1.469              0.961
 Vibration     9          0.813              1.350              0.781
 Vibration    10          0.860              1.241              0.648
 Vibration    11          0.944              1.060              0.473
 Vibration    12          0.972              1.005              0.429

 Normal termination of Gaussian 09 at Mon Jan 27 17:05:51 2020.
