 Gaussian 09, Revision D.01,
 Gaussian 09:  ES64L-G09RevD.01 24-Apr-2013

 -----------------------------
 # b3lyp 6-31G(2df,p) opt Freq
 -----------------------------

 -----
 titel
 -----
 Symbolic Z-matrix:
 Charge =  0 Multiplicity = 1

 SCF Done:  E(RB3LYP) =  -423.190869788     A.U. after   14 cycles
 Optimization completed.
    -- Stationary point found.
 Normal termination of Gaussian 09 at Mon Jan 27 17:17:09 2020.

 ----------------------------------------------------------------------
 #N Geom=AllCheck Guess=TCheck SCRF=Check GenChk RB3LYP/6-31G(2df,p) Fr
 eq
 ----------------------------------------------------------------------

 Structure from the checkpoint file:  "/scratch/puck/g09_f2c762ae-875f-4e4f-9bf0-8a4a1a70aa64/Gau-168246.chk"
 -----
 titel
 -----
 Charge =  0 Multiplicity = 1

                         Standard orientation:
 ---------------------------------------------------------------------
 Center     Atomic      Atomic             Coordinates (Angstroms)
 Number     Number       Type             X           Y           Z
 ---------------------------------------------------------------------
      1          8           0        2.357255    0.246510    0.203249
      2          6           0        0.972071    0.034428    0.037631
      3          6           0        0.221764   -0.550649    1.251294
      4          6           0       -1.124164   -0.864769    0.563049
      5          6           0       -1.806907    0.499618    0.288105
      6          8           0       -1.034399    1.317965   -0.576310
      7          6           0        0.343553    1.418513   -0.250058
      8          6           0       -0.636421   -1.462821   -0.751189
      9          6           0        0.553174   -0.944542   -1.055648
     10          1           0        2.758594   -0.596301    0.441104
     11          1           0        0.711007   -1.465617    1.602995
     12          1           0        0.140633    0.154136    2.084712
     13          1           0       -1.794064   -1.506008    1.143038
     14          1           0       -2.769075    0.370086   -0.216787
     15          1           0       -1.990784    1.008482    1.249581
     16          1           0        0.828071    1.885603   -1.111812
     17          1           0        0.502426    2.064224    0.628555
     18          1           0       -1.232179   -2.123344   -1.370265
     19          1           0        1.124093   -1.085726   -1.965738
 ---------------------------------------------------------------------

 SCF Done:  E(RB3LYP) =  -423.190869788     A.U. after    1 cycles

 The electronic state is 1-A.
 Alpha  occ. eigenvalues --  -19.13930 -19.13514 -10.23657 -10.22737 -10.22121
 Alpha  occ. eigenvalues --  -10.19470 -10.18339 -10.18174 -10.17730  -1.03328
 Alpha  occ. eigenvalues --   -1.01927  -0.84834  -0.75751  -0.71886  -0.64661
 Alpha  occ. eigenvalues --   -0.64364  -0.55157  -0.54897  -0.51966  -0.48348
 Alpha  occ. eigenvalues --   -0.45965  -0.45658  -0.44079  -0.41544  -0.39730
 Alpha  occ. eigenvalues --   -0.38537  -0.37185  -0.36733  -0.33774  -0.32387
 Alpha  occ. eigenvalues --   -0.29707  -0.26838  -0.25678  -0.23650
 Alpha virt. eigenvalues --    0.00953   0.08265   0.09235   0.12509   0.12662
 Alpha virt. eigenvalues --    0.14275   0.15353   0.15672   0.17111   0.17670
 Alpha virt. eigenvalues --    0.17809   0.19413   0.20612   0.22155   0.22775

 Mulliken charges:
               1
     1  O   -0.498337
     2  C    0.348653
     3  C   -0.273370
     4  C   -0.091565
     5  C   -0.068133
     6  O   -0.248740
     7  C   -0.089636
     8  C   -0.063311
     9  C   -0.135567
    10  H    0.274574
    11  H    0.085312
    12  H    0.094303
    13  H    0.067677
    14  H    0.106861
    15  H    0.086776
    16  H    0.114186
    17  H    0.092978
    18  H    0.098154
    19  H    0.099186
 Sum of Mulliken charges =   0.00000

 Dipole moment (field-independent basis, Debye):
    X=             -0.2298    Y=             -1.9401    Z=              0.9608  Tot=              2.1772
 Quadrupole moment (field-independent basis, Debye-Ang):
   XX=            -52.1369   YY=            -53.7346   ZZ=            -52.4419
   XY=             -1.0812   XZ=             -1.1856   YZ=              1.0805

  Exact polarizability:  84.244   4.879  70.847  -3.576   2.593  69.100
 Approx polarizability: 128.639  11.518 104.720  -6.459   1.532 104.096

                      1                      2                      3
                      A                      A                      A
 Frequencies --    229.6307               248.9106               267.9000
 Red. masses --      2.1660                 3.0892                 1.1814
 Frc consts  --      0.0673                 0.1128                 0.0500
 IR Inten    --      6.9668                 5.2239                76.9561

                      4                      5                      6
                      A                      A                      A
 Frequencies --    303.6571               361.7859               384.4195
 Red. masses --      3.7464                 3.2665                 2.5734
 Frc consts  --      0.2035                 0.2519                 0.2241
 IR Inten    --      5.7999                 2.1713                 4.7995

                      7                      8                      9
                      A                      A                      A
 Frequencies --    424.9526               460.4165               560.2145
 Red. masses --      3.0829                 2.5262                 3.3224
 Frc consts  --      0.3280                 0.3155                 0.6143
 IR Inten    --      5.2305                 0.7087                 1.6710

                     10                     11                     12
                      A                      A                      A
 Frequencies --    607.0648               637.8424               747.5869
 Red. masses --      3.2932                 4.3863                 1.9517
 Frc consts  --      0.7151                 1.0514                 0.6427
 IR Inten    --      0.8145                 2.0949                19.4234

                     13                     14                     15
                      A                      A                      A
 Frequencies --    792.2302               832.1045               840.4804
 Red. masses --      3.1587                 2.8781                 3.0257
 Frc consts  --      1.1680                 1.1741                 1.2593
 IR Inten    --      2.6119                 5.0536                32.9140

                     16                     17                     18
                      A                      A                      A
 Frequencies --    923.2531               927.1907               948.4025
 Red. masses --      2.0941                 2.3529                 1.9305
 Frc consts  --      1.0517                 1.1918                 1.0231
 IR Inten    --      5.8980                16.3857                 2.0597

                     19                     20                     21
                      A                      A                      A
 Frequencies --    960.2998               973.5514              1000.5685
 Red. masses --      1.3907                 2.1622                 2.3434
 Frc consts  --      0.7556                 1.2075                 1.3822
 IR Inten    --     12.5103                23.4536                 8.8802

                     22                     23                     24
                      A                      A                      A
 Frequencies --   1042.0868              1082.7023              1100.0610
 Red. masses --      1.6464                 1.2703                 2.0141
 Frc consts  --      1.0534                 0.8774                 1.4360
 IR Inten    --      5.9537                 4.5064                19.6636

                     25                     26                     27
                      A                      A                      A
 Frequencies --   1106.6411              1149.4223              1185.5549
 Red. masses --      1.9520                 1.9198                 1.6867
 Frc consts  --      1.4085                 1.4944                 1.3968
 IR Inten    --    119.0582                 4.4104                13.2357

                     28                     29                     30
                      A                      A                      A
 Frequencies --   1211.3385              1236.5203              1257.4886
 Red. masses --      3.0100                 1.5989                 1.5472
 Frc consts  --      2.6022                 1.4403                 1.4415
 IR Inten    --     36.7817                 0.6392                11.6274

                     31                     32                     33
                      A                      A                      A
 Frequencies --   1274.2989              1313.6012              1325.2473
 Red. masses --      1.2773                 1.5617                 1.4132
 Frc consts  --      1.2220                 1.5877                 1.4623
 IR Inten    --      4.6585                14.3009                 2.8538

                     34                     35                     36
                      A                      A                      A
 Frequencies --   1334.4432              1374.0727              1388.2676
 Red. masses --      1.3764                 1.7469                 1.5320
 Frc consts  --      1.4441                 1.9433                 1.7396
 IR Inten    --      1.6846                47.6003                11.4713

                     37                     38                     39
                      A                      A                      A
 Frequencies --   1405.7574              1489.6115              1497.2412
 Red. masses --      1.3311                 1.1068                 1.0826
 Frc consts  --      1.5499                 1.4470                 1.4298
 IR Inten    --      6.6139                 3.0769                 0.1861

                     40                     41                     42
                      A                      A                      A
 Frequencies --   1510.3790              1660.4227              2961.4592
 Red. masses --      1.1008                 6.3997                 1.0703
 Frc consts  --      1.4796                10.3955                 5.5304
 IR Inten    --      2.0943                 2.1548                62.2340

                     43                     44                     45
                      A                      A                      A
 Frequencies --   2978.4631              3037.6677              3067.1374
 Red. masses --      1.0692                 1.0601                 1.0870
 Frc consts  --      5.5883                 5.7631                 6.0251
 IR Inten    --     60.9919                33.3112                38.0725

                     46                     47                     48
                      A                      A                      A
 Frequencies --   3078.9234              3090.6103              3094.0278
 Red. masses --      1.0913                 1.0999                 1.0993
 Frc consts  --      6.0951                 6.1898                 6.2003
 IR Inten    --     44.4640                26.4038                30.7152

                     49                     50                     51
                      A                      A                      A
 Frequencies --   3189.3733              3215.5709              3804.0388
 Red. masses --      1.0853                 1.1059                 1.0660
 Frc consts  --      6.5045                 6.7372                 9.0888
 IR Inten    --      7.1583                14.3070                14.3308

 - Thermochemistry -
 -------------------
 Temperature   298.150 Kelvin.  Pressure   1.00000 Atm.
 Atom     1 has atomic number  8 and mass  15.99491

 Molecular mass:   126.06808 amu.
 Principal axes and moments of inertia in atomic units:
                           1         2         3
     Eigenvalues --   687.09614 989.346021191.59200
           X            0.99978   0.01254  -0.01698
           Y           -0.01214   0.99964   0.02393
           Z            0.01728  -0.02372   0.99957
 This molecule is an asymmetric top.
 Rotational symmetry number  1.
 Warning -- assumption of classical behavior for rotation
           may cause significant error
 Rotational temperatures (Kelvin)      0.12606     0.08755     0.07269
 Rotational constants (GHZ):           2.62662     1.82418     1.51456
 Zero-point vibrational energy     424045.6 (Joules/Mol)
                                  101.34934 (Kcal/Mol)
 Warning -- explicit consideration of  10 degrees of freedom as
           vibrations may cause significant error
 Vibrational temperatures:    330.39   358.13   385.45   436.89   520.53
          (Kelvin)            553.09   611.41   662.44   806.02   873.43
                              917.71  1075.61  1139.84  1197.21  1209.26
                             1328.35  1334.02  1364.54  1381.66  1400.72
                             1439.59  1499.33  1557.77  1582.74  1592.21
                             1653.76  1705.75  1742.84  1779.07  1809.24
                             1833.43  1889.98  1906.73  1919.96  1976.98
                             1997.40  2022.57  2143.22  2154.19  2173.10
                             2388.97  4260.87  4285.34  4370.52  4412.92
                             4429.88  4446.69  4451.61  4588.79  4626.48
                             5473.16

 Zero-point correction=                           0.161510 (Hartree/Particle)
 Thermal correction to Energy=                    0.168767
 Thermal correction to Enthalpy=                  0.169711
 Thermal correction to Gibbs Free Energy=         0.130503
 Sum of electronic and zero-point Energies=           -423.029359
 Sum of electronic and thermal Energies=              -423.022103
 Sum of electronic and thermal Enthalpies=            -423.021158
 Sum of electronic and thermal Free Energies=         -423.060367

                     E (Thermal)             CV                S
                      KCal/Mol        Cal/Mol-Kelvin    Cal/Mol-Kelvin
 Total                  105.903             30.340             82.522
 Electronic               0.000              0.000              0.000
 Translational            0.889              2.981             40.409
 Rotational               0.889              2.981             28.184
 Vibrational            104.126             24.378             13.929
 Vibration     1          0.652              1.796              1.882
 Vibration     2          0.662              1.765              1.738
 Vibration     3          0.673              1.732              1.610
 Vibration     4          0.695              1.667              1.397
 Vibration     5          0.736              1.551              1.114
 Vibration     6          0.753              1.503              1.022
 Vibration     7          0.787              1.416              0.875
 Vibration     8          0.818              1.338              0.765
 Vibration     9          0.916              1.117              0.523
 Vibration    10          0.966              1.017              0.438

 Optimization completed.
    -- Stationary point found.
 Normal termination of Gaussian 09 at Mon Jan 27 18:04:16 2020.
