 Gaussian 09, Revision D.01,
 Gaussian 09:  ES64L-G09RevD.01 24-Apr-2013

 -----------------------------
 # b3lyp 6-31G(2df,p) opt Freq
 -----------------------------

 -----
 titel
 -----
 Symbolic Z-matrix:
 Charge =  0 Multiplicity = 1

 SCF Done:  E(RB3LYP) =  -423.196796259     A.U. after   14 cycles
 Optimization completed.
    -- Stationary point found.
 Normal termination of Gaussian 09 at Thu Jan 30 15:29:21 2020.

 ----------------------------------------------------------------------
 #N Geom=AllCheck Guess=TCheck SCRF=Check GenChk RB3LYP/6-31G(2df,p) Fr
 eq
 ----------------------------------------------------------------------

 Structure from the checkpoint file:  "/scratch/puck/g09_d48f5a6c-661f-4b53-ba39-068884c57acd/Gau-170321.chk"
 -----
 titel
 -----
 Charge =  0 Multiplicity = 1

                         Standard orientation:
 ---------------------------------------------------------------------
 Center     Atomic      Atomic             Coordinates (Angstroms)
 Number     Number       Type             X           Y           Z
 ---------------------------------------------------------------------
      1          6           0        2.365942    0.590511   -0.143246
      2          6           0        0.997227   -0.041742   -0.065947
      3          6           0        0.461264   -0.729378    1.229455
      4          6           0       -0.538702   -1.429282    0.238437
      5          6           0        0.635329   -1.376497   -0.791236
      6          6           0       -1.325975   -0.206202   -0.170567
      7          8           0       -2.508829    0.017705   -0.157037
      8          6           0       -0.209074    0.822711   -0.480694
      9          8           0       -0.353848    1.989347    0.299947
     10          1           0        2.411169    1.484186    0.486922
     11          1           0        3.143503   -0.104668    0.190049
     12          1           0        2.602086    0.894532   -1.169439
     13          1           0        1.174004   -1.445986    1.644360
     14          1           0        0.052991   -0.091559    2.015999
     15          1           0       -1.090526   -2.333158    0.485923
     16          1           0        1.374787   -2.157165   -0.598796
     17          1           0        0.390675   -1.345231   -1.857647
     18          1           0       -0.176492    1.065369   -1.555514
     19          1           0       -1.296835    2.196537    0.317656
 ---------------------------------------------------------------------

 SCF Done:  E(RB3LYP) =  -423.196796259     A.U. after    1 cycles

 The electronic state is 1-A.
 Alpha  occ. eigenvalues --  -19.14421 -19.13829 -10.26757 -10.23527 -10.20846
 Alpha  occ. eigenvalues --  -10.20593 -10.20146 -10.19884 -10.17981  -1.05265
 Alpha  occ. eigenvalues --   -1.02219  -0.90061  -0.74474  -0.70592  -0.67568
 Alpha  occ. eigenvalues --   -0.64532  -0.55696  -0.54273  -0.50059  -0.48818
 Alpha  occ. eigenvalues --   -0.47073  -0.44482  -0.42580  -0.41832  -0.40343
 Alpha  occ. eigenvalues --   -0.38664  -0.38091  -0.37232  -0.35065  -0.33189
 Alpha  occ. eigenvalues --   -0.31802  -0.31477  -0.28463  -0.23581
 Alpha virt. eigenvalues --   -0.01560   0.08223   0.09517   0.11048   0.12326
 Alpha virt. eigenvalues --    0.13261   0.14082   0.15329   0.15972   0.16457
 Alpha virt. eigenvalues --    0.17360   0.18460   0.19989   0.20387   0.22028

 Mulliken charges:
               1
     1  C   -0.503971
     2  C    0.320091
     3  C   -0.269962
     4  C   -0.140792
     5  C   -0.283271
     6  C    0.400428
     7  O   -0.351715
     8  C    0.014534
     9  O   -0.452715
    10  H    0.139624
    11  H    0.111758
    12  H    0.118191
    13  H    0.106146
    14  H    0.118129
    15  H    0.085467
    16  H    0.110703
    17  H    0.102785
    18  H    0.080378
    19  H    0.294192
 Sum of Mulliken charges =   0.00000

 Dipole moment (field-independent basis, Debye):
    X=              1.9914    Y=             -1.1840    Z=             -0.2793  Tot=              2.3336
 Quadrupole moment (field-independent basis, Debye-Ang):
   XX=            -59.1204   YY=            -52.6723   ZZ=            -51.7219
   XY=             -2.7141   XZ=             -0.6555   YZ=             -0.8317

  Exact polarizability:  83.631  -1.853  75.391  -0.261  -0.689  66.545
 Approx polarizability: 123.359  -5.299 109.290   0.672   0.616 102.971

                      1                      2                      3
                      A                      A                      A
 Frequencies --     99.9099               206.7458               213.9489
 Red. masses --      6.2667                 1.1797                 3.0382
 Frc consts  --      0.0369                 0.0297                 0.0819
 IR Inten    --      5.0861                 1.0532                11.3942

                      4                      5                      6
                      A                      A                      A
 Frequencies --    243.7524               279.0675               305.7007
 Red. masses --      2.7497                 3.3069                 2.4916
 Frc consts  --      0.0963                 0.1517                 0.1372
 IR Inten    --      0.8680                11.6139                 0.0222

                      7                      8                      9
                      A                      A                      A
 Frequencies --    358.0557               468.1442               491.6837
 Red. masses --      1.1645                 2.1006                 3.7691
 Frc consts  --      0.0880                 0.2712                 0.5369
 IR Inten    --     88.1891                 0.3483                 6.9938

                     10                     11                     12
                      A                      A                      A
 Frequencies --    515.5318               555.6518               670.8929
 Red. masses --      4.1958                 2.9591                 3.3294
 Frc consts  --      0.6570                 0.5383                 0.8829
 IR Inten    --      3.0423                 5.0428                 1.2940

                     13                     14                     15
                      A                      A                      A
 Frequencies --    709.9901               789.6401               835.7561
 Red. masses --      3.6796                 4.2431                 3.1582
 Frc consts  --      1.0928                 1.5588                 1.2997
 IR Inten    --      5.0201                12.7167                14.4953

                     16                     17                     18
                      A                      A                      A
 Frequencies --    862.5502               869.1524               926.7605
 Red. masses --      2.5795                 2.2044                 2.2502
 Frc consts  --      1.1307                 0.9811                 1.1387
 IR Inten    --      0.3953                 0.7230                 0.8076

                     19                     20                     21
                      A                      A                      A
 Frequencies --    944.9991               978.9857              1010.0960
 Red. masses --      1.8814                 1.6085                 2.1521
 Frc consts  --      0.9899                 0.9083                 1.2937
 IR Inten    --      1.5851                10.6994                43.6274

                     22                     23                     24
                      A                      A                      A
 Frequencies --   1025.0403              1054.8929              1096.2916
 Red. masses --      1.4324                 1.1373                 1.5448
 Frc consts  --      0.8868                 0.7457                 1.0939
 IR Inten    --      4.9883                 0.3633                18.8384

                     25                     26                     27
                      A                      A                      A
 Frequencies --   1134.9412              1145.0241              1165.1075
 Red. masses --      2.0419                 3.1816                 1.4103
 Frc consts  --      1.5496                 2.4577                 1.1280
 IR Inten    --     42.3955                16.4045                 3.9508

                     28                     29                     30
                      A                      A                      A
 Frequencies --   1210.7254              1228.4610              1233.0851
 Red. masses --      1.5196                 1.7106                 1.6463
 Frc consts  --      1.3124                 1.5209                 1.4749
 IR Inten    --      1.8015                 2.2410                 0.9927

                     31                     32                     33
                      A                      A                      A
 Frequencies --   1267.4108              1288.1381              1297.7238
 Red. masses --      2.1733                 2.1014                 1.7894
 Frc consts  --      2.0569                 2.0543                 1.7755
 IR Inten    --      3.2832                 6.2177                45.5792

                     34                     35                     36
                      A                      A                      A
 Frequencies --   1344.2601              1409.9209              1416.3241
 Red. masses --      1.3962                 1.4894                 1.5285
 Frc consts  --      1.4866                 1.7445                 1.8065
 IR Inten    --     17.5049                 5.8625                 6.1273

                     37                     38                     39
                      A                      A                      A
 Frequencies --   1483.6963              1490.4978              1496.2341
 Red. masses --      1.0879                 1.0479                 1.0538
 Frc consts  --      1.4111                 1.3716                 1.3900
 IR Inten    --      1.3880                 4.8586                 4.8574

                     40                     41                     42
                      A                      A                      A
 Frequencies --   1518.4062              1861.2671              2968.4465
 Red. masses --      1.1366                12.3759                 1.0819
 Frc consts  --      1.5439                25.2607                 5.6168
 IR Inten    --      3.0265               248.8037                39.9294

                     43                     44                     45
                      A                      A                      A
 Frequencies --   3029.4368              3050.4416              3066.8500
 Red. masses --      1.0360                 1.0581                 1.0562
 Frc consts  --      5.6021                 5.8012                 5.8528
 IR Inten    --     24.6219                39.2264                20.5384

                     46                     47                     48
                      A                      A                      A
 Frequencies --   3093.9411              3107.8133              3115.5102
 Red. masses --      1.1006                 1.1009                 1.1072
 Frc consts  --      6.2075                 6.2647                 6.3322
 IR Inten    --     20.1454                12.0717                21.6222

                     49                     50                     51
                      A                      A                      A
 Frequencies --   3130.7815              3149.4459              3774.5293
 Red. masses --      1.1103                 1.0912                 1.0659
 Frc consts  --      6.4121                 6.3773                 8.9477
 IR Inten    --     17.2145                26.4771                33.1283

 - Thermochemistry -
 -------------------
 Temperature   298.150 Kelvin.  Pressure   1.00000 Atm.
 Atom     1 has atomic number  6 and mass  12.00000

 Molecular mass:   126.06808 amu.
 Principal axes and moments of inertia in atomic units:
                           1         2         3
     Eigenvalues --   712.711341033.455671412.94637
           X            0.99997  -0.00278  -0.00733
           Y            0.00270   0.99993  -0.01123
           Z            0.00736   0.01121   0.99991
 This molecule is an asymmetric top.
 Rotational symmetry number  1.
 Warning -- assumption of classical behavior for rotation
           may cause significant error
 Rotational temperatures (Kelvin)      0.12153     0.08381     0.06130
 Rotational constants (GHZ):           2.53222     1.74632     1.27729
 Zero-point vibrational energy     418643.1 (Joules/Mol)
                                  100.05810 (Kcal/Mol)
 Warning -- explicit consideration of  11 degrees of freedom as
           vibrations may cause significant error
 Vibrational temperatures:    143.75   297.46   307.82   350.70   401.52
          (Kelvin)            439.83   515.16   673.55   707.42   741.73
                              799.46   965.26  1021.52  1136.11  1202.47
                             1241.02  1250.51  1333.40  1359.64  1408.54
                             1453.30  1474.80  1517.75  1577.32  1632.93
                             1647.43  1676.33  1741.96  1767.48  1774.13
                             1823.52  1853.34  1867.13  1934.09  2028.56
                             2037.77  2134.71  2144.49  2152.74  2184.65
                             2677.94  4270.93  4358.68  4388.90  4412.51
                             4451.49  4471.44  4482.52  4504.49  4531.34
                             5430.70

 Zero-point correction=                           0.159453 (Hartree/Particle)
 Thermal correction to Energy=                    0.167648
 Thermal correction to Enthalpy=                  0.168592
 Thermal correction to Gibbs Free Energy=         0.127134
 Sum of electronic and zero-point Energies=           -423.037344
 Sum of electronic and thermal Energies=              -423.029148
 Sum of electronic and thermal Enthalpies=            -423.028204
 Sum of electronic and thermal Free Energies=         -423.069662

                     E (Thermal)             CV                S
                      KCal/Mol        Cal/Mol-Kelvin    Cal/Mol-Kelvin
 Total                  105.201             32.297             87.256
 Electronic               0.000              0.000              0.000
 Translational            0.889              2.981             40.409
 Rotational               0.889              2.981             28.433
 Vibrational            103.423             26.336             18.414
 Vibration     1          0.604              1.949              3.456
 Vibration     2          0.641              1.830              2.072
 Vibration     3          0.644              1.820              2.010
 Vibration     4          0.659              1.773              1.775
 Vibration     5          0.679              1.712              1.539
 Vibration     6          0.696              1.663              1.386
 Vibration     7          0.733              1.559              1.131
 Vibration     8          0.825              1.321              0.743
 Vibration     9          0.847              1.268              0.679
 Vibration    10          0.871              1.216              0.620
 Vibration    11          0.911              1.127              0.533

 Normal termination of Gaussian 09 at Thu Jan 30 16:14:59 2020.
