 Gaussian 09, Revision D.01,
 Gaussian 09:  ES64L-G09RevD.01 24-Apr-2013

 -----------------------------
 # b3lyp 6-31G(2df,p) opt Freq
 -----------------------------

 -----
 titel
 -----
 Symbolic Z-matrix:
 Charge =  0 Multiplicity = 1

 SCF Done:  E(RB3LYP) =  -423.125149607     A.U. after   13 cycles
 Optimization completed.
    -- Stationary point found.
 Normal termination of Gaussian 09 at Tue Jan 28 03:49:31 2020.

 ----------------------------------------------------------------------
 #N Geom=AllCheck Guess=TCheck SCRF=Check GenChk RB3LYP/6-31G(2df,p) Fr
 eq
 ----------------------------------------------------------------------

 Structure from the checkpoint file:  "/scratch/puck/g09_2affa036-3faf-4b6f-bcb1-0daff35c09a1/Gau-90595.chk"
 -----
 titel
 -----
 Charge =  0 Multiplicity = 1

                         Standard orientation:
 ---------------------------------------------------------------------
 Center     Atomic      Atomic             Coordinates (Angstroms)
 Number     Number       Type             X           Y           Z
 ---------------------------------------------------------------------
      1          6           0        2.410592   -0.969681   -0.137798
      2          6           0        1.357783   -0.141431    0.597574
      3          6           0        1.261885    1.350150    0.099034
      4          6           0       -0.020116    1.011155   -0.725132
      5          8           0       -1.272120    1.457358   -0.145715
      6          6           0       -1.339771    0.266361    0.660139
      7          6           0       -1.996813   -0.973048    0.004865
      8          8           0       -0.693962   -1.513003   -0.375008
      9          6           0       -0.055082   -0.326511    0.060265
     10          1           0        3.418606   -0.655235    0.151775
     11          1           0        2.302992   -2.033840    0.092625
     12          1           0        2.321784   -0.855329   -1.223760
     13          1           0        1.465076   -0.274895    1.679046
     14          1           0        1.066653    2.082643    0.884149
     15          1           0        2.116582    1.678370   -0.496913
     16          1           0        0.015596    1.136765   -1.808395
     17          1           0       -1.546228    0.463227    1.714263
     18          1           0       -2.520201   -1.656276    0.682150
     19          1           0       -2.623069   -0.742240   -0.862836
 ---------------------------------------------------------------------

 SCF Done:  E(RB3LYP) =  -423.125149607     A.U. after    1 cycles

 The electronic state is 1-A.
 Alpha  occ. eigenvalues --  -19.14256 -19.13884 -10.23796 -10.23540 -10.23532
 Alpha  occ. eigenvalues --  -10.23092 -10.19604 -10.18744 -10.17948  -1.06861
 Alpha  occ. eigenvalues --   -1.01832  -0.83717  -0.72508  -0.71957  -0.67207
 Alpha  occ. eigenvalues --   -0.62572  -0.58932  -0.51889  -0.51313  -0.50070
 Alpha  occ. eigenvalues --   -0.47936  -0.44825  -0.41509  -0.40884  -0.39822
 Alpha  occ. eigenvalues --   -0.38815  -0.37755  -0.35987  -0.35289  -0.33702
 Alpha  occ. eigenvalues --   -0.30792  -0.28282  -0.25567  -0.23124
 Alpha virt. eigenvalues --    0.05010   0.09374   0.10323   0.11306   0.12032
 Alpha virt. eigenvalues --    0.13161   0.14247   0.14994   0.15930   0.16856
 Alpha virt. eigenvalues --    0.17252   0.17342   0.19189   0.19875   0.21258

 Mulliken charges:
               1
     1  C   -0.393681
     2  C   -0.115115
     3  C   -0.263651
     4  C    0.034846
     5  O   -0.305930
     6  C   -0.017966
     7  C   -0.115449
     8  O   -0.339583
     9  C    0.450861
    10  H    0.115082
    11  H    0.129879
    12  H    0.119543
    13  H    0.072713
    14  H    0.115334
    15  H    0.107592
    16  H    0.087329
    17  H    0.089739
    18  H    0.111246
    19  H    0.117210
 Sum of Mulliken charges =   0.00000

 Dipole moment (field-independent basis, Debye):
    X=              0.6739    Y=             -0.0411    Z=              0.8381  Tot=              1.0762
 Quadrupole moment (field-independent basis, Debye-Ang):
   XX=            -50.2512   YY=            -58.4942   ZZ=            -50.9847
   XY=              3.3681   XZ=             -1.5298   YZ=             -1.3203

  Exact polarizability:  86.555   4.440  71.680  -1.707  -1.858  65.740
 Approx polarizability: 113.070   3.324 107.189  -2.792  -2.719 100.979

                      1                      2                      3
                      A                      A                      A
 Frequencies --    119.9586               157.3278               208.7046
 Red. masses --      2.9288                 2.8857                 2.2557
 Frc consts  --      0.0248                 0.0421                 0.0579
 IR Inten    --      0.5528                 3.8307                 1.3367

                      4                      5                      6
                      A                      A                      A
 Frequencies --    236.1908               340.6866               367.7570
 Red. masses --      1.1756                 3.0222                 3.4216
 Frc consts  --      0.0386                 0.2067                 0.2726
 IR Inten    --      0.9654                 2.2702                 1.8247

                      7                      8                      9
                      A                      A                      A
 Frequencies --    402.7800               471.3888               525.7136
 Red. masses --      2.5795                 2.2223                 4.5577
 Frc consts  --      0.2466                 0.2909                 0.7421
 IR Inten    --      0.9899                 3.9654                 3.1872

                     10                     11                     12
                      A                      A                      A
 Frequencies --    691.1895               765.3408               796.9230
 Red. masses --      3.0422                 3.0254                 2.6108
 Frc consts  --      0.8563                 1.0441                 0.9769
 IR Inten    --      3.7560                 5.4287                 4.6781

                     13                     14                     15
                      A                      A                      A
 Frequencies --    824.1276               852.7088               893.7401
 Red. masses --      2.4505                 2.5662                 2.0201
 Frc consts  --      0.9806                 1.0994                 0.9507
 IR Inten    --      8.7048                 9.2106                11.2266

                     16                     17                     18
                      A                      A                      A
 Frequencies --    911.3213               946.0059               964.8890
 Red. masses --      1.9906                 2.0542                 5.1936
 Frc consts  --      0.9741                 1.0831                 2.8489
 IR Inten    --      2.9716                 0.5589                82.5363

                     19                     20                     21
                      A                      A                      A
 Frequencies --    998.4935              1017.1368              1032.6397
 Red. masses --      2.8018                 3.4059                 2.4887
 Frc consts  --      1.6458                 2.0761                 1.5636
 IR Inten    --     32.2556                 9.3285                12.0062

                     22                     23                     24
                      A                      A                      A
 Frequencies --   1066.1951              1090.9154              1112.2138
 Red. masses --      2.0510                 2.0494                 1.8721
 Frc consts  --      1.3737                 1.4370                 1.3644
 IR Inten    --     16.5186                 5.2156                 5.1768

                     25                     26                     27
                      A                      A                      A
 Frequencies --   1126.3623              1134.8671              1163.5320
 Red. masses --      2.6933                 1.9068                 1.1710
 Frc consts  --      2.0132                 1.4469                 0.9341
 IR Inten    --     56.0093                 1.5452                 3.6852

                     28                     29                     30
                      A                      A                      A
 Frequencies --   1196.8905              1203.4754              1235.4625
 Red. masses --      1.5232                 1.8164                 1.6084
 Frc consts  --      1.2856                 1.5500                 1.4464
 IR Inten    --      1.7030                22.9885                16.7678

                     31                     32                     33
                      A                      A                      A
 Frequencies --   1267.8194              1293.3785              1302.1045
 Red. masses --      1.6732                 1.4001                 1.8081
 Frc consts  --      1.5846                 1.3799                 1.8062
 IR Inten    --      6.1651                39.6564                 6.7837

                     34                     35                     36
                      A                      A                      A
 Frequencies --   1332.8462              1357.1990              1373.6549
 Red. masses --      1.4824                 1.5386                 2.1163
 Frc consts  --      1.5516                 1.6697                 2.3528
 IR Inten    --      9.7229                 1.9951                 6.8668

                     37                     38                     39
                      A                      A                      A
 Frequencies --   1409.8956              1469.0146              1494.4390
 Red. masses --      1.2263                 1.1143                 1.0464
 Frc consts  --      1.4362                 1.4168                 1.3769
 IR Inten    --      2.2010                 7.5378                 2.5053

                     40                     41                     42
                      A                      A                      A
 Frequencies --   1497.0193              1502.1333              3031.6768
 Red. masses --      1.0570                 1.1182                 1.0352
 Frc consts  --      1.3957                 1.4866                 5.6058
 IR Inten    --      3.3733                 4.4228                23.8167

                     43                     44                     45
                      A                      A                      A
 Frequencies --   3034.6262              3047.5684              3069.9885
 Red. masses --      1.0553                 1.0851                 1.0601
 Frc consts  --      5.7258                 5.9379                 5.8868
 IR Inten    --     55.8175                24.3507                21.1520

                     46                     47                     48
                      A                      A                      A
 Frequencies --   3086.5576              3097.7287              3099.5713
 Red. masses --      1.0952                 1.1055                 1.1002
 Frc consts  --      6.1476                 6.2504                 6.2274
 IR Inten    --     20.4788                46.9217                30.3229

                     49                     50                     51
                      A                      A                      A
 Frequencies --   3102.6392              3109.4816              3133.3295
 Red. masses --      1.0914                 1.1014                 1.1078
 Frc consts  --      6.1903                 6.2746                 6.4079
 IR Inten    --     27.9626                20.8021                20.0325

 - Thermochemistry -
 -------------------
 Temperature   298.150 Kelvin.  Pressure   1.00000 Atm.
 Atom     1 has atomic number  6 and mass  12.00000

 Molecular mass:   126.06808 amu.
 Principal axes and moments of inertia in atomic units:
                           1         2         3
     Eigenvalues --   638.700361041.122751453.58199
           X            0.99984   0.01613  -0.00809
           Y           -0.01616   0.99986  -0.00399
           Z            0.00802   0.00412   0.99996
 This molecule is an asymmetric top.
 Rotational symmetry number  1.
 Warning -- assumption of classical behavior for rotation
           may cause significant error
 Rotational temperatures (Kelvin)      0.13561     0.08319     0.05959
 Rotational constants (GHZ):           2.82565     1.73346     1.24158
 Zero-point vibrational energy     418499.2 (Joules/Mol)
                                  100.02372 (Kcal/Mol)
 Warning -- explicit consideration of   9 degrees of freedom as
           vibrations may cause significant error
 Vibrational temperatures:    172.59   226.36   300.28   339.83   490.17
          (Kelvin)            529.12   579.51   678.22   756.38   994.47
                             1101.15  1146.59  1185.73  1226.86  1285.89
                             1311.19  1361.09  1388.26  1436.61  1463.43
                             1485.74  1534.01  1569.58  1600.23  1620.58
                             1632.82  1674.06  1722.06  1731.53  1777.55
                             1824.11  1860.88  1873.44  1917.67  1952.70
                             1976.38  2028.52  2113.58  2150.16  2153.87
                             2161.23  4361.90  4366.14  4384.77  4417.02
                             4440.86  4456.94  4459.59  4464.00  4473.84
                             4508.16

 Zero-point correction=                           0.159398 (Hartree/Particle)
 Thermal correction to Energy=                    0.167083
 Thermal correction to Enthalpy=                  0.168027
 Thermal correction to Gibbs Free Energy=         0.127406
 Sum of electronic and zero-point Energies=           -422.965752
 Sum of electronic and thermal Energies=              -422.958067
 Sum of electronic and thermal Enthalpies=            -422.957122
 Sum of electronic and thermal Free Energies=         -422.997743

                     E (Thermal)             CV                S
                      KCal/Mol        Cal/Mol-Kelvin    Cal/Mol-Kelvin
 Total                  104.846             30.274             85.494
 Electronic               0.000              0.000              0.000
 Translational            0.889              2.981             40.409
 Rotational               0.889              2.981             28.360
 Vibrational            103.069             24.313             16.725
 Vibration     1          0.609              1.933              3.101
 Vibration     2          0.621              1.894              2.582
 Vibration     3          0.642              1.827              2.055
 Vibration     4          0.655              1.785              1.831
 Vibration     5          0.720              1.594              1.209
 Vibration     6          0.740              1.539              1.089
 Vibration     7          0.768              1.464              0.952
 Vibration     8          0.828              1.314              0.734
 Vibration     9          0.881              1.193              0.597

 Optimization completed.
    -- Stationary point found.
 Normal termination of Gaussian 09 at Tue Jan 28 04:33:02 2020.
