 Gaussian 09, Revision D.01,
 Gaussian 09:  ES64L-G09RevD.01 24-Apr-2013

 -----------------------------
 # b3lyp 6-31G(2df,p) opt Freq
 -----------------------------

 -----
 titel
 -----
 Symbolic Z-matrix:
 Charge =  0 Multiplicity = 1

 SCF Done:  E(RB3LYP) =  -423.148561532     A.U. after   14 cycles
 Optimization completed.
    -- Stationary point found.
 Normal termination of Gaussian 09 at Tue Jan 28 02:23:41 2020.

 ----------------------------------------------------------------------
 #N Geom=AllCheck Guess=TCheck SCRF=Check GenChk RB3LYP/6-31G(2df,p) Fr
 eq
 ----------------------------------------------------------------------

 Structure from the checkpoint file:  "/scratch/puck/g09_44cc3912-546f-4c19-9c07-334bcb52843a/Gau-194429.chk"
 -----
 titel
 -----
 Charge =  0 Multiplicity = 1

                         Standard orientation:
 ---------------------------------------------------------------------
 Center     Atomic      Atomic             Coordinates (Angstroms)
 Number     Number       Type             X           Y           Z
 ---------------------------------------------------------------------
      1          6           0        2.607273   -0.548363   -0.242723
      2          6           0        1.264962   -0.499180    0.484021
      3          6           0        0.114299   -1.283668   -0.217727
      4          6           0       -1.116863   -0.394687   -0.040007
      5          8           0       -2.390098   -0.953910    0.032515
      6          6           0       -1.004426    1.037783   -0.545157
      7          8           0        0.361369    1.387383   -0.764464
      8          6           0        0.672811    0.909585    0.594351
      9          6           0       -0.825021    0.743388    0.914640
     10          1           0        2.961166   -1.578279   -0.353038
     11          1           0        2.510602   -0.108850   -1.239952
     12          1           0        3.375417    0.010811    0.302692
     13          1           0        1.384792   -0.882080    1.506546
     14          1           0        0.345276   -1.454936   -1.275215
     15          1           0       -0.065552   -2.257137    0.247269
     16          1           0       -2.658947   -1.203813   -0.858395
     17          1           0       -1.777759    1.560130   -1.097690
     18          1           0        1.265957    1.643915    1.143241
     19          1           0       -1.389334    1.013315    1.795754
 ---------------------------------------------------------------------

 SCF Done:  E(RB3LYP) =  -423.148561532     A.U. after    1 cycles

 The electronic state is 1-A.
 Alpha  occ. eigenvalues --  -19.14984 -19.13346 -10.23789 -10.23572 -10.23354
 Alpha  occ. eigenvalues --  -10.18920 -10.18623 -10.17931 -10.17106  -1.05511
 Alpha  occ. eigenvalues --   -1.02870  -0.83785  -0.78697  -0.69808  -0.68367
 Alpha  occ. eigenvalues --   -0.59089  -0.56855  -0.54401  -0.53251  -0.48017
 Alpha  occ. eigenvalues --   -0.46729  -0.44926  -0.42078  -0.40579  -0.40035
 Alpha  occ. eigenvalues --   -0.37949  -0.37481  -0.34954  -0.33550  -0.32965
 Alpha  occ. eigenvalues --   -0.30505  -0.29161  -0.26144  -0.21796
 Alpha virt. eigenvalues --    0.06794   0.08279   0.10237   0.12070   0.13562
 Alpha virt. eigenvalues --    0.13818   0.15366   0.15488   0.15865   0.16993
 Alpha virt. eigenvalues --    0.17838   0.18166   0.19858   0.22176   0.22980

 Mulliken charges:
               1
     1  C   -0.411147
     2  C    0.044386
     3  C   -0.311444
     4  C    0.358098
     5  O   -0.473852
     6  C    0.026825
     7  O   -0.310695
     8  C    0.073296
     9  C   -0.202162
    10  H    0.112721
    11  H    0.135052
    12  H    0.109374
    13  H    0.073864
    14  H    0.099040
    15  H    0.105111
    16  H    0.286222
    17  H    0.102642
    18  H    0.078840
    19  H    0.103830
 Sum of Mulliken charges =   0.00000

 Dipole moment (field-independent basis, Debye):
    X=             -0.1660    Y=             -0.7311    Z=              0.0299  Tot=              0.7503
 Quadrupole moment (field-independent basis, Debye-Ang):
   XX=            -52.4772   YY=            -54.0423   ZZ=            -51.2932
   XY=             -1.3703   XZ=              5.5683   YZ=              3.7454

  Exact polarizability:  83.224  -0.388  71.024   3.323   2.087  66.289
 Approx polarizability: 109.656   3.613 104.527   4.190  -0.204 108.104

                      1                      2                      3
                      A                      A                      A
 Frequencies --    132.6605               232.0890               241.9317
 Red. masses --      2.7135                 1.5082                 1.6627
 Frc consts  --      0.0281                 0.0479                 0.0573
 IR Inten    --      0.0729                 0.6438                 1.0785

                      4                      5                      6
                      A                      A                      A
 Frequencies --    280.1231               327.2181               349.5058
 Red. masses --      1.4899                 2.6971                 2.4265
 Frc consts  --      0.0689                 0.1701                 0.1746
 IR Inten    --     40.2708                51.6644                18.7360

                      7                      8                      9
                      A                      A                      A
 Frequencies --    393.1072               467.8431               487.6082
 Red. masses --      2.8668                 3.2010                 3.4277
 Frc consts  --      0.2610                 0.4128                 0.4802
 IR Inten    --      7.6951                 1.9746                 2.6281

                     10                     11                     12
                      A                      A                      A
 Frequencies --    584.0867               626.7413               752.4176
 Red. masses --      4.5694                 3.2671                 3.6397
 Frc consts  --      0.9185                 0.7561                 1.2141
 IR Inten    --      1.9751                 2.0696                 4.9279

                     13                     14                     15
                      A                      A                      A
 Frequencies --    770.9524               828.0217               857.7683
 Red. masses --      3.3948                 1.6857                 2.4178
 Frc consts  --      1.1888                 0.6809                 1.0481
 IR Inten    --      3.6166                11.1414                 2.3971

                     16                     17                     18
                      A                      A                      A
 Frequencies --    885.1391               904.8314               929.9150
 Red. masses --      1.8635                 2.6076                 2.0463
 Frc consts  --      0.8602                 1.2578                 1.0426
 IR Inten    --     10.8224                25.8555                 7.9209

                     19                     20                     21
                      A                      A                      A
 Frequencies --    938.8114               959.4740              1013.9182
 Red. masses --      1.4896                 1.7666                 2.6720
 Frc consts  --      0.7735                 0.9582                 1.6184
 IR Inten    --      0.6431                23.0963                32.3511

                     22                     23                     24
                      A                      A                      A
 Frequencies --   1022.6607              1036.3481              1087.6528
 Red. masses --      2.0730                 2.4260                 2.8124
 Frc consts  --      1.2773                 1.5352                 1.9602
 IR Inten    --      3.8604                12.7911                 5.0470

                     25                     26                     27
                      A                      A                      A
 Frequencies --   1115.8245              1131.1645              1154.4879
 Red. masses --      2.1502                 1.5039                 2.2198
 Frc consts  --      1.5773                 1.1338                 1.7432
 IR Inten    --     30.0901                21.2168                19.3470

                     28                     29                     30
                      A                      A                      A
 Frequencies --   1202.0097              1213.9103              1237.9005
 Red. masses --      1.5495                 1.3416                 1.9939
 Frc consts  --      1.3190                 1.1648                 1.8002
 IR Inten    --      5.1138                16.7006                 1.6341

                     31                     32                     33
                      A                      A                      A
 Frequencies --   1262.8344              1287.3334              1307.9530
 Red. masses --      1.4856                 1.7942                 1.4486
 Frc consts  --      1.3959                 1.7518                 1.4601
 IR Inten    --      3.5203                40.3408                59.2646

                     34                     35                     36
                      A                      A                      A
 Frequencies --   1324.5414              1343.4882              1360.7540
 Red. masses --      2.3780                 1.4423                 1.6918
 Frc consts  --      2.4580                 1.5339                 1.8457
 IR Inten    --     11.4056                 7.8032                 1.3059

                     37                     38                     39
                      A                      A                      A
 Frequencies --   1406.6732              1429.5176              1492.9570
 Red. masses --      1.2516                 2.5555                 1.0963
 Frc consts  --      1.4591                 3.0769                 1.4397
 IR Inten    --      2.7962                 5.8942                 0.9573

                     40                     41                     42
                      A                      A                      A
 Frequencies --   1496.9564              1504.2986              3014.6405
 Red. masses --      1.0584                 1.0544                 1.0832
 Frc consts  --      1.3974                 1.4057                 5.7998
 IR Inten    --      3.5162                 2.9295                20.8590

                     43                     44                     45
                      A                      A                      A
 Frequencies --   3032.9517              3040.2903              3090.3871
 Red. masses --      1.0364                 1.0608                 1.1017
 Frc consts  --      5.6170                 5.7774                 6.1992
 IR Inten    --     25.5651                34.4130                26.8176

                     46                     47                     48
                      A                      A                      A
 Frequencies --   3093.4188              3098.0265              3114.7173
 Red. masses --      1.0916                 1.1001                 1.1013
 Frc consts  --      6.1544                 6.2206                 6.2952
 IR Inten    --     19.7004                41.5411                23.1339

                     49                     50                     51
                      A                      A                      A
 Frequencies --   3174.3073              3216.5447              3794.8079
 Red. masses --      1.0922                 1.0981                 1.0662
 Frc consts  --      6.4840                 6.6937                 9.0459
 IR Inten    --     23.1145                 5.6984                23.2737

 - Thermochemistry -
 -------------------
 Temperature   298.150 Kelvin.  Pressure   1.00000 Atm.
 Atom     1 has atomic number  6 and mass  12.00000

 Molecular mass:   126.06808 amu.
 Principal axes and moments of inertia in atomic units:
                           1         2         3
     Eigenvalues --   587.866751146.362631424.15367
           X            0.99935  -0.03552   0.00605
           Y            0.03520   0.99830   0.04636
           Z           -0.00769  -0.04612   0.99891
 This molecule is an asymmetric top.
 Rotational symmetry number  1.
 Warning -- assumption of classical behavior for rotation
           may cause significant error
 Rotational temperatures (Kelvin)      0.14734     0.07556     0.06082
 Rotational constants (GHZ):           3.06998     1.57432     1.26724
 Zero-point vibrational energy     419013.1 (Joules/Mol)
                                  100.14654 (Kcal/Mol)
 Warning -- explicit consideration of  10 degrees of freedom as
           vibrations may cause significant error
 Vibrational temperatures:    190.87   333.92   348.09   403.03   470.79
          (Kelvin)            502.86   565.59   673.12   701.56   840.37
                              901.74  1082.56  1109.23  1191.34  1234.14
                             1273.52  1301.85  1337.94  1350.74  1380.47
                             1458.80  1471.38  1491.07  1564.89  1605.42
                             1627.49  1661.05  1729.42  1746.54  1781.06
                             1816.93  1852.18  1881.85  1905.72  1932.98
                             1957.82  2023.89  2056.75  2148.03  2153.78
                             2164.35  4337.39  4363.74  4374.29  4446.37
                             4450.73  4457.36  4481.38  4567.11  4627.88
                             5459.88

 Zero-point correction=                           0.159594 (Hartree/Particle)
 Thermal correction to Energy=                    0.167313
 Thermal correction to Enthalpy=                  0.168257
 Thermal correction to Gibbs Free Energy=         0.127920
 Sum of electronic and zero-point Energies=           -422.988968
 Sum of electronic and thermal Energies=              -422.981249
 Sum of electronic and thermal Enthalpies=            -422.980305
 Sum of electronic and thermal Free Energies=         -423.020641

                     E (Thermal)             CV                S
                      KCal/Mol        Cal/Mol-Kelvin    Cal/Mol-Kelvin
 Total                  104.990             31.390             84.895
 Electronic               0.000              0.000              0.000
 Translational            0.889              2.981             40.409
 Rotational               0.889              2.981             28.353
 Vibrational            103.213             25.429             16.134
 Vibration     1          0.613              1.921              2.907
 Vibration     2          0.653              1.792              1.863
 Vibration     3          0.658              1.776              1.789
 Vibration     4          0.680              1.710              1.533
 Vibration     5          0.711              1.621              1.274
 Vibration     6          0.727              1.576              1.168
 Vibration     7          0.760              1.485              0.988
 Vibration     8          0.825              1.321              0.744
 Vibration     9          0.844              1.278              0.690
 Vibration    10          0.941              1.066              0.478

 Optimization completed.
    -- Stationary point found.
 Normal termination of Gaussian 09 at Tue Jan 28 03:09:43 2020.
