 Gaussian 09, Revision D.01,
 Gaussian 09:  ES64L-G09RevD.01 24-Apr-2013

 -----------------------------
 # b3lyp 6-31G(2df,p) opt Freq
 -----------------------------

 -----
 titel
 -----
 Symbolic Z-matrix:
 Charge =  0 Multiplicity = 1

 SCF Done:  E(RB3LYP) =  -423.167506848     A.U. after   14 cycles
 Optimization completed.
    -- Stationary point found.
 Normal termination of Gaussian 09 at Mon Jan 27 12:55:44 2020.

 ----------------------------------------------------------------------
 #N Geom=AllCheck Guess=TCheck SCRF=Check GenChk RB3LYP/6-31G(2df,p) Fr
 eq
 ----------------------------------------------------------------------

 Structure from the checkpoint file:  "/scratch/puck/g09_075d1291-0c7d-4b89-b45a-e238590595b3/Gau-50571.chk"
 -----
 titel
 -----
 Charge =  0 Multiplicity = 1

                         Standard orientation:
 ---------------------------------------------------------------------
 Center     Atomic      Atomic             Coordinates (Angstroms)
 Number     Number       Type             X           Y           Z
 ---------------------------------------------------------------------
      1          8           0        1.265061    1.745771   -0.379511
      2          6           0        0.600302    0.827567    0.055251
      3          6           0       -0.864756    1.028863    0.445873
      4          6           0       -1.815470    0.215417   -0.408441
      5          6           0       -3.069595   -0.327818    0.127691
      6          8           0       -1.941438   -1.175906   -0.097670
      7          6           0        1.159226   -0.540279    0.241393
      8          6           0        2.255016   -0.979487   -0.721402
      9          6           0        2.617037   -0.635337    0.679719
     10          1           0       -0.999228    0.735435    1.494076
     11          1           0       -1.091567    2.094098    0.343924
     12          1           0       -1.769439    0.422888   -1.478351
     13          1           0       -3.322616   -0.153653    1.172778
     14          1           0       -3.917455   -0.493445   -0.534917
     15          1           0        0.471331   -1.295955    0.598473
     16          1           0        2.250761   -2.019850   -1.024839
     17          1           0        2.511682   -0.262963   -1.493017
     18          1           0        2.870630   -1.430971    1.370675
     19          1           0        3.116367    0.311935    0.848135
 ---------------------------------------------------------------------

 SCF Done:  E(RB3LYP) =  -423.167506848     A.U. after    1 cycles

 The electronic state is 1-A.
 Alpha  occ. eigenvalues --  -19.16081 -19.12248 -10.26545 -10.25181 -10.24294
 Alpha  occ. eigenvalues --  -10.19736 -10.19432 -10.19368 -10.19283  -1.08028
 Alpha  occ. eigenvalues --   -1.03368  -0.85978  -0.77601  -0.68008  -0.64484
 Alpha  occ. eigenvalues --   -0.60825  -0.60236  -0.53327  -0.51999  -0.49218
 Alpha  occ. eigenvalues --   -0.48566  -0.46223  -0.43010  -0.42297  -0.40406
 Alpha  occ. eigenvalues --   -0.39430  -0.37408  -0.36943  -0.35539  -0.32083
 Alpha  occ. eigenvalues --   -0.30641  -0.28897  -0.27811  -0.24227
 Alpha virt. eigenvalues --   -0.01578   0.09554   0.09899   0.10196   0.11541
 Alpha virt. eigenvalues --    0.12074   0.13024   0.14046   0.14744   0.15754
 Alpha virt. eigenvalues --    0.16653   0.18010   0.19395   0.21755   0.22937

 Mulliken charges:
               1
     1  O   -0.336168
     2  C    0.367237
     3  C   -0.328744
     4  C    0.088237
     5  C   -0.178729
     6  O   -0.226484
     7  C   -0.097546
     8  C   -0.249145
     9  C   -0.252973
    10  H    0.118643
    11  H    0.124697
    12  H    0.107668
    13  H    0.117357
    14  H    0.120413
    15  H    0.113696
    16  H    0.120298
    17  H    0.136645
    18  H    0.118594
    19  H    0.136305
 Sum of Mulliken charges =   0.00000

 Dipole moment (field-independent basis, Debye):
    X=             -1.7874    Y=             -0.7720    Z=              0.8460  Tot=              2.1229
 Quadrupole moment (field-independent basis, Debye-Ang):
   XX=            -48.5511   YY=            -58.4307   ZZ=            -51.0062
   XY=             -6.5316   XZ=              0.9540   YZ=              0.9657

  Exact polarizability:  94.850  -1.080  72.448  -2.192  -1.079  64.832
 Approx polarizability: 119.552   2.980 115.713  -5.687  -5.718  98.924

                      1                      2                      3
                      A                      A                      A
 Frequencies --     46.8658                60.4652                84.5817
 Red. masses --      4.3114                 2.8277                 3.9431
 Frc consts  --      0.0056                 0.0061                 0.0166
 IR Inten    --      7.9083                 0.0481                 4.0983

                      4                      5                      6
                      A                      A                      A
 Frequencies --    161.0480               238.1376               263.9511
 Red. masses --      3.6112                 3.9547                 2.7252
 Frc consts  --      0.0552                 0.1321                 0.1119
 IR Inten    --      0.1251                 3.4412                 0.8138

                      7                      8                      9
                      A                      A                      A
 Frequencies --    322.9934               350.1289               458.8959
 Red. masses --      3.9571                 4.0043                 2.0431
 Frc consts  --      0.2432                 0.2892                 0.2535
 IR Inten    --      3.6122                 1.8394                 8.3626

                     10                     11                     12
                      A                      A                      A
 Frequencies --    591.6904               718.5746               752.0729
 Red. masses --      3.5106                 3.2274                 2.2452
 Frc consts  --      0.7241                 0.9818                 0.7482
 IR Inten    --      9.0743                 7.5189                 3.2135

                     13                     14                     15
                      A                      A                      A
 Frequencies --    798.3808               813.2196               832.4203
 Red. masses --      1.8932                 1.6751                 2.4362
 Frc consts  --      0.7110                 0.6527                 0.9946
 IR Inten    --      5.3333                 6.2108                 4.3581

                     16                     17                     18
                      A                      A                      A
 Frequencies --    857.8161               899.0973               920.1141
 Red. masses --      1.6546                 1.9544                 3.1671
 Frc consts  --      0.7173                 0.9309                 1.5798
 IR Inten    --     13.7996                 8.0330                29.2369

                     19                     20                     21
                      A                      A                      A
 Frequencies --    939.1797               962.1527              1059.0372
 Red. masses --      2.4443                 3.5490                 1.2982
 Frc consts  --      1.2703                 1.9357                 0.8579
 IR Inten    --     26.6060                10.8272                22.0424

                     22                     23                     24
                      A                      A                      A
 Frequencies --   1078.5962              1092.9953              1100.0932
 Red. masses --      1.3793                 1.3197                 1.5832
 Frc consts  --      0.9454                 0.9289                 1.1288
 IR Inten    --      9.5931                 4.3208                 0.9218

                     25                     26                     27
                      A                      A                      A
 Frequencies --   1112.6145              1140.0163              1151.1291
 Red. masses --      1.5632                 1.1158                 1.6143
 Frc consts  --      1.1401                 0.8544                 1.2604
 IR Inten    --     20.7674                 0.6856                45.1786

                     28                     29                     30
                      A                      A                      A
 Frequencies --   1162.2980              1179.3823              1211.8764
 Red. masses --      1.4389                 1.5864                 1.3627
 Frc consts  --      1.1453                 1.3001                 1.1792
 IR Inten    --     11.6446                28.8329                 0.5072

                     31                     32                     33
                      A                      A                      A
 Frequencies --   1222.5986              1247.1117              1286.7137
 Red. masses --      2.0427                 1.3712                 1.6453
 Frc consts  --      1.7989                 1.2565                 1.6050
 IR Inten    --      5.5789                15.4117                 9.1413

                     34                     35                     36
                      A                      A                      A
 Frequencies --   1304.8592              1412.5279              1432.8598
 Red. masses --      1.4195                 1.8547                 1.7434
 Frc consts  --      1.4240                 2.1804                 2.1089
 IR Inten    --      0.0631                92.4102                22.8737

                     37                     38                     39
                      A                      A                      A
 Frequencies --   1453.8474              1454.7793              1485.5225
 Red. masses --      1.0898                 1.0996                 1.3594
 Frc consts  --      1.3572                 1.3711                 1.7675
 IR Inten    --      4.9344                 5.8885                10.6053

                     40                     41                     42
                      A                      A                      A
 Frequencies --   1527.6921              1786.1607              3037.7684
 Red. masses --      1.3148                10.4141                 1.0607
 Frc consts  --      1.8079                19.5756                 5.7670
 IR Inten    --      3.5168               133.8657                 5.2368

                     43                     44                     45
                      A                      A                      A
 Frequencies --   3085.1214              3098.2020              3111.7845
 Red. masses --      1.0501                 1.0938                 1.0958
 Frc consts  --      5.8890                 6.1857                 6.2520
 IR Inten    --     28.5970                 4.1084                23.8358

                     46                     47                     48
                      A                      A                      A
 Frequencies --   3140.8908              3143.4876              3173.4294
 Red. masses --      1.0505                 1.0561                 1.1195
 Frc consts  --      6.1059                 6.1487                 6.6428
 IR Inten    --     14.3261                 9.7999                25.3576

                     49                     50                     51
                      A                      A                      A
 Frequencies --   3200.2509              3228.9071              3243.9447
 Red. masses --      1.0907                 1.1189                 1.1165
 Frc consts  --      6.5816                 6.8731                 6.9226
 IR Inten    --      0.8589                 0.3425                 5.3937

 - Thermochemistry -
 -------------------
 Temperature   298.150 Kelvin.  Pressure   1.00000 Atm.
 Atom     1 has atomic number  8 and mass  15.99491

 Molecular mass:   126.06808 amu.
 Principal axes and moments of inertia in atomic units:
                           1         2         3
     Eigenvalues --   566.694681804.235442141.91251
           X            0.99957  -0.02937  -0.00087
           Y            0.02938   0.99948   0.01310
           Z            0.00048  -0.01312   0.99991
 This molecule is an asymmetric top.
 Rotational symmetry number  1.
 Warning -- assumption of classical behavior for rotation
           may cause significant error
 Rotational temperatures (Kelvin)      0.15284     0.04801     0.04044
 Rotational constants (GHZ):           3.18468     1.00028     0.84258
 Zero-point vibrational energy     415333.2 (Joules/Mol)
                                   99.26701 (Kcal/Mol)
 Warning -- explicit consideration of  10 degrees of freedom as
           vibrations may cause significant error
 Vibrational temperatures:     67.43    87.00   121.69   231.71   342.63
          (Kelvin)            379.77   464.71   503.76   660.25   851.31
                             1033.87  1082.06  1148.69  1170.04  1197.67
                             1234.20  1293.60  1323.84  1351.27  1384.32
                             1523.72  1551.86  1572.57  1582.79  1600.80
                             1640.23  1656.22  1672.29  1696.87  1743.62
                             1759.04  1794.31  1851.29  1877.40  2032.31
                             2061.56  2091.76  2093.10  2137.33  2198.01
                             2569.88  4370.67  4438.80  4457.62  4477.16
                             4519.04  4522.77  4565.85  4604.44  4645.67
                             4667.31

 Zero-point correction=                           0.158192 (Hartree/Particle)
 Thermal correction to Energy=                    0.167206
 Thermal correction to Enthalpy=                  0.168150
 Thermal correction to Gibbs Free Energy=         0.123014
 Sum of electronic and zero-point Energies=           -423.009315
 Sum of electronic and thermal Energies=              -423.000301
 Sum of electronic and thermal Enthalpies=            -422.999357
 Sum of electronic and thermal Free Energies=         -423.044493

                     E (Thermal)             CV                S
                      KCal/Mol        Cal/Mol-Kelvin    Cal/Mol-Kelvin
 Total                  104.923             32.490             94.998
 Electronic               0.000              0.000              0.000
 Translational            0.889              2.981             40.409
 Rotational               0.889              2.981             29.173
 Vibrational            103.146             26.528             25.417
 Vibration     1          0.595              1.979              4.945
 Vibration     2          0.597              1.973              4.442
 Vibration     3          0.601              1.960              3.782
 Vibration     4          0.622              1.890              2.537
 Vibration     5          0.656              1.782              1.817
 Vibration     6          0.671              1.739              1.635
 Vibration     7          0.708              1.629              1.295
 Vibration     8          0.727              1.575              1.166
 Vibration     9          0.817              1.341              0.769
 Vibration    10          0.949              1.049              0.464

 Optimization completed.
    -- Stationary point found.
 Normal termination of Gaussian 09 at Mon Jan 27 13:31:34 2020.
