 Gaussian 09, Revision D.01,
 Gaussian 09:  ES64L-G09RevD.01 24-Apr-2013

 -----------------------------
 # b3lyp 6-31G(2df,p) opt Freq
 -----------------------------

 -----
 titel
 -----
 Symbolic Z-matrix:
 Charge =  0 Multiplicity = 1

 SCF Done:  E(RB3LYP) =  -423.206068574     A.U. after   14 cycles
 Optimization completed.
    -- Stationary point found.
 Normal termination of Gaussian 09 at Tue Jan 28 08:13:07 2020.

 ----------------------------------------------------------------------
 #N Geom=AllCheck Guess=TCheck SCRF=Check GenChk RB3LYP/6-31G(2df,p) Fr
 eq
 ----------------------------------------------------------------------

 Structure from the checkpoint file:  "/scratch/puck/g09_3f91e811-a51e-42a0-9a67-5f80c2233043/Gau-43525.chk"
 -----
 titel
 -----
 Charge =  0 Multiplicity = 1

                         Standard orientation:
 ---------------------------------------------------------------------
 Center     Atomic      Atomic             Coordinates (Angstroms)
 Number     Number       Type             X           Y           Z
 ---------------------------------------------------------------------
      1          8           0        1.031383    2.053928   -0.190883
      2          6           0        0.963021    0.760601    0.397986
      3          6           0        2.302001   -0.019272    0.395538
      4          6           0        1.930536   -1.495755    0.115374
      5          6           0        0.540481   -1.395872   -0.462968
      6          6           0        0.002431   -0.184008   -0.309690
      7          6           0       -1.375525    0.268328   -0.711178
      8          6           0       -2.367404    0.121563    0.432103
      9          8           0       -3.431829   -0.431811    0.343038
     10          1           0        1.351548    1.943629   -1.093832
     11          1           0        0.622571    0.962689    1.422417
     12          1           0        2.917462    0.372860   -0.422582
     13          1           0        2.871539    0.118353    1.317109
     14          1           0        2.637227   -1.993651   -0.558081
     15          1           0        1.921185   -2.090484    1.038923
     16          1           0        0.037291   -2.242215   -0.919973
     17          1           0       -1.331295    1.335356   -0.971460
     18          1           0       -1.763709   -0.288316   -1.567580
     19          1           0       -2.033492    0.571337    1.394844
 ---------------------------------------------------------------------

 SCF Done:  E(RB3LYP) =  -423.206068574     A.U. after    1 cycles

 The electronic state is 1-A.
 Alpha  occ. eigenvalues --  -19.14420 -19.13845 -10.27231 -10.24002 -10.19720
 Alpha  occ. eigenvalues --  -10.19455 -10.19450 -10.19118 -10.18985  -1.04576
 Alpha  occ. eigenvalues --   -1.02564  -0.85011  -0.77538  -0.70596  -0.68821
 Alpha  occ. eigenvalues --   -0.59988  -0.57848  -0.54771  -0.50207  -0.48214
 Alpha  occ. eigenvalues --   -0.46696  -0.44558  -0.43580  -0.42439  -0.41941
 Alpha  occ. eigenvalues --   -0.39292  -0.37388  -0.36038  -0.35879  -0.34894
 Alpha  occ. eigenvalues --   -0.32668  -0.27715  -0.26844  -0.23721
 Alpha virt. eigenvalues --   -0.02154   0.01017   0.07829   0.09543   0.09692
 Alpha virt. eigenvalues --    0.12595   0.12942   0.14567   0.16110   0.16338
 Alpha virt. eigenvalues --    0.18086   0.18935   0.19966   0.20493   0.21960

 Mulliken charges:
               1
     1  O   -0.428292
     2  C    0.053632
     3  C   -0.240727
     4  C   -0.255070
     5  C   -0.162874
     6  C    0.248272
     7  C   -0.384553
     8  C    0.167162
     9  O   -0.237277
    10  H    0.275746
    11  H    0.095446
    12  H    0.099414
    13  H    0.108370
    14  H    0.108002
    15  H    0.115860
    16  H    0.101044
    17  H    0.133541
    18  H    0.123932
    19  H    0.078373
 Sum of Mulliken charges =   0.00000

 Dipole moment (field-independent basis, Debye):
    X=              3.0185    Y=             -0.3607    Z=             -0.8795  Tot=              3.1646
 Quadrupole moment (field-independent basis, Debye-Ang):
   XX=            -63.2750   YY=            -55.5814   ZZ=            -49.9470
   XY=             -4.3782   XZ=              0.0986   YZ=             -1.1879

  Exact polarizability:  93.442  -4.533  79.373   1.787   2.796  64.446
 Approx polarizability: 125.616  -5.512 126.287   0.733   5.203  98.775

                      1                      2                      3
                      A                      A                      A
 Frequencies --     39.2083                59.9619                81.5665
 Red. masses --      4.1932                 4.1449                 2.4318
 Frc consts  --      0.0038                 0.0088                 0.0095
 IR Inten    --      1.4004                 4.4238                 2.3714

                      4                      5                      6
                      A                      A                      A
 Frequencies --    154.8527               231.9713               276.2220
 Red. masses --      2.5914                 3.7365                 2.2134
 Frc consts  --      0.0366                 0.1185                 0.0995
 IR Inten    --      1.7315                 1.0968                 5.3309

                      7                      8                      9
                      A                      A                      A
 Frequencies --    347.7391               394.5505               419.8365
 Red. masses --      1.2762                 2.1131                 2.8877
 Frc consts  --      0.0909                 0.1938                 0.2999
 IR Inten    --     56.5955                31.0736                12.5166

                     10                     11                     12
                      A                      A                      A
 Frequencies --    459.6288               574.3436               650.1759
 Red. masses --      3.8896                 3.5686                 2.5190
 Frc consts  --      0.4841                 0.6936                 0.6274
 IR Inten    --     28.5390                 5.9932                 5.8255

                     13                     14                     15
                      A                      A                      A
 Frequencies --    681.3679               801.3572               810.5691
 Red. masses --      3.0727                 3.1367                 1.8574
 Frc consts  --      0.8405                 1.1868                 0.7190
 IR Inten    --      0.2572                 3.6904                 1.8875

                     16                     17                     18
                      A                      A                      A
 Frequencies --    840.1066               881.6330               931.5779
 Red. masses --      1.5095                 1.3865                 2.5151
 Frc consts  --      0.6277                 0.6350                 1.2860
 IR Inten    --     24.0930                 0.4094                 3.2612

                     19                     20                     21
                      A                      A                      A
 Frequencies --    958.0552              1005.4970              1041.3409
 Red. masses --      2.2818                 2.1324                 2.3499
 Frc consts  --      1.2340                 1.2702                 1.5013
 IR Inten    --      7.2765                 4.9145                36.9995

                     22                     23                     24
                      A                      A                      A
 Frequencies --   1045.4821              1058.6004              1093.0955
 Red. masses --      1.6997                 2.4434                 3.7013
 Frc consts  --      1.0946                 1.6133                 2.6057
 IR Inten    --     16.7292                15.2807                87.7362

                     25                     26                     27
                      A                      A                      A
 Frequencies --   1143.6721              1186.9821              1196.0424
 Red. masses --      1.2654                 2.0499                 1.2571
 Frc consts  --      0.9752                 1.7016                 1.0596
 IR Inten    --      4.8311                 7.4289                13.4461

                     28                     29                     30
                      A                      A                      A
 Frequencies --   1236.3264              1258.1994              1282.9823
 Red. masses --      1.2853                 1.4014                 1.3841
 Frc consts  --      1.1575                 1.3072                 1.3423
 IR Inten    --      0.8635                 2.4793                 3.7976

                     31                     32                     33
                      A                      A                      A
 Frequencies --   1290.7263              1318.4874              1329.0266
 Red. masses --      1.5033                 1.4005                 1.5504
 Frc consts  --      1.4756                 1.4345                 1.6135
 IR Inten    --      2.4542                 3.4502                 1.8021

                     34                     35                     36
                      A                      A                      A
 Frequencies --   1357.3579              1424.8646              1429.4840
 Red. masses --      1.8332                 1.2090                 1.1880
 Frc consts  --      1.9900                 1.4461                 1.4303
 IR Inten    --      5.4822                55.9460                15.1316

                     37                     38                     39
                      A                      A                      A
 Frequencies --   1456.6190              1482.0517              1499.7511
 Red. masses --      1.0960                 1.0806                 1.0967
 Frc consts  --      1.3701                 1.3984                 1.4534
 IR Inten    --      5.3508                 2.3600                 1.2512

                     40                     41                     42
                      A                      A                      A
 Frequencies --   1714.1014              1833.1376              2871.7235
 Red. masses --      7.3954                10.0819                 1.0824
 Frc consts  --     12.8023                19.9610                 5.2593
 IR Inten    --      0.5032               214.3467                93.5769

                     43                     44                     45
                      A                      A                      A
 Frequencies --   3016.4790              3017.2822              3020.0966
 Red. masses --      1.0756                 1.0716                 1.0665
 Frc consts  --      5.7663                 5.7478                 5.7313
 IR Inten    --     29.9652                26.8526                15.2811

                     46                     47                     48
                      A                      A                      A
 Frequencies --   3039.9235              3058.2688              3108.1120
 Red. masses --      1.0723                 1.0895                 1.0970
 Frc consts  --      5.8382                 6.0037                 6.2438
 IR Inten    --     17.5719                39.2874                 4.5932

                     49                     50                     51
                      A                      A                      A
 Frequencies --   3108.8939              3183.0798              3788.5228
 Red. masses --      1.0981                 1.0937                 1.0658
 Frc consts  --      6.2531                 6.5292                 9.0133
 IR Inten    --     33.3729                11.8972                12.5078

 - Thermochemistry -
 -------------------
 Temperature   298.150 Kelvin.  Pressure   1.00000 Atm.
 Atom     1 has atomic number  8 and mass  15.99491

 Molecular mass:   126.06808 amu.
 Principal axes and moments of inertia in atomic units:
                           1         2         3
     Eigenvalues --   645.312361743.577892165.91123
           X            0.99969  -0.02322   0.00847
           Y            0.02321   0.99973   0.00115
           Z           -0.00849  -0.00095   0.99996
 This molecule is an asymmetric top.
 Rotational symmetry number  1.
 Warning -- assumption of classical behavior for rotation
           may cause significant error
 Rotational temperatures (Kelvin)      0.13422     0.04968     0.03999
 Rotational constants (GHZ):           2.79669     1.03508     0.83325
 Zero-point vibrational energy     415648.1 (Joules/Mol)
                                   99.34228 (Kcal/Mol)
 Warning -- explicit consideration of  11 degrees of freedom as
           vibrations may cause significant error
 Vibrational temperatures:     56.41    86.27   117.36   222.80   333.75
          (Kelvin)            397.42   500.32   567.67   604.05   661.30
                              826.35   935.46   980.34  1152.97  1166.23
                             1208.72  1268.47  1340.33  1378.43  1446.68
                             1498.26  1504.21  1523.09  1572.72  1645.49
                             1707.80  1720.84  1778.80  1810.27  1845.92
                             1857.06  1897.01  1912.17  1952.93  2050.06
                             2056.71  2095.75  2132.34  2157.80  2466.21
                             2637.47  4131.76  4340.04  4341.19  4345.24
                             4373.77  4400.16  4471.87  4473.00  4579.74
                             5450.83

 Zero-point correction=                           0.158312 (Hartree/Particle)
 Thermal correction to Energy=                    0.167531
 Thermal correction to Enthalpy=                  0.168475
 Thermal correction to Gibbs Free Energy=         0.122811
 Sum of electronic and zero-point Energies=           -423.047757
 Sum of electronic and thermal Energies=              -423.038537
 Sum of electronic and thermal Enthalpies=            -423.037593
 Sum of electronic and thermal Free Energies=         -423.083258

                     E (Thermal)             CV                S
                      KCal/Mol        Cal/Mol-Kelvin    Cal/Mol-Kelvin
 Total                  105.127             33.126             96.110
 Electronic               0.000              0.000              0.000
 Translational            0.889              2.981             40.409
 Rotational               0.889              2.981             29.279
 Vibrational            103.350             27.165             26.423
 Vibration     1          0.594              1.981              5.299
 Vibration     2          0.597              1.973              4.458
 Vibration     3          0.600              1.962              3.853
 Vibration     4          0.620              1.897              2.612
 Vibration     5          0.653              1.792              1.864
 Vibration     6          0.678              1.717              1.557
 Vibration     7          0.725              1.580              1.176
 Vibration     8          0.762              1.482              0.983
 Vibration     9          0.783              1.427              0.893
 Vibration    10          0.818              1.340              0.767
 Vibration    11          0.931              1.087              0.496

 Optimization completed.
    -- Stationary point found.
 Normal termination of Gaussian 09 at Tue Jan 28 08:55:40 2020.
