 Gaussian 09, Revision D.01,
 Gaussian 09:  ES64L-G09RevD.01 24-Apr-2013

 -----------------------------
 # b3lyp 6-31G(2df,p) opt Freq
 -----------------------------

 -----
 titel
 -----
 Symbolic Z-matrix:
 Charge =  0 Multiplicity = 1

 SCF Done:  E(RB3LYP) =  -423.200206218     A.U. after   14 cycles
 Optimization completed.
    -- Stationary point found.
 Normal termination of Gaussian 09 at Mon Jan 27 23:04:21 2020.

 ----------------------------------------------------------------------
 #N Geom=AllCheck Guess=TCheck SCRF=Check GenChk RB3LYP/6-31G(2df,p) Fr
 eq
 ----------------------------------------------------------------------

 Structure from the checkpoint file:  "/scratch/puck/g09_612eb23b-bae5-4ed5-b575-09143ea2dfe0/Gau-101799.chk"
 -----
 titel
 -----
 Charge =  0 Multiplicity = 1

                         Standard orientation:
 ---------------------------------------------------------------------
 Center     Atomic      Atomic             Coordinates (Angstroms)
 Number     Number       Type             X           Y           Z
 ---------------------------------------------------------------------
      1          6           0       -2.556590   -0.695225   -0.419743
      2          6           0       -1.107644   -0.251979   -0.566954
      3          6           0       -0.762063    1.091734    0.120268
      4          6           0        0.520438    1.715973   -0.435244
      5          6           0        1.711867    0.745111   -0.205596
      6          6           0        1.268069   -0.704289    0.009047
      7          8           0        1.955085   -1.666485   -0.230691
      8          6           0       -0.158258   -0.795101    0.535599
      9          8           0       -0.429818    0.375506    1.350616
     10          1           0       -2.889570   -0.583062    0.616286
     11          1           0       -3.213044   -0.093272   -1.057380
     12          1           0       -2.678163   -1.744105   -0.708156
     13          1           0       -0.760868   -0.365064   -1.599376
     14          1           0       -1.569685    1.814585    0.269765
     15          1           0        0.386674    1.930457   -1.501626
     16          1           0        0.717443    2.671281    0.059861
     17          1           0        2.450811    0.774414   -1.009048
     18          1           0        2.235242    1.028844    0.714851
     19          1           0       -0.375883   -1.743599    1.031150
 ---------------------------------------------------------------------

 SCF Done:  E(RB3LYP) =  -423.200206218     A.U. after    1 cycles

 The electronic state is 1-A.
 Alpha  occ. eigenvalues --  -19.14408 -19.13048 -10.26712 -10.24480 -10.24026
 Alpha  occ. eigenvalues --  -10.20694 -10.19746 -10.19489 -10.18742  -1.05661
 Alpha  occ. eigenvalues --   -1.03675  -0.80534  -0.77756  -0.73184  -0.68307
 Alpha  occ. eigenvalues --   -0.62325  -0.57543  -0.53172  -0.50294  -0.47916
 Alpha  occ. eigenvalues --   -0.46338  -0.44937  -0.43728  -0.41348  -0.40530
 Alpha  occ. eigenvalues --   -0.39720  -0.38591  -0.37674  -0.36328  -0.34530
 Alpha  occ. eigenvalues --   -0.31397  -0.31177  -0.28236  -0.22821
 Alpha virt. eigenvalues --   -0.01766   0.07547   0.09475   0.10825   0.11737
 Alpha virt. eigenvalues --    0.12156   0.13881   0.14240   0.15375   0.16581
 Alpha virt. eigenvalues --    0.17383   0.17795   0.19263   0.19936   0.21510

 Mulliken charges:
               1
     1  C   -0.432255
     2  C    0.008949
     3  C    0.092115
     4  C   -0.244324
     5  C   -0.304663
     6  C    0.395287
     7  O   -0.318379
     8  C   -0.026272
     9  O   -0.301241
    10  H    0.136723
    11  H    0.119238
    12  H    0.124726
    13  H    0.082349
    14  H    0.079564
    15  H    0.109082
    16  H    0.112227
    17  H    0.126512
    18  H    0.146341
    19  H    0.094019
 Sum of Mulliken charges =   0.00000

 Dipole moment (field-independent basis, Debye):
    X=             -1.7977    Y=              2.0409    Z=             -1.2070  Tot=              2.9756
 Quadrupole moment (field-independent basis, Debye-Ang):
   XX=            -54.9180   YY=            -54.5058   ZZ=            -54.6648
   XY=              5.6597   XZ=              1.9792   YZ=             -2.0064

  Exact polarizability:  83.484  -0.475  78.756  -0.346  -1.135  61.670
 Approx polarizability: 109.945  -8.755 117.473  -1.828   1.331 100.457

                      1                      2                      3
                      A                      A                      A
 Frequencies --     85.6140               149.7699               223.1118
 Red. masses --      2.8536                 3.1631                 1.9542
 Frc consts  --      0.0123                 0.0418                 0.0573
 IR Inten    --      4.0175                 0.5545                 1.8308

                      4                      5                      6
                      A                      A                      A
 Frequencies --    242.1524               265.8990               376.7670
 Red. masses --      1.2891                 2.0955                 3.3282
 Frc consts  --      0.0445                 0.0873                 0.2784
 IR Inten    --      0.4509                 1.1123                 7.4530

                      7                      8                      9
                      A                      A                      A
 Frequencies --    410.9672               456.8165               505.8629
 Red. masses --      3.8355                 5.6431                 5.6279
 Frc consts  --      0.3817                 0.6938                 0.8485
 IR Inten    --      1.7718                10.2584                 6.2941

                     10                     11                     12
                      A                      A                      A
 Frequencies --    566.1804               659.4252               786.2147
 Red. masses --      2.6077                 5.3250                 1.8997
 Frc consts  --      0.4925                 1.3643                 0.6918
 IR Inten    --      3.4235                 0.3631                 5.2035

                     13                     14                     15
                      A                      A                      A
 Frequencies --    797.5842               814.2859               875.2645
 Red. masses --      2.2979                 2.5529                 2.7562
 Frc consts  --      0.8613                 0.9973                 1.2440
 IR Inten    --      0.4060                 6.7873                 6.1043

                     16                     17                     18
                      A                      A                      A
 Frequencies --    896.7005               915.5566               969.2836
 Red. masses --      3.5183                 2.5620                 4.1319
 Frc consts  --      1.6668                 1.2653                 2.2872
 IR Inten    --     27.2814                 5.3541                45.8580

                     19                     20                     21
                      A                      A                      A
 Frequencies --    993.3178              1021.5942              1040.5152
 Red. masses --      1.7363                 2.5042                 1.4491
 Frc consts  --      1.0094                 1.5398                 0.9244
 IR Inten    --      3.3303                 2.3315                 9.7659

                     22                     23                     24
                      A                      A                      A
 Frequencies --   1059.0358              1089.5418              1131.9364
 Red. masses --      2.1881                 2.1878                 2.3848
 Frc consts  --      1.4459                 1.5302                 1.8003
 IR Inten    --      1.7841                 4.5972                 8.5515

                     25                     26                     27
                      A                      A                      A
 Frequencies --   1152.5155              1197.7793              1217.1896
 Red. masses --      1.1632                 2.6470                 1.5323
 Frc consts  --      0.9103                 2.2375                 1.3375
 IR Inten    --      1.2204                40.6364                 5.9414

                     28                     29                     30
                      A                      A                      A
 Frequencies --   1236.5446              1252.0636              1261.6908
 Red. masses --      1.4569                 1.5762                 1.3707
 Frc consts  --      1.3125                 1.4558                 1.2855
 IR Inten    --      1.9785                 2.7799                 2.3014

                     31                     32                     33
                      A                      A                      A
 Frequencies --   1289.1368              1319.1793              1337.0007
 Red. masses --      1.3621                 1.4605                 1.4528
 Frc consts  --      1.3337                 1.4975                 1.5301
 IR Inten    --      2.8755                 2.9554                 1.2940

                     34                     35                     36
                      A                      A                      A
 Frequencies --   1358.3953              1396.9562              1408.5818
 Red. masses --      1.4976                 1.5975                 1.2554
 Frc consts  --      1.6281                 1.8368                 1.4675
 IR Inten    --      6.5272                 1.1614                 1.5080

                     37                     38                     39
                      A                      A                      A
 Frequencies --   1450.4738              1492.5503              1494.5561
 Red. masses --      1.0778                 1.0775                 1.0577
 Frc consts  --      1.3360                 1.4142                 1.3920
 IR Inten    --      4.4722                 2.4877                 6.7781

                     40                     41                     42
                      A                      A                      A
 Frequencies --   1501.2487              1830.0723              3034.1283
 Red. masses --      1.0496                12.1278                 1.0357
 Frc consts  --      1.3937                23.9314                 5.6174
 IR Inten    --      2.5291               202.6588                23.4972

                     43                     44                     45
                      A                      A                      A
 Frequencies --   3041.7457              3049.4070              3053.2247
 Red. masses --      1.0623                 1.0682                 1.0836
 Frc consts  --      5.7906                 5.8522                 5.9514
 IR Inten    --     17.9610                 4.5710                22.0286

                     46                     47                     48
                      A                      A                      A
 Frequencies --   3067.7418              3087.8371              3099.8427
 Red. masses --      1.0884                 1.0993                 1.0949
 Frc consts  --      6.0351                 6.1756                 6.1986
 IR Inten    --     53.4139                24.1181                 2.0554

                     49                     50                     51
                      A                      A                      A
 Frequencies --   3101.4775              3115.6879              3116.5337
 Red. masses --      1.0957                 1.0989                 1.1009
 Frc consts  --      6.2101                 6.2849                 6.2998
 IR Inten    --     40.9162                 3.2667                28.6609

 - Thermochemistry -
 -------------------
 Temperature   298.150 Kelvin.  Pressure   1.00000 Atm.
 Atom     1 has atomic number  6 and mass  12.00000

 Molecular mass:   126.06808 amu.
 Principal axes and moments of inertia in atomic units:
                           1         2         3
     Eigenvalues --   700.911721128.067541459.18693
           X            0.99535   0.09570   0.01099
           Y           -0.09538   0.99509  -0.02642
           Z           -0.01347   0.02524   0.99959
 This molecule is an asymmetric top.
 Rotational symmetry number  1.
 Warning -- assumption of classical behavior for rotation
           may cause significant error
 Rotational temperatures (Kelvin)      0.12357     0.07678     0.05936
 Rotational constants (GHZ):           2.57485     1.59985     1.23681
 Zero-point vibrational energy     420469.2 (Joules/Mol)
                                  100.49455 (Kcal/Mol)
 Warning -- explicit consideration of  10 degrees of freedom as
           vibrations may cause significant error
 Vibrational temperatures:    123.18   215.49   321.01   348.40   382.57
          (Kelvin)            542.08   591.29   657.26   727.82   814.61
                              948.76  1131.19  1147.54  1171.57  1259.31
                             1290.15  1317.28  1394.58  1429.16  1469.84
                             1497.07  1523.71  1567.61  1628.60  1658.21
                             1723.34  1751.26  1779.11  1801.44  1815.29
                             1854.78  1898.00  1923.64  1954.43  2009.91
                             2026.63  2086.91  2147.44  2150.33  2159.96
                             2633.06  4365.43  4376.39  4387.41  4392.90
                             4413.79  4442.70  4459.98  4462.33  4482.77
                             4483.99

 Zero-point correction=                           0.160148 (Hartree/Particle)
 Thermal correction to Energy=                    0.168088
 Thermal correction to Enthalpy=                  0.169032
 Thermal correction to Gibbs Free Energy=         0.127688
 Sum of electronic and zero-point Energies=           -423.040058
 Sum of electronic and thermal Energies=              -423.032118
 Sum of electronic and thermal Enthalpies=            -423.031174
 Sum of electronic and thermal Free Energies=         -423.072518

                     E (Thermal)             CV                S
                      KCal/Mol        Cal/Mol-Kelvin    Cal/Mol-Kelvin
 Total                  105.477             30.780             87.015
 Electronic               0.000              0.000              0.000
 Translational            0.889              2.981             40.409
 Rotational               0.889              2.981             28.536
 Vibrational            103.699             24.819             18.071
 Vibration     1          0.601              1.959              3.758
 Vibration     2          0.618              1.903              2.675
 Vibration     3          0.649              1.806              1.934
 Vibration     4          0.658              1.776              1.787
 Vibration     5          0.672              1.736              1.623
 Vibration     6          0.747              1.520              1.052
 Vibration     7          0.775              1.446              0.923
 Vibration     8          0.815              1.346              0.775
 Vibration     9          0.861              1.237              0.644
 Vibration    10          0.922              1.104              0.512

 Optimization completed.
    -- Stationary point found.
 Normal termination of Gaussian 09 at Mon Jan 27 23:52:27 2020.
