 Gaussian 09, Revision D.01,
 Gaussian 09:  ES64L-G09RevD.01 24-Apr-2013

 -----------------------------
 # b3lyp 6-31G(2df,p) opt Freq
 -----------------------------

 -----
 titel
 -----
 Symbolic Z-matrix:
 Charge =  0 Multiplicity = 1

 SCF Done:  E(RB3LYP) =  -423.110258345     A.U. after   14 cycles
 Optimization completed.
    -- Stationary point found.
 Normal termination of Gaussian 09 at Tue Jan 28 08:59:47 2020.

 ----------------------------------------------------------------------
 #N Geom=AllCheck Guess=TCheck SCRF=Check GenChk RB3LYP/6-31G(2df,p) Fr
 eq
 ----------------------------------------------------------------------

 Structure from the checkpoint file:  "/scratch/puck/g09_950d796b-d5c5-43e2-8189-ef15c7346654/Gau-15873.chk"
 -----
 titel
 -----
 Charge =  0 Multiplicity = 1

                         Standard orientation:
 ---------------------------------------------------------------------
 Center     Atomic      Atomic             Coordinates (Angstroms)
 Number     Number       Type             X           Y           Z
 ---------------------------------------------------------------------
      1          6           0        0.345246    2.120858    0.105088
      2          8           0        0.293251    0.950796   -0.704523
      3          6           0        0.177970   -0.249354    0.014326
      4          6           0       -1.034438   -0.390536    0.926576
      5          6           0       -2.307510   -0.281783    0.220801
      6          6           0       -3.349566   -0.183863   -0.369257
      7          6           0        0.681193   -1.442811   -0.758308
      8          6           0        1.504536   -0.877651    0.381322
      9          8           0        2.679173   -0.172085    0.126238
     10          1           0        1.107163    2.035762    0.890319
     11          1           0        0.605404    2.946353   -0.561349
     12          1           0       -0.627138    2.338956    0.563913
     13          1           0       -0.969290   -1.364363    1.426571
     14          1           0       -0.992218    0.357361    1.728588
     15          1           0       -4.270201   -0.101149   -0.891673
     16          1           0        0.172518   -2.392572   -0.632312
     17          1           0        1.037791   -1.244418   -1.763579
     18          1           0        1.590355   -1.449849    1.299749
     19          1           0        2.461642    0.475076   -0.557244
 ---------------------------------------------------------------------

 SCF Done:  E(RB3LYP) =  -423.110258345     A.U. after    1 cycles

 The electronic state is 1-A.
 Alpha  occ. eigenvalues --  -19.15867 -19.14145 -10.24627 -10.23738 -10.23151
 Alpha  occ. eigenvalues --  -10.21713 -10.18350 -10.18220 -10.17147  -1.05639
 Alpha  occ. eigenvalues --   -1.02058  -0.85082  -0.77944  -0.70645  -0.69786
 Alpha  occ. eigenvalues --   -0.61432  -0.57885  -0.53179  -0.52419  -0.50084
 Alpha  occ. eigenvalues --   -0.47311  -0.45565  -0.44758  -0.43940  -0.42041
 Alpha  occ. eigenvalues --   -0.39220  -0.38444  -0.37155  -0.34888  -0.29533
 Alpha  occ. eigenvalues --   -0.27500  -0.26788  -0.26529  -0.23099
 Alpha virt. eigenvalues --    0.04617   0.05457   0.08275   0.09835   0.10874
 Alpha virt. eigenvalues --    0.12599   0.12848   0.13597   0.14708   0.15549
 Alpha virt. eigenvalues --    0.17170   0.17432   0.18673   0.19293   0.21271

 Mulliken charges:
               1
     1  C   -0.267191
     2  O   -0.291125
     3  C    0.391488
     4  C   -0.455076
     5  C    0.331419
     6  C   -0.455062
     7  C   -0.382004
     8  C    0.076401
     9  O   -0.434163
    10  H    0.125640
    11  H    0.131412
    12  H    0.126537
    13  H    0.135288
    14  H    0.132449
    15  H    0.197352
    16  H    0.118419
    17  H    0.124185
    18  H    0.104052
    19  H    0.289979
 Sum of Mulliken charges =   0.00000

 Dipole moment (field-independent basis, Debye):
    X=             -0.8285    Y=              0.5645    Z=              0.5963  Tot=              1.1665
 Quadrupole moment (field-independent basis, Debye-Ang):
   XX=            -57.6371   YY=            -49.1600   ZZ=            -51.9043
   XY=              1.7082   XZ=             -0.4060   YZ=             -0.4207

  Exact polarizability:  93.856  -1.184  72.792   7.639  -0.129  64.739
 Approx polarizability: 132.500  -2.719 100.016  19.417  -2.022 103.306

                      1                      2                      3
                      A                      A                      A
 Frequencies --     47.5872               108.0522               116.3461
 Red. masses --      3.6208                 4.6379                 2.7816
 Frc consts  --      0.0048                 0.0319                 0.0222
 IR Inten    --      0.8493                 0.8281                 9.5598

                      4                      5                      6
                      A                      A                      A
 Frequencies --    178.0948               218.9646               269.5795
 Red. masses --      1.5867                 2.4388                 2.9369
 Frc consts  --      0.0297                 0.0689                 0.1258
 IR Inten    --      4.6368                 6.3935                 5.6536

                      7                      8                      9
                      A                      A                      A
 Frequencies --    287.8575               315.8435               356.8498
 Red. masses --      3.2762                 3.5812                 2.2883
 Frc consts  --      0.1599                 0.2105                 0.1717
 IR Inten    --      8.9202                 7.0519                 1.1843

                     10                     11                     12
                      A                      A                      A
 Frequencies --    403.3505               421.5263               451.3877
 Red. masses --      4.0202                 1.5762                 1.7077
 Frc consts  --      0.3854                 0.1650                 0.2050
 IR Inten    --     11.7515                48.4712                28.2358

                     13                     14                     15
                      A                      A                      A
 Frequencies --    496.9976               624.7234               639.9695
 Red. masses --      2.7238                 1.2041                 1.2709
 Frc consts  --      0.3964                 0.2769                 0.3067
 IR Inten    --     11.0806                42.1076                36.7289

                     16                     17                     18
                      A                      A                      A
 Frequencies --    681.0172               727.1270               824.2436
 Red. masses --      3.4804                 3.2903                 2.2550
 Frc consts  --      0.9510                 1.0250                 0.9026
 IR Inten    --     10.1559                14.8152                18.2200

                     19                     20                     21
                      A                      A                      A
 Frequencies --    886.7668               903.7989               928.8342
 Red. masses --      2.6137                 1.6080                 2.6975
 Frc consts  --      1.2109                 0.7739                 1.3711
 IR Inten    --     10.5798                 1.7163                16.3219

                     22                     23                     24
                      A                      A                      A
 Frequencies --    986.2292              1008.6581              1044.7657
 Red. masses --      3.2895                 2.4733                 1.4866
 Frc consts  --      1.8851                 1.4826                 0.9560
 IR Inten    --      4.3349                16.9196                 8.9419

                     25                     26                     27
                      A                      A                      A
 Frequencies --   1088.5408              1090.4803              1145.3845
 Red. masses --      2.2024                 1.8202                 2.4454
 Frc consts  --      1.5376                 1.2753                 1.8902
 IR Inten    --     33.1005                50.1413                79.1786

                     28                     29                     30
                      A                      A                      A
 Frequencies --   1177.9810              1189.8614              1212.9392
 Red. masses --      1.3191                 1.5203                 1.3701
 Frc consts  --      1.0784                 1.2682                 1.1876
 IR Inten    --      8.2269                25.0149                13.3345

                     31                     32                     33
                      A                      A                      A
 Frequencies --   1263.0894              1314.3183              1329.4135
 Red. masses --      2.2753                 1.7460                 1.5038
 Frc consts  --      2.1388                 1.7770                 1.5659
 IR Inten    --     31.3739                34.4346                22.3469

                     34                     35                     36
                      A                      A                      A
 Frequencies --   1354.5653              1432.7541              1461.0209
 Red. masses --      1.7695                 1.1671                 1.1061
 Frc consts  --      1.9129                 1.4116                 1.3911
 IR Inten    --     13.1024                40.2949                 4.7743

                     37                     38                     39
                      A                      A                      A
 Frequencies --   1476.6323              1484.2473              1497.5210
 Red. masses --      1.1404                 1.6378                 1.0872
 Frc consts  --      1.4651                 2.1258                 1.4365
 IR Inten    --      4.4064                34.8577                14.8755

                     40                     41                     42
                      A                      A                      A
 Frequencies --   1508.9833              2240.2918              3007.2274
 Red. masses --      1.0467                 5.9148                 1.0340
 Frc consts  --      1.4043                17.4905                 5.5096
 IR Inten    --      4.3384                 1.4421                33.8989

                     43                     44                     45
                      A                      A                      A
 Frequencies --   3026.2358              3057.6764              3070.8542
 Red. masses --      1.0595                 1.0990                 1.1050
 Frc consts  --      5.7171                 6.0538                 6.1397
 IR Inten    --     21.3525                10.0377                32.9965

                     46                     47                     48
                      A                      A                      A
 Frequencies --   3121.9505              3131.3610              3161.7270
 Red. masses --      1.1002                 1.0545                 1.0904
 Frc consts  --      6.3178                 6.0923                 6.4221
 IR Inten    --     21.8992                 4.5979                15.5164

                     49                     50                     51
                      A                      A                      A
 Frequencies --   3223.2808              3506.4754              3770.6707
 Red. masses --      1.1169                 1.1626                 1.0647
 Frc consts  --      6.8368                 8.4218                 8.9189
 IR Inten    --      4.8946                65.3881                28.9049

 - Thermochemistry -
 -------------------
 Temperature   298.150 Kelvin.  Pressure   1.00000 Atm.
 Atom     1 has atomic number  6 and mass  12.00000

 Molecular mass:   126.06808 amu.
 Principal axes and moments of inertia in atomic units:
                           1         2         3
     Eigenvalues --   641.032111558.747631897.66860
           X            0.99999   0.00438  -0.00062
           Y           -0.00437   0.99981   0.01895
           Z            0.00070  -0.01894   0.99982
 This molecule is an asymmetric top.
 Rotational symmetry number  1.
 Warning -- assumption of classical behavior for rotation
           may cause significant error
 Rotational temperatures (Kelvin)      0.13512     0.05557     0.04564
 Rotational constants (GHZ):           2.81537     1.15781     0.95103
 Zero-point vibrational energy     408369.5 (Joules/Mol)
                                   97.60266 (Kcal/Mol)
 Warning -- explicit consideration of  13 degrees of freedom as
           vibrations may cause significant error
 Vibrational temperatures:     68.47   155.46   167.40   256.24   315.04
          (Kelvin)            387.86   414.16   454.43   513.43   580.33
                              606.48   649.45   715.07   898.84   920.77
                              979.83  1046.17  1185.90  1275.86  1300.36
                             1336.38  1418.96  1451.23  1503.18  1566.17
                             1568.96  1647.95  1694.85  1711.94  1745.15
                             1817.30  1891.01  1912.73  1948.91  2061.41
                             2102.08  2124.54  2135.50  2154.60  2171.09
                             3223.28  4326.72  4354.07  4399.31  4418.27
                             4491.78  4505.32  4549.01  4637.58  5045.03
                             5425.15

 Zero-point correction=                           0.155540 (Hartree/Particle)
 Thermal correction to Energy=                    0.165541
 Thermal correction to Enthalpy=                  0.166485
 Thermal correction to Gibbs Free Energy=         0.120522
 Sum of electronic and zero-point Energies=           -422.954719
 Sum of electronic and thermal Energies=              -422.944718
 Sum of electronic and thermal Enthalpies=            -422.943773
 Sum of electronic and thermal Free Energies=         -422.989736

                     E (Thermal)             CV                S
                      KCal/Mol        Cal/Mol-Kelvin    Cal/Mol-Kelvin
 Total                  103.878             36.891             96.737
 Electronic               0.000              0.000              0.000
 Translational            0.889              2.981             40.409
 Rotational               0.889              2.981             29.029
 Vibrational            102.101             30.930             27.299
 Vibration     1          0.595              1.978              4.915
 Vibration     2          0.606              1.943              3.304
 Vibration     3          0.608              1.936              3.160
 Vibration     4          0.629              1.869              2.348
 Vibration     5          0.647              1.812              1.968
 Vibration     6          0.674              1.729              1.599
 Vibration     7          0.685              1.696              1.487
 Vibration     8          0.703              1.643              1.332
 Vibration     9          0.732              1.561              1.136
 Vibration    10          0.769              1.463              0.950
 Vibration    11          0.784              1.423              0.887
 Vibration    12          0.810              1.358              0.792
 Vibration    13          0.853              1.257              0.666

 Optimization completed.
    -- Stationary point found.
 Normal termination of Gaussian 09 at Tue Jan 28 09:39:53 2020.
