 Gaussian 09, Revision D.01,
 Gaussian 09:  ES64L-G09RevD.01 24-Apr-2013

 -----------------------------
 # b3lyp 6-31G(2df,p) opt Freq
 -----------------------------

 -----
 titel
 -----
 Symbolic Z-matrix:
 Charge =  0 Multiplicity = 1

 SCF Done:  E(RB3LYP) =  -423.225981903     A.U. after   14 cycles
 Optimization completed.
    -- Stationary point found.
 Normal termination of Gaussian 09 at Mon Jan 27 13:10:17 2020.

 ----------------------------------------------------------------------
 #N Geom=AllCheck Guess=TCheck SCRF=Check GenChk RB3LYP/6-31G(2df,p) Fr
 eq
 ----------------------------------------------------------------------

 Structure from the checkpoint file:  "/scratch/puck/g09_293c9b91-ad7a-4ac2-91f2-a74859e7f6a4/Gau-168172.chk"
 -----
 titel
 -----
 Charge =  0 Multiplicity = 1

                         Standard orientation:
 ---------------------------------------------------------------------
 Center     Atomic      Atomic             Coordinates (Angstroms)
 Number     Number       Type             X           Y           Z
 ---------------------------------------------------------------------
      1          8           0        1.140747   -1.462529    1.133190
      2          6           0        1.008500   -0.856394    0.106216
      3          6           0        1.827334    0.333515   -0.350456
      4          6           0        0.848351    1.511454   -0.622118
      5          6           0       -0.125689    1.702526    0.517641
      6          6           0       -1.306788    1.097033    0.685640
      7          6           0       -1.980752    0.104147   -0.239588
      8          6           0       -1.303256   -1.276969   -0.264517
      9          8           0        0.015865   -1.103208   -0.800036
     10          1           0        2.546365    0.570075    0.436666
     11          1           0        2.379962    0.091348   -1.264835
     12          1           0        1.429499    2.425615   -0.780469
     13          1           0        0.311945    1.297320   -1.550107
     14          1           0        0.210776    2.365229    1.312922
     15          1           0       -1.848969    1.317578    1.602513
     16          1           0       -3.026493   -0.027107    0.059304
     17          1           0       -1.991184    0.480882   -1.269680
     18          1           0       -1.240244   -1.729047    0.728927
     19          1           0       -1.830752   -1.957877   -0.937384
 ---------------------------------------------------------------------

 SCF Done:  E(RB3LYP) =  -423.225981903     A.U. after    1 cycles

 The electronic state is 1-A.
 Alpha  occ. eigenvalues --  -19.16526 -19.12497 -10.30194 -10.24078 -10.19750
 Alpha  occ. eigenvalues --  -10.19572 -10.19473 -10.18869 -10.18758  -1.09001
 Alpha  occ. eigenvalues --   -1.01119  -0.81586  -0.79518  -0.71803  -0.68607
 Alpha  occ. eigenvalues --   -0.61875  -0.55932  -0.53476  -0.50672  -0.48734
 Alpha  occ. eigenvalues --   -0.46844  -0.45624  -0.43518  -0.42167  -0.40710
 Alpha  occ. eigenvalues --   -0.39152  -0.38121  -0.35791  -0.35766  -0.34563
 Alpha  occ. eigenvalues --   -0.32153  -0.29011  -0.26597  -0.24964
 Alpha virt. eigenvalues --    0.00302   0.01280   0.08971   0.10573   0.11802
 Alpha virt. eigenvalues --    0.13442   0.14769   0.15761   0.16329   0.17201
 Alpha virt. eigenvalues --    0.18054   0.19293   0.19347   0.21020   0.22435

 Mulliken charges:
               1
     1  O   -0.333366
     2  C    0.433874
     3  C   -0.300385
     4  C   -0.252815
     5  C   -0.041998
     6  C   -0.049241
     7  C   -0.249781
     8  C   -0.091866
     9  O   -0.244790
    10  H    0.126341
    11  H    0.126431
    12  H    0.103998
    13  H    0.120290
    14  H    0.089477
    15  H    0.092348
    16  H    0.104587
    17  H    0.119832
    18  H    0.134397
    19  H    0.112666
 Sum of Mulliken charges =   0.00000

 Dipole moment (field-independent basis, Debye):
    X=             -1.1303    Y=              1.6230    Z=             -1.2632  Tot=              2.3467
 Quadrupole moment (field-independent basis, Debye-Ang):
   XX=            -48.8432   YY=            -55.2481   ZZ=            -55.0484
   XY=              4.7482   XZ=             -2.7159   YZ=              2.7377

  Exact polarizability:  89.281   9.035  73.836  -1.343   0.495  66.994
 Approx polarizability: 128.337  14.817 104.885  -0.210  -3.422 110.251

                      1                      2                      3
                      A                      A                      A
 Frequencies --    102.2540               166.7475               214.8453
 Red. masses --      5.6406                 2.7522                 3.1043
 Frc consts  --      0.0347                 0.0451                 0.0844
 IR Inten    --      1.7328                 1.4157                 2.1094

                      4                      5                      6
                      A                      A                      A
 Frequencies --    247.9311               300.1433               322.3625
 Red. masses --      3.5153                 2.8372                 2.3458
 Frc consts  --      0.1273                 0.1506                 0.1436
 IR Inten    --      1.4629                 0.5614                 5.0400

                      7                      8                      9
                      A                      A                      A
 Frequencies --    392.6074               482.7006               532.2086
 Red. masses --      2.9843                 2.2963                 2.8997
 Frc consts  --      0.2710                 0.3152                 0.4839
 IR Inten    --      1.7204                 6.8043                 0.6685

                     10                     11                     12
                      A                      A                      A
 Frequencies --    602.3754               628.0388               687.0182
 Red. masses --      2.1547                 3.8425                 3.0426
 Frc consts  --      0.4607                 0.8930                 0.8461
 IR Inten    --      3.3130                 3.3038                12.9739

                     13                     14                     15
                      A                      A                      A
 Frequencies --    747.1391               798.2125               829.5976
 Red. masses --      1.5417                 3.1375                 2.6182
 Frc consts  --      0.5070                 1.1778                 1.0617
 IR Inten    --     28.7854                 3.6333                 1.8758

                     16                     17                     18
                      A                      A                      A
 Frequencies --    874.9579               928.8422               944.2330
 Red. masses --      2.7911                 1.9584                 2.0614
 Frc consts  --      1.2589                 0.9955                 1.0829
 IR Inten    --      1.8776                12.5524                 9.8842

                     19                     20                     21
                      A                      A                      A
 Frequencies --    982.7265              1000.5681              1012.9715
 Red. masses --      2.4583                 2.0219                 1.5473
 Frc consts  --      1.3988                 1.1926                 0.9354
 IR Inten    --      1.9691                 6.7718                 2.9682

                     22                     23                     24
                      A                      A                      A
 Frequencies --   1030.5508              1074.3632              1099.1263
 Red. masses --      2.3288                 3.2681                 2.0317
 Frc consts  --      1.4572                 2.2225                 1.4461
 IR Inten    --     10.4080                68.7313                41.5544

                     25                     26                     27
                      A                      A                      A
 Frequencies --   1165.2890              1211.4866              1223.8564
 Red. masses --      1.6520                 1.3088                 2.0116
 Frc consts  --      1.3217                 1.1318                 1.7752
 IR Inten    --     53.1623                 7.2559               115.0196

                     28                     29                     30
                      A                      A                      A
 Frequencies --   1251.1123              1274.8867              1299.2361
 Red. masses --      1.2874                 1.2046                 1.1315
 Frc consts  --      1.1873                 1.1535                 1.1253
 IR Inten    --      2.9391                18.8477                 2.2615

                     31                     32                     33
                      A                      A                      A
 Frequencies --   1329.4355              1347.7972              1354.8911
 Red. masses --      1.2233                 1.3735                 1.4509
 Frc consts  --      1.2738                 1.4700                 1.5692
 IR Inten    --      1.1552                10.7928                13.7597

                     34                     35                     36
                      A                      A                      A
 Frequencies --   1389.2798              1428.1956              1465.2815
 Red. masses --      1.2941                 1.3783                 1.0886
 Frc consts  --      1.4716                 1.6564                 1.3771
 IR Inten    --     13.1712                 0.3548                 4.4177

                     37                     38                     39
                      A                      A                      A
 Frequencies --   1475.2330              1488.4435              1501.6935
 Red. masses --      1.1201                 1.1021                 1.0950
 Frc consts  --      1.4362                 1.4386                 1.4549
 IR Inten    --      2.7381                 5.3539                 8.8503

                     40                     41                     42
                      A                      A                      A
 Frequencies --   1706.6677              1842.2324              3031.4773
 Red. masses --      6.7098                11.5906                 1.0611
 Frc consts  --     11.5148                23.1764                 5.7455
 IR Inten    --      0.5375               228.1420                20.6383

                     43                     44                     45
                      A                      A                      A
 Frequencies --   3048.6274              3057.0119              3062.2238
 Red. masses --      1.0611                 1.0617                 1.0628
 Frc consts  --      5.8106                 5.8460                 5.8719
 IR Inten    --     17.5793                31.4601                22.6251

                     46                     47                     48
                      A                      A                      A
 Frequencies --   3078.1378              3096.3985              3120.2351
 Red. masses --      1.0938                 1.1016                 1.1093
 Frc consts  --      6.1061                 6.2227                 6.3629
 IR Inten    --     37.7808                 4.7431                12.0992

                     49                     50                     51
                      A                      A                      A
 Frequencies --   3122.7568              3134.9782              3158.4955
 Red. masses --      1.1003                 1.0849                 1.0943
 Frc consts  --      6.3218                 6.2821                 6.4320
 IR Inten    --     14.6678                 9.6230                32.1462

 - Thermochemistry -
 -------------------
 Temperature   298.150 Kelvin.  Pressure   1.00000 Atm.
 Atom     1 has atomic number  8 and mass  15.99491

 Molecular mass:   126.06808 amu.
 Principal axes and moments of inertia in atomic units:
                           1         2         3
     Eigenvalues --   854.71767 957.328651386.81628
           X            0.95281   0.30292  -0.01964
           Y           -0.30278   0.95301   0.00951
           Z            0.02160  -0.00311   0.99976
 This molecule is an asymmetric top.
 Rotational symmetry number  1.
 Warning -- assumption of classical behavior for rotation
           may cause significant error
 Rotational temperatures (Kelvin)      0.10134     0.09047     0.06246
 Rotational constants (GHZ):           2.11151     1.88518     1.30136
 Zero-point vibrational energy     422687.8 (Joules/Mol)
                                  101.02481 (Kcal/Mol)
 Warning -- explicit consideration of  10 degrees of freedom as
           vibrations may cause significant error
 Vibrational temperatures:    147.12   239.91   309.11   356.72   431.84
          (Kelvin)            463.81   564.87   694.50   765.73   866.68
                              903.61   988.46  1074.97  1148.45  1193.60
                             1258.87  1336.40  1358.54  1413.92  1439.59
                             1457.44  1482.73  1545.77  1581.40  1676.59
                             1743.06  1760.85  1800.07  1834.28  1869.31
                             1912.76  1939.18  1949.38  1998.86  2054.85
                             2108.21  2122.53  2141.54  2160.60  2455.51
                             2650.56  4361.61  4386.29  4398.35  4405.85
                             4428.75  4455.02  4489.32  4492.94  4510.53
                             4544.36

 Zero-point correction=                           0.160993 (Hartree/Particle)
 Thermal correction to Energy=                    0.168937
 Thermal correction to Enthalpy=                  0.169881
 Thermal correction to Gibbs Free Energy=         0.128717
 Sum of electronic and zero-point Energies=           -423.064989
 Sum of electronic and thermal Energies=              -423.057045
 Sum of electronic and thermal Enthalpies=            -423.056101
 Sum of electronic and thermal Free Energies=         -423.097265

                     E (Thermal)             CV                S
                      KCal/Mol        Cal/Mol-Kelvin    Cal/Mol-Kelvin
 Total                  106.009             31.057             86.637
 Electronic               0.000              0.000              0.000
 Translational            0.889              2.981             40.409
 Rotational               0.889              2.981             28.519
 Vibrational            104.232             25.095             17.709
 Vibration     1          0.604              1.947              3.411
 Vibration     2          0.624              1.883              2.472
 Vibration     3          0.645              1.818              2.002
 Vibration     4          0.662              1.766              1.745
 Vibration     5          0.693              1.673              1.416
 Vibration     6          0.707              1.631              1.298
 Vibration     7          0.760              1.486              0.990
 Vibration     8          0.839              1.288              0.703
 Vibration     9          0.887              1.179              0.582
 Vibration    10          0.961              1.027              0.446

 Optimization completed.
    -- Stationary point found.
 Normal termination of Gaussian 09 at Mon Jan 27 13:57:32 2020.
