 Gaussian 09, Revision D.01,
 Gaussian 09:  ES64L-G09RevD.01 24-Apr-2013

 -----------------------------
 # b3lyp 6-31G(2df,p) opt Freq
 -----------------------------

 -----
 titel
 -----
 Symbolic Z-matrix:
 Charge =  0 Multiplicity = 1

 SCF Done:  E(RB3LYP) =  -423.114281456     A.U. after   13 cycles
 Optimization completed.
    -- Stationary point found.
 Normal termination of Gaussian 09 at Mon Jan 27 18:41:16 2020.

 ----------------------------------------------------------------------
 #N Geom=AllCheck Guess=TCheck SCRF=Check GenChk RB3LYP/6-31G(2df,p) Fr
 eq
 ----------------------------------------------------------------------

 Structure from the checkpoint file:  "/scratch/puck/g09_cc0920fb-4208-41ba-8a8d-44f063ff9e97/Gau-89995.chk"
 -----
 titel
 -----
 Charge =  0 Multiplicity = 1

                         Standard orientation:
 ---------------------------------------------------------------------
 Center     Atomic      Atomic             Coordinates (Angstroms)
 Number     Number       Type             X           Y           Z
 ---------------------------------------------------------------------
      1          6           0        1.289789    1.962312   -0.245530
      2          6           0        0.900875    0.516835   -0.138407
      3          6           0        1.718976   -0.657421   -0.684851
      4          8           0        1.382550   -1.502682    0.446279
      5          6           0        0.636754   -0.446050    1.040982
      6          6           0       -0.474950   -0.005991    0.152060
      7          6           0       -1.696838    0.807717    0.566477
      8          6           0       -2.457617   -0.204027   -0.319628
      9          8           0       -1.229345   -0.866357   -0.701503
     10          1           0        1.181413    2.325742   -1.274908
     11          1           0        0.664374    2.594175    0.392733
     12          1           0        2.332250    2.117383    0.054205
     13          1           0        1.393944   -1.088287   -1.637978
     14          1           0        2.797116   -0.459924   -0.706871
     15          1           0        0.673107   -0.341215    2.122133
     16          1           0       -1.942431    0.791994    1.630143
     17          1           0       -1.715936    1.838411    0.206107
     18          1           0       -3.132198   -0.881008    0.216502
     19          1           0       -2.979214    0.214784   -1.186908
 ---------------------------------------------------------------------

 SCF Done:  E(RB3LYP) =  -423.114281456     A.U. after    1 cycles

 The electronic state is 1-A.
 Alpha  occ. eigenvalues --  -19.13415 -19.13400 -10.23938 -10.23495 -10.23273
 Alpha  occ. eigenvalues --  -10.22969 -10.19871 -10.19720 -10.18847  -1.05698
 Alpha  occ. eigenvalues --   -1.03171  -0.83299  -0.74634  -0.72718  -0.68098
 Alpha  occ. eigenvalues --   -0.64001  -0.55375  -0.52458  -0.50032  -0.49156
 Alpha  occ. eigenvalues --   -0.48113  -0.45885  -0.43257  -0.41086  -0.40893
 Alpha  occ. eigenvalues --   -0.40421  -0.38003  -0.35812  -0.35184  -0.32132
 Alpha  occ. eigenvalues --   -0.30849  -0.28588  -0.24437  -0.21479
 Alpha virt. eigenvalues --    0.05852   0.08326   0.09777   0.11127   0.12034
 Alpha virt. eigenvalues --    0.13224   0.14215   0.14448   0.15487   0.16296
 Alpha virt. eigenvalues --    0.16996   0.18390   0.19475   0.20079   0.22121

 Mulliken charges:
               1
     1  C   -0.502424
     2  C    0.131290
     3  C   -0.119829
     4  O   -0.287270
     5  C   -0.039110
     6  C    0.431421
     7  C   -0.378238
     8  C   -0.070446
     9  O   -0.308197
    10  H    0.125975
    11  H    0.122950
    12  H    0.124002
    13  H    0.118914
    14  H    0.103313
    15  H    0.097319
    16  H    0.116824
    17  H    0.115625
    18  H    0.109758
    19  H    0.108123
 Sum of Mulliken charges =   0.00000

 Dipole moment (field-independent basis, Debye):
    X=             -0.7438    Y=              2.9301    Z=              0.4331  Tot=              3.0539
 Quadrupole moment (field-independent basis, Debye-Ang):
   XX=            -49.0723   YY=            -57.1493   ZZ=            -51.4663
   XY=              1.0247   XZ=             -2.5590   YZ=              0.0770

  Exact polarizability:  88.414   0.526  70.629  -2.540  -0.837  68.633
 Approx polarizability: 114.399  -0.956 103.745  -2.639  -2.899 106.013

                      1                      2                      3
                      A                      A                      A
 Frequencies --     83.2039               156.9008               171.0295
 Red. masses --      2.2969                 2.8636                 1.2324
 Frc consts  --      0.0094                 0.0415                 0.0212
 IR Inten    --      1.7156                 0.7601                 0.3179

                      4                      5                      6
                      A                      A                      A
 Frequencies --    181.1070               232.9069               261.2335
 Red. masses --      2.5307                 3.3416                 2.5949
 Frc consts  --      0.0489                 0.1068                 0.1043
 IR Inten    --      2.0726                 0.3678                 2.5305

                      7                      8                      9
                      A                      A                      A
 Frequencies --    333.2694               443.8784               521.5013
 Red. masses --      2.7299                 3.2072                 3.3023
 Frc consts  --      0.1786                 0.3723                 0.5292
 IR Inten    --      1.0252                 0.7730                 1.1931

                     10                     11                     12
                      A                      A                      A
 Frequencies --    603.4794               644.6702               772.6099
 Red. masses --      4.5156                 3.4708                 2.7124
 Frc consts  --      0.9689                 0.8499                 0.9539
 IR Inten    --     13.4311                 0.6290                16.6374

                     13                     14                     15
                      A                      A                      A
 Frequencies --    797.9883               847.8777               901.0178
 Red. masses --      1.2408                 4.0600                 2.4784
 Frc consts  --      0.4655                 1.7196                 1.1855
 IR Inten    --      3.4755                 0.6924                24.7752

                     16                     17                     18
                      A                      A                      A
 Frequencies --    929.0070               969.4325               974.0094
 Red. masses --      2.2602                 2.6943                 1.7597
 Frc consts  --      1.1493                 1.4919                 0.9836
 IR Inten    --      5.7606                 6.2000                10.7532

                     19                     20                     21
                      A                      A                      A
 Frequencies --    987.8089               999.7774              1014.0404
 Red. masses --      1.8591                 2.2034                 5.9340
 Frc consts  --      1.0688                 1.2977                 3.5951
 IR Inten    --     13.0714                20.0662               132.3816

                     22                     23                     24
                      A                      A                      A
 Frequencies --   1044.2420              1095.2178              1115.2931
 Red. masses --      3.8258                 2.3903                 2.0893
 Frc consts  --      2.4580                 1.6893                 1.5312
 IR Inten    --     27.6860                33.1981                12.9243

                     25                     26                     27
                      A                      A                      A
 Frequencies --   1144.0886              1158.0953              1163.1277
 Red. masses --      2.8922                 1.4286                 1.1753
 Frc consts  --      2.2305                 1.1289                 0.9368
 IR Inten    --      6.8481                 5.4901                 1.5555

                     28                     29                     30
                      A                      A                      A
 Frequencies --   1190.1504              1218.4198              1228.7289
 Red. masses --      1.7801                 1.3135                 1.4823
 Frc consts  --      1.4856                 1.1489                 1.3186
 IR Inten    --      7.8291                 0.4568                 5.3912

                     31                     32                     33
                      A                      A                      A
 Frequencies --   1257.8201              1293.7540              1334.2105
 Red. masses --      1.5028                 2.3276                 1.8496
 Frc consts  --      1.4008                 2.2954                 1.9399
 IR Inten    --      5.1204                11.7841                 8.8879

                     34                     35                     36
                      A                      A                      A
 Frequencies --   1354.0624              1416.3038              1457.9260
 Red. masses --      1.5477                 1.2755                 3.1343
 Frc consts  --      1.6719                 1.5074                 3.9252
 IR Inten    --      0.5051                 1.4910                17.1668

                     37                     38                     39
                      A                      A                      A
 Frequencies --   1487.0327              1491.8640              1498.0171
 Red. masses --      1.0667                 1.1013                 1.1010
 Frc consts  --      1.3898                 1.4442                 1.4557
 IR Inten    --      4.7649                 1.6143                 5.2284

                     40                     41                     42
                      A                      A                      A
 Frequencies --   1510.6676              1532.4222              3020.6563
 Red. masses --      1.1102                 1.1772                 1.0395
 Frc consts  --      1.4928                 1.6288                 5.5884
 IR Inten    --      1.7836                 0.5035                26.3519

                     43                     44                     45
                      A                      A                      A
 Frequencies --   3026.2363              3029.3003              3070.6090
 Red. masses --      1.0533                 1.0551                 1.0686
 Frc consts  --      5.6833                 5.7045                 5.9365
 IR Inten    --     98.7886                62.1116                22.3975

                     46                     47                     48
                      A                      A                      A
 Frequencies --   3073.3030              3079.4344              3081.1233
 Red. masses --      1.1014                 1.1041                 1.1055
 Frc consts  --      6.1291                 6.1688                 6.1833
 IR Inten    --     29.9900                 1.8679                49.0953

                     49                     50                     51
                      A                      A                      A
 Frequencies --   3099.3486              3123.7263              3145.7943
 Red. masses --      1.0997                 1.1088                 1.0923
 Frc consts  --      6.2238                 6.3743                 6.3690
 IR Inten    --     23.4710                23.8412                24.3586

 - Thermochemistry -
 -------------------
 Temperature   298.150 Kelvin.  Pressure   1.00000 Atm.
 Atom     1 has atomic number  6 and mass  12.00000

 Molecular mass:   126.06808 amu.
 Principal axes and moments of inertia in atomic units:
                           1         2         3
     Eigenvalues --   663.236851169.740221478.51460
           X            0.99945   0.02655  -0.01989
           Y           -0.02639   0.99962   0.00792
           Z            0.02010  -0.00739   0.99977
 This molecule is an asymmetric top.
 Rotational symmetry number  1.
 Warning -- assumption of classical behavior for rotation
           may cause significant error
 Rotational temperatures (Kelvin)      0.13059     0.07405     0.05858
 Rotational constants (GHZ):           2.72111     1.54286     1.22064
 Zero-point vibrational energy     416107.4 (Joules/Mol)
                                   99.45206 (Kcal/Mol)
 Warning -- explicit consideration of  10 degrees of freedom as
           vibrations may cause significant error
 Vibrational temperatures:    119.71   225.74   246.07   260.57   335.10
          (Kelvin)            375.86   479.50   638.64   750.32   868.27
                              927.54  1111.61  1148.13  1219.91  1296.36
                             1336.63  1394.80  1401.38  1421.23  1438.45
                             1458.98  1502.43  1575.77  1604.66  1646.09
                             1666.24  1673.48  1712.36  1753.03  1767.86
                             1809.72  1861.42  1919.63  1948.19  2037.74
                             2097.63  2139.51  2146.46  2155.31  2173.51
                             2204.81  4346.05  4354.07  4358.48  4417.92
                             4421.79  4430.61  4433.04  4459.27  4494.34
                             4526.09

 Zero-point correction=                           0.158487 (Hartree/Particle)
 Thermal correction to Energy=                    0.166846
 Thermal correction to Enthalpy=                  0.167790
 Thermal correction to Gibbs Free Energy=         0.125453
 Sum of electronic and zero-point Energies=           -422.955795
 Sum of electronic and thermal Energies=              -422.947435
 Sum of electronic and thermal Enthalpies=            -422.946491
 Sum of electronic and thermal Free Energies=         -422.988828

                     E (Thermal)             CV                S
                      KCal/Mol        Cal/Mol-Kelvin    Cal/Mol-Kelvin
 Total                  104.698             31.397             89.106
 Electronic               0.000              0.000              0.000
 Translational            0.889              2.981             40.409
 Rotational               0.889              2.981             28.530
 Vibrational            102.920             25.435             20.167
 Vibration     1          0.600              1.961              3.814
 Vibration     2          0.621              1.895              2.587
 Vibration     3          0.626              1.878              2.424
 Vibration     4          0.630              1.865              2.317
 Vibration     5          0.654              1.791              1.856
 Vibration     6          0.669              1.744              1.654
 Vibration     7          0.715              1.609              1.244
 Vibration     8          0.803              1.374              0.815
 Vibration     9          0.876              1.202              0.606
 Vibration    10          0.962              1.024              0.444

 Normal termination of Gaussian 09 at Mon Jan 27 19:21:33 2020.
