 Gaussian 09, Revision D.01,
 Gaussian 09:  ES64L-G09RevD.01 24-Apr-2013

 -----------------------------
 # b3lyp 6-31G(2df,p) opt Freq
 -----------------------------

 -----
 titel
 -----
 Symbolic Z-matrix:
 Charge =  0 Multiplicity = 1

 SCF Done:  E(RB3LYP) =  -423.143756648     A.U. after   14 cycles
 Optimization completed.
    -- Stationary point found.
 Normal termination of Gaussian 09 at Mon Jan 27 18:10:25 2020.

 ----------------------------------------------------------------------
 #N Geom=AllCheck Guess=TCheck SCRF=Check GenChk RB3LYP/6-31G(2df,p) Fr
 eq
 ----------------------------------------------------------------------

 Structure from the checkpoint file:  "/scratch/puck/g09_7f67690b-52c4-42d6-a4fa-7ffa1ff60fa7/Gau-47299.chk"
 -----
 titel
 -----
 Charge =  0 Multiplicity = 1

                         Standard orientation:
 ---------------------------------------------------------------------
 Center     Atomic      Atomic             Coordinates (Angstroms)
 Number     Number       Type             X           Y           Z
 ---------------------------------------------------------------------
      1          6           0        0.053604    2.257972   -0.008069
      2          6           0        0.243996    0.771909   -0.000263
      3          6           0        0.990726   -0.115320    1.042055
      4          6           0       -0.296421   -0.941789    1.286463
      5          6           0       -0.897750   -0.352393   -0.012418
      6          8           0       -2.270451   -0.139133   -0.109337
      7          6           0       -0.268628   -0.942699   -1.289184
      8          6           0        1.011735   -0.117547   -1.025632
      9          8           0        1.818646   -0.706396    0.019385
     10          1           0       -0.492701    2.594835    0.881088
     11          1           0        1.013392    2.786475   -0.026823
     12          1           0       -0.522977    2.575011   -0.884253
     13          1           0        1.573584    0.231015    1.898011
     14          1           0       -0.198144   -2.026561    1.382285
     15          1           0       -0.828576   -0.543471    2.160964
     16          1           0       -2.601554    0.136719    0.752026
     17          1           0       -0.165741   -2.027750   -1.372528
     18          1           0       -0.801605   -0.549303   -2.161048
     19          1           0        1.615191    0.226465   -1.867812
 ---------------------------------------------------------------------

 SCF Done:  E(RB3LYP) =  -423.143756648     A.U. after    1 cycles

 The electronic state is 1-A.
 Alpha  occ. eigenvalues --  -19.14597 -19.12971 -10.23772 -10.23131 -10.22916
 Alpha  occ. eigenvalues --  -10.18889 -10.18495 -10.18331 -10.17716  -1.04535
 Alpha  occ. eigenvalues --   -1.02722  -0.84106  -0.75419  -0.73669  -0.64068
 Alpha  occ. eigenvalues --   -0.61388  -0.59667  -0.53695  -0.48216  -0.47618
 Alpha  occ. eigenvalues --   -0.46880  -0.43629  -0.42213  -0.41413  -0.40566
 Alpha  occ. eigenvalues --   -0.40169  -0.39091  -0.36365  -0.34843  -0.31545
 Alpha  occ. eigenvalues --   -0.29987  -0.26781  -0.24280  -0.24034
 Alpha virt. eigenvalues --    0.06591   0.08085   0.10235   0.11319   0.12239
 Alpha virt. eigenvalues --    0.13882   0.14358   0.15297   0.16243   0.16646
 Alpha virt. eigenvalues --    0.17640   0.18337   0.19386   0.21278   0.22083

 Mulliken charges:
               1
     1  C   -0.539193
     2  C    0.241143
     3  C    0.054228
     4  C   -0.315087
     5  C    0.359952
     6  O   -0.475468
     7  C   -0.280774
     8  C    0.053685
     9  O   -0.306341
    10  H    0.114566
    11  H    0.127429
    12  H    0.129255
    13  H    0.077059
    14  H    0.106787
    15  H    0.086190
    16  H    0.276928
    17  H    0.101955
    18  H    0.110072
    19  H    0.077616
 Sum of Mulliken charges =   0.00000

 Dipole moment (field-independent basis, Debye):
    X=             -0.9478    Y=              1.3573    Z=              1.1285  Tot=              2.0035
 Quadrupole moment (field-independent basis, Debye-Ang):
   XX=            -58.1724   YY=            -52.9675   ZZ=            -49.0671
   XY=              1.1304   XZ=             -3.7872   YZ=              0.2921

  Exact polarizability:  73.137   1.018  74.054  -1.614   0.438  76.508
 Approx polarizability: 110.984  -1.032 103.371  -1.627   1.048 112.548

                      1                      2                      3
                      A                      A                      A
 Frequencies --    168.4221               178.1136               207.4443
 Red. masses --      2.1895                 1.2216                 2.2690
 Frc consts  --      0.0366                 0.0228                 0.0575
 IR Inten    --      0.0623                 0.1573                 1.6242

                      4                      5                      6
                      A                      A                      A
 Frequencies --    259.6804               301.5858               344.9510
 Red. masses --      2.2944                 1.4637                 2.5396
 Frc consts  --      0.0912                 0.0784                 0.1780
 IR Inten    --      4.0593                75.1532                20.1991

                      7                      8                      9
                      A                      A                      A
 Frequencies --    424.7369               424.9801               440.9478
 Red. masses --      2.1759                 2.6047                 3.3024
 Frc consts  --      0.2313                 0.2772                 0.3783
 IR Inten    --      6.4214                 0.9778                 2.7962

                     10                     11                     12
                      A                      A                      A
 Frequencies --    605.3278               644.8433               653.7566
 Red. masses --      3.7166                 3.5822                 3.4461
 Frc consts  --      0.8024                 0.8776                 0.8678
 IR Inten    --      6.0617                 1.1922                 0.7345

                     13                     14                     15
                      A                      A                      A
 Frequencies --    760.9013               844.7951               856.1235
 Red. masses --      3.5000                 2.7647                 2.1422
 Frc consts  --      1.1939                 1.1625                 0.9251
 IR Inten    --      3.3899                20.1538                 2.2848

                     16                     17                     18
                      A                      A                      A
 Frequencies --    872.6088               876.0471               940.1727
 Red. masses --      2.5083                 1.8445                 2.2971
 Frc consts  --      1.1253                 0.8340                 1.1963
 IR Inten    --      1.2358                 4.4546                12.9898

                     19                     20                     21
                      A                      A                      A
 Frequencies --    947.6882               961.3161               986.5661
 Red. masses --      2.2008                 2.1970                 2.1077
 Frc consts  --      1.1646                 1.1962                 1.2087
 IR Inten    --     21.1456                14.0564                27.9324

                     22                     23                     24
                      A                      A                      A
 Frequencies --   1063.1951              1075.4340              1123.3725
 Red. masses --      2.5970                 2.6948                 1.3228
 Frc consts  --      1.7296                 1.8363                 0.9835
 IR Inten    --      5.5118                59.1268                26.4113

                     25                     26                     27
                      A                      A                      A
 Frequencies --   1136.5096              1159.3247              1161.0754
 Red. masses --      2.1347                 1.5216                 1.9284
 Frc consts  --      1.6245                 1.2049                 1.5317
 IR Inten    --      3.5191                 0.4685                19.6941

                     28                     29                     30
                      A                      A                      A
 Frequencies --   1172.0905              1183.0175              1244.2478
 Red. masses --      1.7571                 2.2085                 2.0020
 Frc consts  --      1.4222                 1.8211                 1.8261
 IR Inten    --      9.3428                 1.3462                 7.5621

                     31                     32                     33
                      A                      A                      A
 Frequencies --   1255.9914              1283.7445              1307.4692
 Red. masses --      1.7854                 1.1958                 2.5125
 Frc consts  --      1.6594                 1.1611                 2.5305
 IR Inten    --      1.3159                15.5132               140.8304

                     34                     35                     36
                      A                      A                      A
 Frequencies --   1339.4253              1367.5395              1386.6228
 Red. masses --      1.7684                 2.3500                 1.8156
 Frc consts  --      1.8693                 2.5894                 2.0568
 IR Inten    --     11.5600                 0.3266                20.3421

                     37                     38                     39
                      A                      A                      A
 Frequencies --   1413.6722              1458.4955              1476.4785
 Red. masses --      1.3959                 1.1098                 1.1603
 Frc consts  --      1.6437                 1.3909                 1.4903
 IR Inten    --      0.2751                 3.8866                 0.3417

                     40                     41                     42
                      A                      A                      A
 Frequencies --   1487.9708              1488.9393              3017.8088
 Red. masses --      1.0549                 1.0492                 1.0608
 Frc consts  --      1.3761                 1.3705                 5.6921
 IR Inten    --      7.3053                 5.1412                33.9275

                     43                     44                     45
                      A                      A                      A
 Frequencies --   3020.6445              3049.7200              3081.5520
 Red. masses --      1.0374                 1.0577                 1.0998
 Frc consts  --      5.5767                 5.7959                 6.1534
 IR Inten    --     32.5861                22.4865                17.3777

                     46                     47                     48
                      A                      A                      A
 Frequencies --   3086.4580              3090.3783              3092.5252
 Red. masses --      1.0887                 1.1009                 1.0922
 Frc consts  --      6.1104                 6.1945                 6.1545
 IR Inten    --     69.7132                19.3426                40.8674

                     49                     50                     51
                      A                      A                      A
 Frequencies --   3097.0383              3112.4138              3804.5876
 Red. masses --      1.1015                 1.1078                 1.0658
 Frc consts  --      6.2251                 6.3228                 9.0892
 IR Inten    --     21.4411                24.8198                13.2049

 - Thermochemistry -
 -------------------
 Temperature   298.150 Kelvin.  Pressure   1.00000 Atm.
 Atom     1 has atomic number  6 and mass  12.00000

 Molecular mass:   126.06808 amu.
 Principal axes and moments of inertia in atomic units:
                           1         2         3
     Eigenvalues --   778.53237 981.717511130.78736
           X            0.99907   0.03767  -0.02110
           Y           -0.03767   0.99929   0.00053
           Z            0.02111   0.00027   0.99978
 This molecule is an asymmetric top.
 Rotational symmetry number  1.
 Warning -- assumption of classical behavior for rotation
           may cause significant error
 Rotational temperatures (Kelvin)      0.11125     0.08823     0.07660
 Rotational constants (GHZ):           2.31813     1.83835     1.59600
 Zero-point vibrational energy     417130.4 (Joules/Mol)
                                   99.69655 (Kcal/Mol)
 Warning -- explicit consideration of  10 degrees of freedom as
           vibrations may cause significant error
 Vibrational temperatures:    242.32   256.27   298.47   373.62   433.91
          (Kelvin)            496.31   611.10   611.45   634.42   870.93
                              927.78   940.61  1094.77  1215.47  1231.77
                             1255.49  1260.43  1352.70  1363.51  1383.12
                             1419.45  1529.70  1547.31  1616.28  1635.18
                             1668.01  1670.53  1686.37  1702.10  1790.19
                             1807.09  1847.02  1881.15  1927.13  1967.58
                             1995.04  2033.96  2098.45  2124.32  2140.86
                             2142.25  4341.95  4346.03  4387.86  4433.66
                             4440.72  4446.36  4449.45  4455.94  4478.06
                             5473.95

 Zero-point correction=                           0.158877 (Hartree/Particle)
 Thermal correction to Energy=                    0.166788
 Thermal correction to Enthalpy=                  0.167732
 Thermal correction to Gibbs Free Energy=         0.127074
 Sum of electronic and zero-point Energies=           -422.984880
 Sum of electronic and thermal Energies=              -422.976969
 Sum of electronic and thermal Enthalpies=            -422.976024
 Sum of electronic and thermal Free Energies=         -423.016683

                     E (Thermal)             CV                S
                      KCal/Mol        Cal/Mol-Kelvin    Cal/Mol-Kelvin
 Total                  104.661             31.732             85.573
 Electronic               0.000              0.000              0.000
 Translational            0.889              2.981             40.409
 Rotational               0.889              2.981             28.249
 Vibrational            102.884             25.770             16.916
 Vibration     1          0.625              1.881              2.453
 Vibration     2          0.629              1.869              2.348
 Vibration     3          0.641              1.829              2.066
 Vibration     4          0.668              1.746              1.664
 Vibration     5          0.694              1.671              1.408
 Vibration     6          0.723              1.586              1.189
 Vibration     7          0.787              1.416              0.876
 Vibration     8          0.787              1.416              0.875
 Vibration     9          0.801              1.381              0.824
 Vibration    10          0.964              1.021              0.441

 Normal termination of Gaussian 09 at Mon Jan 27 18:57:16 2020.
