 Gaussian 09, Revision D.01,
 Gaussian 09:  ES64L-G09RevD.01 24-Apr-2013

 -----------------------------
 # b3lyp 6-31G(2df,p) opt Freq
 -----------------------------

 -----
 titel
 -----
 Symbolic Z-matrix:
 Charge =  0 Multiplicity = 1

 SCF Done:  E(RB3LYP) =  -423.151557066     A.U. after   13 cycles
 Optimization completed.
    -- Stationary point found.
 Normal termination of Gaussian 09 at Mon Jan 27 11:28:57 2020.

 ----------------------------------------------------------------------
 #N Geom=AllCheck Guess=TCheck SCRF=Check GenChk RB3LYP/6-31G(2df,p) Fr
 eq
 ----------------------------------------------------------------------

 Structure from the checkpoint file:  "/scratch/puck/g09_2825d753-b51a-43c3-b2b9-29d05735f066/Gau-61244.chk"
 -----
 titel
 -----
 Charge =  0 Multiplicity = 1

                         Standard orientation:
 ---------------------------------------------------------------------
 Center     Atomic      Atomic             Coordinates (Angstroms)
 Number     Number       Type             X           Y           Z
 ---------------------------------------------------------------------
      1          6           0       -0.151674    1.760892    0.811860
      2          6           0       -0.668213    1.204748   -0.499958
      3          6           0       -1.864208    0.265959   -0.554287
      4          8           0       -1.726247   -0.864928    0.294854
      5          6           0       -0.541322   -1.606011    0.025787
      6          6           0        0.647397   -0.804790    0.550480
      7          8           0        1.890726   -0.967178   -0.175327
      8          6           0        1.970567    0.454352   -0.453728
      9          6           0        0.578697    0.654552    0.127280
     10          1           0        0.276438    2.758141    0.794197
     11          1           0       -0.684707    1.512075    1.725295
     12          1           0       -0.552020    1.843673   -1.371530
     13          1           0       -2.784529    0.765377   -0.233729
     14          1           0       -2.005960   -0.070664   -1.595238
     15          1           0       -0.658148   -2.571457    0.524735
     16          1           0       -0.414376   -1.778526   -1.054246
     17          1           0        0.793559   -0.969788    1.626551
     18          1           0        2.786665    0.930907    0.106602
     19          1           0        2.099771    0.658902   -1.523456
 ---------------------------------------------------------------------

 SCF Done:  E(RB3LYP) =  -423.151557066     A.U. after    1 cycles

 The electronic state is 1-A.
 Alpha  occ. eigenvalues --  -19.14469 -19.13347 -10.23325 -10.23286 -10.23026
 Alpha  occ. eigenvalues --  -10.22565 -10.20059 -10.19653 -10.19095  -1.04354
 Alpha  occ. eigenvalues --   -1.02925  -0.86518  -0.75404  -0.70145  -0.67369
 Alpha  occ. eigenvalues --   -0.63423  -0.58161  -0.53057  -0.50984  -0.49824
 Alpha  occ. eigenvalues --   -0.48502  -0.46643  -0.44341  -0.42155  -0.41397
 Alpha  occ. eigenvalues --   -0.38989  -0.37653  -0.35844  -0.33413  -0.30534
 Alpha  occ. eigenvalues --   -0.29583  -0.28383  -0.26302  -0.23736
 Alpha virt. eigenvalues --    0.06522   0.09462   0.09974   0.10820   0.12381
 Alpha virt. eigenvalues --    0.13299   0.13787   0.14796   0.16229   0.16353
 Alpha virt. eigenvalues --    0.17792   0.19014   0.19862   0.20727   0.22476

 Mulliken charges:
               1
     1  C   -0.367977
     2  C   -0.100543
     3  C   -0.094908
     4  O   -0.249771
     5  C   -0.112161
     6  C    0.080310
     7  O   -0.303304
     8  C   -0.162874
     9  C    0.291235
    10  H    0.114187
    11  H    0.122409
    12  H    0.089938
    13  H    0.111435
    14  H    0.092262
    15  H    0.109409
    16  H    0.095588
    17  H    0.077202
    18  H    0.102715
    19  H    0.104849
 Sum of Mulliken charges =   0.00000

 Dipole moment (field-independent basis, Debye):
    X=             -0.2741    Y=              1.7215    Z=             -0.5257  Tot=              1.8207
 Quadrupole moment (field-independent basis, Debye-Ang):
   XX=            -57.3458   YY=            -52.1096   ZZ=            -51.5137
   XY=              1.9385   XZ=              1.6522   YZ=             -1.0509

  Exact polarizability:  78.838   0.572  76.972   0.721  -0.571  68.056
 Approx polarizability: 108.697  -1.930 108.388  -1.078  -1.475 105.169

                      1                      2                      3
                      A                      A                      A
 Frequencies --    113.7931               196.8657               264.9334
 Red. masses --      3.0234                 2.3339                 3.9224
 Frc consts  --      0.0231                 0.0533                 0.1622
 IR Inten    --      2.5146                 0.1879                 6.7661

                      4                      5                      6
                      A                      A                      A
 Frequencies --    319.2712               371.1709               387.0246
 Red. masses --      2.5128                 2.1045                 2.7236
 Frc consts  --      0.1509                 0.1708                 0.2404
 IR Inten    --      2.5817                 2.0625                 5.5407

                      7                      8                      9
                      A                      A                      A
 Frequencies --    453.9981               506.4415               565.1008
 Red. masses --      5.0540                 3.4608                 3.8738
 Frc consts  --      0.6137                 0.5230                 0.7289
 IR Inten    --      0.4537                 1.9391                 2.9663

                     10                     11                     12
                      A                      A                      A
 Frequencies --    693.5744               783.4758               807.8760
 Red. masses --      2.7522                 2.3262                 3.2873
 Frc consts  --      0.7800                 0.8413                 1.2641
 IR Inten    --      5.3296                 0.3955                 4.1315

                     13                     14                     15
                      A                      A                      A
 Frequencies --    859.0204               885.5617               915.3546
 Red. masses --      2.0213                 1.4543                 2.2885
 Frc consts  --      0.8788                 0.6720                 1.1298
 IR Inten    --      7.5879                 4.7999                14.9971

                     16                     17                     18
                      A                      A                      A
 Frequencies --    944.0421               973.9007              1005.6189
 Red. masses --      2.6151                 3.3667                 5.8944
 Frc consts  --      1.3732                 1.8814                 3.5120
 IR Inten    --     19.8658                18.1668                75.0664

                     19                     20                     21
                      A                      A                      A
 Frequencies --   1033.3417              1060.7775              1071.3088
 Red. masses --      2.0371                 1.3039                 1.6886
 Frc consts  --      1.2816                 0.8645                 1.1418
 IR Inten    --     36.9402                 2.5336                 6.4411

                     22                     23                     24
                      A                      A                      A
 Frequencies --   1086.5916              1110.7746              1113.3985
 Red. masses --      2.9828                 2.0776                 2.1236
 Frc consts  --      2.0749                 1.5103                 1.5510
 IR Inten    --     12.2027                 7.9160                 3.7409

                     25                     26                     27
                      A                      A                      A
 Frequencies --   1130.1772              1143.6991              1154.5846
 Red. masses --      2.4660                 2.1439                 1.3098
 Frc consts  --      1.8558                 1.6523                 1.0287
 IR Inten    --     23.4549                20.2053                 2.8595

                     28                     29                     30
                      A                      A                      A
 Frequencies --   1227.6287              1248.8544              1260.3284
 Red. masses --      1.9925                 1.1938                 1.5106
 Frc consts  --      1.7692                 1.0970                 1.4137
 IR Inten    --      2.4489                16.4465                 2.4181

                     31                     32                     33
                      A                      A                      A
 Frequencies --   1304.8018              1315.6388              1341.8620
 Red. masses --      1.4701                 1.2079                 1.3620
 Frc consts  --      1.4746                 1.2318                 1.4449
 IR Inten    --      2.1631                 3.4025                 8.6739

                     34                     35                     36
                      A                      A                      A
 Frequencies --   1370.8802              1387.2482              1411.1208
 Red. masses --      1.4510                 1.4834                 1.3539
 Frc consts  --      1.6066                 1.6820                 1.5884
 IR Inten    --      2.9170                 7.5324                 6.8840

                     37                     38                     39
                      A                      A                      A
 Frequencies --   1433.0469              1488.9076              1497.2366
 Red. masses --      1.4853                 1.1976                 1.2140
 Frc consts  --      1.7972                 1.5642                 1.6034
 IR Inten    --      0.6917                 0.3093                 1.0089

                     40                     41                     42
                      A                      A                      A
 Frequencies --   1502.3541              1524.2644              2962.2869
 Red. masses --      1.6442                 1.1093                 1.0703
 Frc consts  --      2.1865                 1.5186                 5.5336
 IR Inten    --      5.4578                 1.2121                64.6167

                     43                     44                     45
                      A                      A                      A
 Frequencies --   2989.8440              3001.3476              3012.7931
 Red. masses --      1.0682                 1.0595                 1.0818
 Frc consts  --      5.6259                 5.6231                 5.7855
 IR Inten    --     34.8541                85.7390                52.3319

                     46                     47                     48
                      A                      A                      A
 Frequencies --   3050.8070              3067.9431              3096.4905
 Red. masses --      1.1077                 1.0919                 1.0973
 Frc consts  --      6.0745                 6.0555                 6.1987
 IR Inten    --     39.5661                35.8031                38.7110

                     49                     50                     51
                      A                      A                      A
 Frequencies --   3118.6512              3143.0271              3206.0196
 Red. masses --      1.0538                 1.0888                 1.1161
 Frc consts  --      6.0387                 6.3371                 6.7589
 IR Inten    --     12.5888                14.8190                 7.6277

 - Thermochemistry -
 -------------------
 Temperature   298.150 Kelvin.  Pressure   1.00000 Atm.
 Atom     1 has atomic number  6 and mass  12.00000

 Molecular mass:   126.06808 amu.
 Principal axes and moments of inertia in atomic units:
                           1         2         3
     Eigenvalues --   685.76091 981.976631401.17760
           X            0.99956   0.02780   0.01058
           Y           -0.02783   0.99961   0.00210
           Z           -0.01052  -0.00239   0.99994
 This molecule is an asymmetric top.
 Rotational symmetry number  1.
 Warning -- assumption of classical behavior for rotation
           may cause significant error
 Rotational temperatures (Kelvin)      0.12630     0.08820     0.06182
 Rotational constants (GHZ):           2.63174     1.83787     1.28802
 Zero-point vibrational energy     424166.3 (Joules/Mol)
                                  101.37817 (Kcal/Mol)
 Warning -- explicit consideration of   9 degrees of freedom as
           vibrations may cause significant error
 Vibrational temperatures:    163.72   283.25   381.18   459.36   534.03
          (Kelvin)            556.84   653.20   728.66   813.05   997.90
                             1127.25  1162.35  1235.94  1274.12  1316.99
                             1358.26  1401.22  1446.86  1486.75  1526.22
                             1541.37  1563.36  1598.15  1601.93  1626.07
                             1645.53  1661.19  1766.28  1796.82  1813.33
                             1877.32  1892.91  1930.64  1972.39  1995.94
                             2030.29  2061.83  2142.20  2154.19  2161.55
                             2193.07  4262.06  4301.71  4318.26  4334.73
                             4389.43  4414.08  4455.15  4487.04  4522.11
                             4612.74

 Zero-point correction=                           0.161556 (Hartree/Particle)
 Thermal correction to Energy=                    0.168763
 Thermal correction to Enthalpy=                  0.169707
 Thermal correction to Gibbs Free Energy=         0.130065
 Sum of electronic and zero-point Energies=           -422.990001
 Sum of electronic and thermal Energies=              -422.982794
 Sum of electronic and thermal Enthalpies=            -422.981850
 Sum of electronic and thermal Free Energies=         -423.021492

                     E (Thermal)             CV                S
                      KCal/Mol        Cal/Mol-Kelvin    Cal/Mol-Kelvin
 Total                  105.900             28.976             83.434
 Electronic               0.000              0.000              0.000
 Translational            0.889              2.981             40.409
 Rotational               0.889              2.981             28.336
 Vibrational            104.123             23.015             14.690
 Vibration     1          0.607              1.938              3.203
 Vibration     2          0.636              1.844              2.162
 Vibration     3          0.671              1.737              1.629
 Vibration     4          0.705              1.637              1.314
 Vibration     5          0.743              1.531              1.075
 Vibration     6          0.755              1.498              1.012
 Vibration     7          0.812              1.352              0.784
 Vibration     8          0.862              1.236              0.642
 Vibration     9          0.921              1.107              0.514

 Optimization completed.
    -- Stationary point found.
 Normal termination of Gaussian 09 at Mon Jan 27 13:42:21 2020.
