 Gaussian 09, Revision D.01,
 Gaussian 09:  ES64L-G09RevD.01 24-Apr-2013

 -----------------------------
 # b3lyp 6-31G(2df,p) opt Freq
 -----------------------------

 -----
 titel
 -----
 Symbolic Z-matrix:
 Charge =  0 Multiplicity = 1

 SCF Done:  E(RB3LYP) =  -423.145274333     A.U. after   13 cycles
 Optimization completed.
    -- Stationary point found.
 Normal termination of Gaussian 09 at Tue Jan 28 02:24:30 2020.

 ----------------------------------------------------------------------
 #N Geom=AllCheck Guess=TCheck SCRF=Check GenChk RB3LYP/6-31G(2df,p) Fr
 eq
 ----------------------------------------------------------------------

 Structure from the checkpoint file:  "/scratch/puck/g09_a0933f1f-be05-420f-b35b-38e258956c2e/Gau-86276.chk"
 -----
 titel
 -----
 Charge =  0 Multiplicity = 1

                         Standard orientation:
 ---------------------------------------------------------------------
 Center     Atomic      Atomic             Coordinates (Angstroms)
 Number     Number       Type             X           Y           Z
 ---------------------------------------------------------------------
      1          8           0        2.634247   -0.081461   -0.436439
      2          6           0        1.538930    0.033204    0.458309
      3          6           0        0.655792    1.297696    0.264956
      4          6           0       -0.694267    0.632108   -0.004604
      5          8           0       -1.814889    1.445444   -0.169871
      6          6           0       -0.471992   -0.643700   -0.904935
      7          6           0       -1.648180   -1.331729   -0.171454
      8          6           0       -0.859491   -0.594765    0.941093
      9          6           0        0.475459   -1.050697    0.272392
     10          1           0        2.277892   -0.207549   -1.322649
     11          1           0        1.987822   -0.000397    1.455305
     12          1           0        0.621020    1.945356    1.146245
     13          1           0        1.014480    1.896781   -0.580344
     14          1           0       -1.620237    2.094849   -0.853611
     15          1           0       -0.244871   -0.665961   -1.974574
     16          1           0       -2.646867   -0.951307   -0.389812
     17          1           0       -1.629852   -2.424221   -0.139453
     18          1           0       -1.072720   -0.558765    2.011135
     19          1           0        0.780972   -2.093352    0.363690
 ---------------------------------------------------------------------

 SCF Done:  E(RB3LYP) =  -423.145274333     A.U. after    1 cycles

 The electronic state is 1-A.
 Alpha  occ. eigenvalues --  -19.14569 -19.13287 -10.24200 -10.22873 -10.19705
 Alpha  occ. eigenvalues --  -10.19703 -10.19141 -10.18334 -10.17757  -1.03409
 Alpha  occ. eigenvalues --   -1.01542  -0.91607  -0.76521  -0.68084  -0.63727
 Alpha  occ. eigenvalues --   -0.63462  -0.58963  -0.53973  -0.50709  -0.49856
 Alpha  occ. eigenvalues --   -0.46820  -0.45514  -0.43247  -0.41336  -0.38313
 Alpha  occ. eigenvalues --   -0.36515  -0.35115  -0.33721  -0.32827  -0.31549
 Alpha  occ. eigenvalues --   -0.30661  -0.29652  -0.26528  -0.25073
 Alpha virt. eigenvalues --    0.07216   0.07368   0.11404   0.12373   0.12577
 Alpha virt. eigenvalues --    0.14017   0.14971   0.15477   0.16745   0.16960
 Alpha virt. eigenvalues --    0.18028   0.19236   0.19462   0.20974   0.22295

 Mulliken charges:
               1
     1  O   -0.442536
     2  C    0.127611
     3  C   -0.350749
     4  C    0.459356
     5  O   -0.489923
     6  C   -0.145620
     7  C   -0.250882
     8  C   -0.100894
     9  C   -0.046976
    10  H    0.276365
    11  H    0.088138
    12  H    0.106609
    13  H    0.088926
    14  H    0.281679
    15  H    0.058153
    16  H    0.109397
    17  H    0.088344
    18  H    0.070906
    19  H    0.072097
 Sum of Mulliken charges =   0.00000

 Dipole moment (field-independent basis, Debye):
    X=             -0.4909    Y=              0.3122    Z=             -1.1395  Tot=              1.2795
 Quadrupole moment (field-independent basis, Debye-Ang):
   XX=            -63.3270   YY=            -50.5776   ZZ=            -48.6186
   XY=              0.3204   XZ=              0.6666   YZ=             -2.2379

  Exact polarizability:  78.667   2.343  75.455   0.571  -0.337  68.973
 Approx polarizability: 111.019  -0.670 108.592  -1.053  -0.852 110.697

                      1                      2                      3
                      A                      A                      A
 Frequencies --    119.7003               229.1881               258.1296
 Red. masses --      3.7723                 1.6716                 1.1556
 Frc consts  --      0.0318                 0.0517                 0.0454
 IR Inten    --      3.9360                 9.9125                63.9343

                      4                      5                      6
                      A                      A                      A
 Frequencies --    290.6657               337.1698               360.0539
 Red. masses --      1.4781                 3.7571                 3.1363
 Frc consts  --      0.0736                 0.2517                 0.2396
 IR Inten    --     74.1902                29.7152                 7.2147

                      7                      8                      9
                      A                      A                      A
 Frequencies --    401.7273               472.2755               500.1937
 Red. masses --      2.5765                 4.2558                 2.4810
 Frc consts  --      0.2450                 0.5593                 0.3657
 IR Inten    --      4.3822                 1.1891                 2.5827

                     10                     11                     12
                      A                      A                      A
 Frequencies --    639.7350               676.2274               698.6838
 Red. masses --      4.9885                 3.7072                 3.5128
 Frc consts  --      1.2029                 0.9988                 1.0103
 IR Inten    --      4.7011                 6.3492                 2.4152

                     13                     14                     15
                      A                      A                      A
 Frequencies --    771.6216               844.7643               866.5347
 Red. masses --      2.8383                 2.2976                 2.7566
 Frc consts  --      0.9957                 0.9660                 1.2195
 IR Inten    --      4.0294                 1.7861                 5.7018

                     16                     17                     18
                      A                      A                      A
 Frequencies --    892.9033               912.3654               916.2101
 Red. masses --      2.0487                 2.8246                 1.9728
 Frc consts  --      0.9624                 1.3853                 0.9757
 IR Inten    --      2.7219                 9.3828                 0.8883

                     19                     20                     21
                      A                      A                      A
 Frequencies --    980.8098              1009.5903              1023.0859
 Red. masses --      1.6068                 1.3282                 1.6467
 Frc consts  --      0.9107                 0.7976                 1.0155
 IR Inten    --      2.4586                 5.5323                26.7465

                     22                     23                     24
                      A                      A                      A
 Frequencies --   1045.3024              1070.4776              1091.0716
 Red. masses --      2.3294                 1.4809                 1.8926
 Frc consts  --      1.4996                 0.9998                 1.3274
 IR Inten    --      3.3392                 9.9550                78.9664

                     25                     26                     27
                      A                      A                      A
 Frequencies --   1092.7724              1118.0094              1139.4354
 Red. masses --      1.7706                 1.7911                 1.8572
 Frc consts  --      1.2457                 1.3190                 1.4207
 IR Inten    --     11.7799                52.5727                25.2347

                     28                     29                     30
                      A                      A                      A
 Frequencies --   1167.3357              1184.6958              1199.7874
 Red. masses --      1.5359                 1.4379                 1.8643
 Frc consts  --      1.2331                 1.1890                 1.5811
 IR Inten    --     16.1171                 0.7120                22.2058

                     31                     32                     33
                      A                      A                      A
 Frequencies --   1227.1151              1233.5265              1263.4000
 Red. masses --      1.6016                 1.7874                 1.6523
 Frc consts  --      1.4209                 1.6024                 1.5539
 IR Inten    --     19.4387                13.2563                 1.3114

                     34                     35                     36
                      A                      A                      A
 Frequencies --   1277.6252              1297.1108              1318.3889
 Red. masses --      2.4532                 1.5887                 1.7464
 Frc consts  --      2.3594                 1.5748                 1.7884
 IR Inten    --     69.4703                 2.4079                54.5291

                     37                     38                     39
                      A                      A                      A
 Frequencies --   1325.4307              1387.0102              1433.5508
 Red. masses --      1.6924                 1.9070                 1.2364
 Frc consts  --      1.7517                 2.1616                 1.4971
 IR Inten    --     26.5408                14.2340                64.1294

                     40                     41                     42
                      A                      A                      A
 Frequencies --   1489.2668              1510.4918              3036.5182
 Red. masses --      1.1084                 1.1341                 1.0616
 Frc consts  --      1.4484                 1.5246                 5.7671
 IR Inten    --      0.2853                 1.8556                31.8419

                     43                     44                     45
                      A                      A                      A
 Frequencies --   3059.1795              3066.8171              3069.8133
 Red. masses --      1.0644                 1.0884                 1.0811
 Frc consts  --      5.8691                 6.0312                 6.0027
 IR Inten    --     53.3156                16.8369                69.9780

                     46                     47                     48
                      A                      A                      A
 Frequencies --   3090.0382              3095.9207              3118.9747
 Red. masses --      1.1007                 1.0898                 1.0907
 Frc consts  --      6.1924                 6.1542                 6.2515
 IR Inten    --     24.4807                46.3700                33.7340

                     49                     50                     51
                      A                      A                      A
 Frequencies --   3134.2324              3800.7709              3810.8309
 Red. masses --      1.1083                 1.0659                 1.0659
 Frc consts  --      6.4145                 9.0718                 9.1204
 IR Inten    --     24.5073                 8.3001                24.5902

 - Thermochemistry -
 -------------------
 Temperature   298.150 Kelvin.  Pressure   1.00000 Atm.
 Atom     1 has atomic number  8 and mass  15.99491

 Molecular mass:   126.06808 amu.
 Principal axes and moments of inertia in atomic units:
                           1         2         3
     Eigenvalues --   604.269651135.869001431.82130
           X            0.99946   0.03237   0.00531
           Y           -0.03236   0.99947  -0.00262
           Z           -0.00539   0.00245   0.99998
 This molecule is an asymmetric top.
 Rotational symmetry number  1.
 Warning -- assumption of classical behavior for rotation
           may cause significant error
 Rotational temperatures (Kelvin)      0.14334     0.07625     0.06049
 Rotational constants (GHZ):           2.98665     1.58886     1.26045
 Zero-point vibrational energy     420825.5 (Joules/Mol)
                                  100.57972 (Kcal/Mol)
 Warning -- explicit consideration of   9 degrees of freedom as
           vibrations may cause significant error
 Vibrational temperatures:    172.22   329.75   371.39   418.20   485.11
          (Kelvin)            518.04   578.00   679.50   719.67   920.43
                              972.94  1005.25  1110.19  1215.43  1246.75
                             1284.69  1312.69  1318.22  1411.16  1452.57
                             1471.99  1503.96  1540.18  1569.81  1572.25
                             1608.56  1639.39  1679.53  1704.51  1726.22
                             1765.54  1774.77  1817.75  1838.22  1866.25
                             1896.87  1907.00  1995.60  2062.56  2142.72
                             2173.26  4368.87  4401.47  4412.46  4416.77
                             4445.87  4454.33  4487.50  4509.46  5468.45
                             5482.93

 Zero-point correction=                           0.160284 (Hartree/Particle)
 Thermal correction to Energy=                    0.167917
 Thermal correction to Enthalpy=                  0.168861
 Thermal correction to Gibbs Free Energy=         0.128626
 Sum of electronic and zero-point Energies=           -422.984990
 Sum of electronic and thermal Energies=              -422.977358
 Sum of electronic and thermal Enthalpies=            -422.976413
 Sum of electronic and thermal Free Energies=         -423.016648

                     E (Thermal)             CV                S
                      KCal/Mol        Cal/Mol-Kelvin    Cal/Mol-Kelvin
 Total                  105.369             31.235             84.682
 Electronic               0.000              0.000              0.000
 Translational            0.889              2.981             40.409
 Rotational               0.889              2.981             28.376
 Vibrational            103.592             25.274             15.897
 Vibration     1          0.609              1.933              3.105
 Vibration     2          0.652              1.796              1.885
 Vibration     3          0.667              1.749              1.674
 Vibration     4          0.687              1.691              1.470
 Vibration     5          0.718              1.601              1.226
 Vibration     6          0.735              1.555              1.122
 Vibration     7          0.767              1.466              0.956
 Vibration     8          0.829              1.312              0.731
 Vibration     9          0.856              1.250              0.658

 Optimization completed.
    -- Stationary point found.
 Normal termination of Gaussian 09 at Tue Jan 28 03:10:17 2020.
