 Gaussian 09, Revision D.01,
 Gaussian 09:  ES64L-G09RevD.01 24-Apr-2013

 -----------------------------
 # b3lyp 6-31G(2df,p) opt Freq
 -----------------------------

 -----
 titel
 -----
 Symbolic Z-matrix:
 Charge =  0 Multiplicity = 1

 SCF Done:  E(RB3LYP) =  -423.169313700     A.U. after   14 cycles
 Optimization completed.
    -- Stationary point found.
 Normal termination of Gaussian 09 at Tue Jan 28 14:13:10 2020.

 ----------------------------------------------------------------------
 #N Geom=AllCheck Guess=TCheck SCRF=Check GenChk RB3LYP/6-31G(2df,p) Fr
 eq
 ----------------------------------------------------------------------

 Structure from the checkpoint file:  "/scratch/puck/g09_ae0a4ec6-aed3-44ac-ba81-97b5dc3dceba/Gau-11087.chk"
 -----
 titel
 -----
 Charge =  0 Multiplicity = 1

                         Standard orientation:
 ---------------------------------------------------------------------
 Center     Atomic      Atomic             Coordinates (Angstroms)
 Number     Number       Type             X           Y           Z
 ---------------------------------------------------------------------
      1          6           0        3.503201    0.095113    0.071483
      2          6           0        2.051693    0.165450   -0.406371
      3          6           0        1.062433   -0.408475    0.622658
      4          6           0       -0.352719   -0.326888    0.152466
      5          8           0       -0.815499   -1.251932   -0.868508
      6          6           0       -1.571091   -1.164062    0.335053
      7          6           0       -2.542573    0.006776    0.136870
      8          6           0       -1.265863    0.891038   -0.024477
      9          8           0       -1.074032    2.069124   -0.080733
     10          1           0        4.185776    0.507881   -0.677310
     11          1           0        3.644176    0.661917    0.998587
     12          1           0        3.807977   -0.939323    0.266098
     13          1           0        1.776080    1.204843   -0.618171
     14          1           0        1.939421   -0.385424   -1.347327
     15          1           0        1.303831   -1.456262    0.838014
     16          1           0        1.150072    0.144068    1.566997
     17          1           0       -1.684724   -2.057715    0.936560
     18          1           0       -3.211214   -0.078104   -0.721664
     19          1           0       -3.105635    0.306887    1.026053
 ---------------------------------------------------------------------

 SCF Done:  E(RB3LYP) =  -423.169313700     A.U. after    1 cycles

 The electronic state is 1-A.
 Alpha  occ. eigenvalues --  -19.16908 -19.14600 -10.27929 -10.25504 -10.25056
 Alpha  occ. eigenvalues --  -10.20299 -10.19756 -10.18520 -10.17654  -1.09472
 Alpha  occ. eigenvalues --   -1.05233  -0.80538  -0.79681  -0.72022  -0.64518
 Alpha  occ. eigenvalues --   -0.62813  -0.59408  -0.51934  -0.50002  -0.48372
 Alpha  occ. eigenvalues --   -0.46102  -0.45544  -0.42974  -0.42252  -0.40385
 Alpha  occ. eigenvalues --   -0.39488  -0.38313  -0.36848  -0.35643  -0.34775
 Alpha  occ. eigenvalues --   -0.33578  -0.31458  -0.28055  -0.24089
 Alpha virt. eigenvalues --   -0.02493   0.07902   0.09583   0.11250   0.11636
 Alpha virt. eigenvalues --    0.12958   0.13420   0.13753   0.15259   0.15386
 Alpha virt. eigenvalues --    0.17294   0.18169   0.18493   0.19603   0.21667

 Mulliken charges:
               1
     1  C   -0.385612
     2  C   -0.169731
     3  C   -0.334010
     4  C    0.313975
     5  O   -0.280830
     6  C   -0.057371
     7  C   -0.371767
     8  C    0.384948
     9  O   -0.300254
    10  H    0.116983
    11  H    0.116136
    12  H    0.114556
    13  H    0.124261
    14  H    0.114741
    15  H    0.111783
    16  H    0.112298
    17  H    0.120038
    18  H    0.137621
    19  H    0.132235
 Sum of Mulliken charges =   0.00000

 Dipole moment (field-independent basis, Debye):
    X=             -0.1098    Y=             -1.8730    Z=              1.7280  Tot=              2.5508
 Quadrupole moment (field-independent basis, Debye-Ang):
   XX=            -48.3208   YY=            -59.1997   ZZ=            -52.9883
   XY=              2.6596   XZ=             -1.8833   YZ=             -1.9997

  Exact polarizability:  93.750   2.848  75.688  -1.159  -1.425  60.631
 Approx polarizability: 113.867   6.673 124.974  -2.650   1.473  97.137

                      1                      2                      3
                      A                      A                      A
 Frequencies --     58.2856                80.6020               107.5256
 Red. masses --      3.1208                 1.9289                 3.4609
 Frc consts  --      0.0062                 0.0074                 0.0236
 IR Inten    --      0.7832                 0.4914                 3.6064

                      4                      5                      6
                      A                      A                      A
 Frequencies --    151.9126               236.7027               253.7112
 Red. masses --      4.5394                 1.6466                 1.5312
 Frc consts  --      0.0617                 0.0544                 0.0581
 IR Inten    --      3.2721                 0.6575                 0.6803

                      7                      8                      9
                      A                      A                      A
 Frequencies --    315.5545               355.6906               450.4625
 Red. masses --      2.9097                 3.6742                 2.9649
 Frc consts  --      0.1707                 0.2739                 0.3545
 IR Inten    --      0.2320                 0.9223                 1.2318

                     10                     11                     12
                      A                      A                      A
 Frequencies --    504.2121               576.3163               674.0587
 Red. masses --      3.6165                 3.1446                 4.3890
 Frc consts  --      0.5417                 0.6154                 1.1749
 IR Inten    --     13.0323                 5.1947                 3.5323

                     13                     14                     15
                      A                      A                      A
 Frequencies --    732.9590               748.7192               779.2246
 Red. masses --      1.7413                 2.4165                 2.3796
 Frc consts  --      0.5512                 0.7981                 0.8513
 IR Inten    --      7.3770                 1.7942                 4.2467

                     16                     17                     18
                      A                      A                      A
 Frequencies --    864.8003               884.1207               902.0512
 Red. masses --      3.0793                 1.5070                 1.9674
 Frc consts  --      1.3569                 0.6940                 0.9432
 IR Inten    --     15.3061                 4.9840                 1.8887

                     19                     20                     21
                      A                      A                      A
 Frequencies --    932.5143               959.3470               990.4117
 Red. masses --      2.9853                 1.5457                 2.8438
 Frc consts  --      1.5295                 0.8382                 1.6435
 IR Inten    --     14.9004                10.8096                28.3443

                     22                     23                     24
                      A                      A                      A
 Frequencies --   1038.9718              1048.0155              1085.9304
 Red. masses --      2.0801                 2.6584                 2.0692
 Frc consts  --      1.3230                 1.7203                 1.4377
 IR Inten    --     15.1186                 2.4887                 5.1025

                     25                     26                     27
                      A                      A                      A
 Frequencies --   1118.8755              1137.1066              1189.4129
 Red. masses --      2.0339                 1.4050                 1.8069
 Frc consts  --      1.5002                 1.0703                 1.5061
 IR Inten    --      3.7717                 4.4357                 9.1140

                     28                     29                     30
                      A                      A                      A
 Frequencies --   1226.3165              1247.0071              1283.1204
 Red. masses --      2.0139                 1.4211                 1.5111
 Frc consts  --      1.7844                 1.3020                 1.4658
 IR Inten    --      5.3185                10.6613                 0.8628

                     31                     32                     33
                      A                      A                      A
 Frequencies --   1306.5489              1335.7095              1384.2030
 Red. masses --      1.3955                 1.1201                 1.5469
 Frc consts  --      1.4036                 1.1774                 1.7462
 IR Inten    --      1.2894                 0.4229                 2.3484

                     34                     35                     36
                      A                      A                      A
 Frequencies --   1412.9216              1432.3083              1451.0071
 Red. masses --      1.2434                 1.7582                 1.5133
 Frc consts  --      1.4626                 2.1251                 1.8772
 IR Inten    --      0.6947                 4.5826                 3.5692

                     37                     38                     39
                      A                      A                      A
 Frequencies --   1472.3802              1493.6854              1499.7780
 Red. masses --      1.3078                 1.0554                 1.0403
 Frc consts  --      1.6705                 1.3874                 1.3786
 IR Inten    --      4.3949                 0.8047                 5.7222

                     40                     41                     42
                      A                      A                      A
 Frequencies --   1508.8688              1892.2677              3022.8676
 Red. masses --      1.0868                12.8414                 1.0581
 Frc consts  --      1.4578                27.0912                 5.6965
 IR Inten    --      4.5281               245.4740                 6.1620

                     43                     44                     45
                      A                      A                      A
 Frequencies --   3029.4547              3040.6035              3058.8202
 Red. masses --      1.0376                 1.0586                 1.1007
 Frc consts  --      5.6105                 5.7661                 6.0677
 IR Inten    --     24.2956                31.5172                 2.7269

                     46                     47                     48
                      A                      A                      A
 Frequencies --   3066.1847              3078.0384              3100.8240
 Red. masses --      1.0589                 1.1030                 1.1035
 Frc consts  --      5.8655                 6.1570                 6.2515
 IR Inten    --     10.3429                 2.2425                53.1814

                     49                     50                     51
                      A                      A                      A
 Frequencies --   3106.0944              3130.6987              3199.9405
 Red. masses --      1.1005                 1.1056                 1.0945
 Frc consts  --      6.2557                 6.3845                 6.6033
 IR Inten    --     31.2569                 6.6901                 8.2310

 - Thermochemistry -
 -------------------
 Temperature   298.150 Kelvin.  Pressure   1.00000 Atm.
 Atom     1 has atomic number  6 and mass  12.00000

 Molecular mass:   126.06808 amu.
 Principal axes and moments of inertia in atomic units:
                           1         2         3
     Eigenvalues --   581.391941700.819802067.86126
           X            0.99994   0.01008  -0.00322
           Y           -0.01016   0.99960  -0.02656
           Z            0.00295   0.02660   0.99964
 This molecule is an asymmetric top.
 Rotational symmetry number  1.
 Warning -- assumption of classical behavior for rotation
           may cause significant error
 Rotational temperatures (Kelvin)      0.14898     0.05092     0.04189
 Rotational constants (GHZ):           3.10417     1.06110     0.87276
 Zero-point vibrational energy     412455.3 (Joules/Mol)
                                   98.57919 (Kcal/Mol)
 Warning -- explicit consideration of  11 degrees of freedom as
           vibrations may cause significant error
 Vibrational temperatures:     83.86   115.97   154.71   218.57   340.56
          (Kelvin)            365.03   454.01   511.76   648.11   725.45
                              829.19   969.82  1054.56  1077.24  1121.13
                             1244.25  1272.05  1297.85  1341.68  1380.28
                             1424.98  1494.85  1507.86  1562.41  1609.81
                             1636.04  1711.30  1764.39  1794.16  1846.12
                             1879.83  1921.79  1991.56  2032.88  2060.77
                             2087.67  2118.42  2149.08  2157.84  2170.92
                             2722.55  4349.23  4358.70  4374.74  4400.95
                             4411.55  4428.61  4461.39  4468.97  4504.37
                             4603.99

 Zero-point correction=                           0.157096 (Hartree/Particle)
 Thermal correction to Energy=                    0.166245
 Thermal correction to Enthalpy=                  0.167189
 Thermal correction to Gibbs Free Energy=         0.122378
 Sum of electronic and zero-point Energies=           -423.012218
 Sum of electronic and thermal Energies=              -423.003069
 Sum of electronic and thermal Enthalpies=            -423.002125
 Sum of electronic and thermal Free Energies=         -423.046936

                     E (Thermal)             CV                S
                      KCal/Mol        Cal/Mol-Kelvin    Cal/Mol-Kelvin
 Total                  104.320             33.285             94.314
 Electronic               0.000              0.000              0.000
 Translational            0.889              2.981             40.409
 Rotational               0.889              2.981             29.104
 Vibrational            102.543             27.324             24.801
 Vibration     1          0.596              1.974              4.514
 Vibration     2          0.600              1.962              3.876
 Vibration     3          0.606              1.943              3.313
 Vibration     4          0.619              1.901              2.648
 Vibration     5          0.656              1.785              1.828
 Vibration     6          0.665              1.757              1.705
 Vibration     7          0.703              1.644              1.333
 Vibration     8          0.731              1.564              1.141
 Vibration     9          0.809              1.360              0.794
 Vibration    10          0.859              1.241              0.648
 Vibration    11          0.933              1.082              0.492

 Optimization completed.
    -- Stationary point found.
 Normal termination of Gaussian 09 at Tue Jan 28 14:55:36 2020.
