 Gaussian 09, Revision D.01,
 Gaussian 09:  ES64L-G09RevD.01 24-Apr-2013

 -----------------------------
 # b3lyp 6-31G(2df,p) opt Freq
 -----------------------------

 -----
 titel
 -----
 Symbolic Z-matrix:
 Charge =  0 Multiplicity = 1

 SCF Done:  E(RB3LYP) =  -423.150049564     A.U. after   13 cycles
 Optimization completed.
    -- Stationary point found.
 Normal termination of Gaussian 09 at Mon Jan 27 18:10:19 2020.

 ----------------------------------------------------------------------
 #N Geom=AllCheck Guess=TCheck SCRF=Check GenChk RB3LYP/6-31G(2df,p) Fr
 eq
 ----------------------------------------------------------------------

 Structure from the checkpoint file:  "/scratch/puck/g09_c6373c4f-cdac-44a0-8395-eeb774949a55/Gau-42069.chk"
 -----
 titel
 -----
 Charge =  0 Multiplicity = 1

                         Standard orientation:
 ---------------------------------------------------------------------
 Center     Atomic      Atomic             Coordinates (Angstroms)
 Number     Number       Type             X           Y           Z
 ---------------------------------------------------------------------
      1          6           0       -2.552684    0.521039    0.278053
      2          6           0       -1.120969    0.175247   -0.000612
      3          6           0        0.000000    1.234511   -0.000007
      4          6           0        1.120969    0.175249    0.000613
      5          6           0        2.552687    0.521036   -0.278047
      6          8           0        0.881717   -0.463802    1.303672
      7          6           0       -0.289885   -1.008045    0.703805
      8          6           0        0.289887   -1.008042   -0.703808
      9          8           0       -0.881723   -0.463806   -1.303669
     10          1           0       -2.923051    1.257970   -0.442380
     11          1           0       -3.187776   -0.367320    0.214334
     12          1           0       -2.647943    0.946624    1.281945
     13          1           0       -0.053384    1.851889   -0.899292
     14          1           0        0.053384    1.851900    0.899270
     15          1           0        2.647952    0.946620   -1.281938
     16          1           0        2.923053    1.257966    0.442387
     17          1           0        3.187775   -0.367325   -0.214324
     18          1           0       -0.788817   -1.811719    1.242971
     19          1           0        0.788821   -1.811713   -1.242976
 ---------------------------------------------------------------------

 SCF Done:  E(RB3LYP) =  -423.150049564     A.U. after    1 cycles

 The electronic state is 1-A.
 Alpha  occ. eigenvalues --  -19.13618 -19.13618 -10.24190 -10.24189 -10.23403
 Alpha  occ. eigenvalues --  -10.23379 -10.18340 -10.18340 -10.18079  -1.07867
 Alpha  occ. eigenvalues --   -1.01771  -0.78166  -0.76144  -0.72131  -0.69385
 Alpha  occ. eigenvalues --   -0.63441  -0.57199  -0.51386  -0.49618  -0.49526
 Alpha  occ. eigenvalues --   -0.46032  -0.43472  -0.42886  -0.41668  -0.40359
 Alpha  occ. eigenvalues --   -0.39829  -0.37441  -0.36588  -0.35389  -0.33366
 Alpha  occ. eigenvalues --   -0.31475  -0.30076  -0.25209  -0.23581
 Alpha virt. eigenvalues --    0.07524   0.10526   0.10637   0.11915   0.12800
 Alpha virt. eigenvalues --    0.13423   0.13551   0.15728   0.15799   0.16440
 Alpha virt. eigenvalues --    0.17268   0.18360   0.18727   0.19127   0.21495

 Mulliken charges:
               1
     1  C   -0.508854
     2  C    0.374517
     3  C   -0.273501
     4  C    0.374516
     5  C   -0.508854
     6  O   -0.330121
     7  C    0.017753
     8  C    0.017751
     9  O   -0.330120
    10  H    0.131921
    11  H    0.128406
    12  H    0.127957
    13  H    0.105482
    14  H    0.105481
    15  H    0.127956
    16  H    0.131921
    17  H    0.128406
    18  H    0.089691
    19  H    0.089691
 Sum of Mulliken charges =   0.00000

 Dipole moment (field-independent basis, Debye):
    X=              0.0000    Y=              0.4775    Z=              0.0000  Tot=              0.4775
 Quadrupole moment (field-independent basis, Debye-Ang):
   XX=            -50.7450   YY=            -50.3907   ZZ=            -57.4560
   XY=              0.0000   XZ=             -4.9811   YZ=              0.0000

  Exact polarizability:  86.900   0.000  72.061  -2.987   0.000  64.777
 Approx polarizability: 113.376   0.000 107.053   1.213   0.000 106.886

                      1                      2                      3
                      A                      A                      A
 Frequencies --    193.7726               196.2731               209.5866
 Red. masses --      1.0568                 1.4045                 1.5718
 Frc consts  --      0.0234                 0.0319                 0.0407
 IR Inten    --      0.1406                 0.5029                 0.2816

                      4                      5                      6
                      A                      A                      A
 Frequencies --    219.0986               311.0548               332.6298
 Red. masses --      2.4600                 2.9679                 2.4968
 Frc consts  --      0.0696                 0.1692                 0.1628
 IR Inten    --      0.7207                 0.0642                 0.1850

                      7                      8                      9
                      A                      A                      A
 Frequencies --    460.7647               528.0444               534.1225
 Red. masses --      1.7859                 4.4505                 5.0835
 Frc consts  --      0.2234                 0.7311                 0.8545
 IR Inten    --      3.0894                 8.7877                13.9379

                     10                     11                     12
                      A                      A                      A
 Frequencies --    575.2130               663.1907               696.8977
 Red. masses --      4.1135                 2.8991                 4.2530
 Frc consts  --      0.8019                 0.7513                 1.2170
 IR Inten    --      1.9382                 0.4834                 2.3932

                     13                     14                     15
                      A                      A                      A
 Frequencies --    759.0387               790.5330               840.9207
 Red. masses --      4.5410                 3.5891                 4.5496
 Frc consts  --      1.5414                 1.3215                 1.8955
 IR Inten    --      1.4503                28.9531                10.9335

                     16                     17                     18
                      A                      A                      A
 Frequencies --    857.1583               865.9560               909.8144
 Red. masses --      2.6694                 1.6409                 2.0348
 Frc consts  --      1.1556                 0.7250                 0.9924
 IR Inten    --      0.1076                21.7713                 0.0868

                     19                     20                     21
                      A                      A                      A
 Frequencies --    911.2227               975.4575              1006.3317
 Red. masses --      2.7115                 1.7538                 2.5206
 Frc consts  --      1.3265                 0.9832                 1.5040
 IR Inten    --     19.3491                 3.6568                 8.5224

                     22                     23                     24
                      A                      A                      A
 Frequencies --   1025.3678              1044.7284              1110.8451
 Red. masses --      2.9485                 1.5121                 2.1135
 Frc consts  --      1.8265                 0.9724                 1.5366
 IR Inten    --     90.2989                 1.0742                 9.3957

                     25                     26                     27
                      A                      A                      A
 Frequencies --   1122.2922              1137.4499              1171.0291
 Red. masses --      1.7020                 1.8552                 1.5281
 Frc consts  --      1.2631                 1.4142                 1.2346
 IR Inten    --      3.6813                13.5416                 0.9178

                     28                     29                     30
                      A                      A                      A
 Frequencies --   1189.6549              1196.3727              1243.1730
 Red. masses --      1.5539                 1.7791                 2.8388
 Frc consts  --      1.2957                 1.5003                 2.5849
 IR Inten    --      1.6018                 3.4448                 9.6474

                     31                     32                     33
                      A                      A                      A
 Frequencies --   1265.9833              1294.3779              1355.3280
 Red. masses --      1.7619                 2.3708                 2.4399
 Frc consts  --      1.6637                 2.3403                 2.6407
 IR Inten    --     43.4824                 2.2479                20.9993

                     34                     35                     36
                      A                      A                      A
 Frequencies --   1355.4716              1412.8887              1417.1933
 Red. masses --      2.0425                 1.4931                 1.5785
 Frc consts  --      2.2110                 1.7561                 1.8679
 IR Inten    --      0.0228                18.1053                 1.3340

                     37                     38                     39
                      A                      A                      A
 Frequencies --   1460.4469              1478.0202              1480.3170
 Red. masses --      1.1741                 1.0463                 1.0537
 Frc consts  --      1.4755                 1.3467                 1.3605
 IR Inten    --      2.0501                 1.3675                 5.8883

                     40                     41                     42
                      A                      A                      A
 Frequencies --   1492.9611              1494.5992              3036.7819
 Red. masses --      1.0470                 1.0507                 1.0351
 Frc consts  --      1.3750                 1.3829                 5.6243
 IR Inten    --      6.8882                 0.6244                35.6196

                     43                     44                     45
                      A                      A                      A
 Frequencies --   3036.9607              3072.0612              3106.0320
 Red. masses --      1.0352                 1.0571                 1.1010
 Frc consts  --      5.6255                 5.8779                 6.2582
 IR Inten    --      2.1749                17.0420                13.8205

                     46                     47                     48
                      A                      A                      A
 Frequencies --   3106.1378              3114.6607              3114.9327
 Red. masses --      1.1008                 1.1017                 1.1014
 Frc consts  --      6.2577                 6.2968                 6.2965
 IR Inten    --     10.3893                12.6563                14.1141

                     49                     50                     51
                      A                      A                      A
 Frequencies --   3130.4050              3135.0571              3143.1122
 Red. masses --      1.0887                 1.1087                 1.0972
 Frc consts  --      6.2857                 6.4202                 6.3863
 IR Inten    --     37.6617                12.6225                35.0126

 - Thermochemistry -
 -------------------
 Temperature   298.150 Kelvin.  Pressure   1.00000 Atm.
 Atom     1 has atomic number  6 and mass  12.00000

 Molecular mass:   126.06808 amu.
 Principal axes and moments of inertia in atomic units:
                           1         2         3
     Eigenvalues --   542.328701222.422441225.54380
           X            0.99925  -0.03870   0.00000
           Y            0.00000   0.00001   1.00000
           Z            0.03870   0.99925  -0.00001
 This molecule is an asymmetric top.
 Rotational symmetry number  1.
 Warning -- assumption of classical behavior for rotation
           may cause significant error
 Rotational temperatures (Kelvin)      0.15971     0.07085     0.07067
 Rotational constants (GHZ):           3.32776     1.47636     1.47260
 Zero-point vibrational energy     416191.1 (Joules/Mol)
                                   99.47207 (Kcal/Mol)
 Warning -- explicit consideration of  10 degrees of freedom as
           vibrations may cause significant error
 Vibrational temperatures:    278.80   282.39   301.55   315.23   447.54
          (Kelvin)            478.58   662.94   759.74   768.48   827.60
                              954.18  1002.68  1092.09  1137.40  1209.90
                             1233.26  1245.92  1309.02  1311.04  1403.46
                             1447.89  1475.27  1503.13  1598.26  1614.73
                             1636.53  1684.85  1711.65  1721.31  1788.65
                             1821.47  1862.32  1950.01  1950.22  2032.83
                             2039.02  2101.25  2126.54  2129.84  2148.04
                             2150.39  4369.25  4369.50  4420.01  4468.88
                             4469.03  4481.30  4481.69  4503.95  4510.64
                             4522.23

 Zero-point correction=                           0.158519 (Hartree/Particle)
 Thermal correction to Energy=                    0.166256
 Thermal correction to Enthalpy=                  0.167200
 Thermal correction to Gibbs Free Energy=         0.126916
 Sum of electronic and zero-point Energies=           -422.991531
 Sum of electronic and thermal Energies=              -422.983794
 Sum of electronic and thermal Enthalpies=            -422.982849
 Sum of electronic and thermal Free Energies=         -423.023133

                     E (Thermal)             CV                S
                      KCal/Mol        Cal/Mol-Kelvin    Cal/Mol-Kelvin
 Total                  104.327             31.356             84.785
 Electronic               0.000              0.000              0.000
 Translational            0.889              2.981             40.409
 Rotational               0.889              2.981             28.187
 Vibrational            102.550             25.394             16.189
 Vibration     1          0.635              1.849              2.191
 Vibration     2          0.636              1.845              2.168
 Vibration     3          0.642              1.826              2.047
 Vibration     4          0.647              1.812              1.967
 Vibration     5          0.700              1.653              1.357
 Vibration     6          0.715              1.610              1.247
 Vibration     7          0.819              1.337              0.764
 Vibration     8          0.883              1.188              0.592
 Vibration     9          0.889              1.175              0.578
 Vibration    10          0.932              1.085              0.494

 Optimization completed.
    -- Stationary point found.
 Normal termination of Gaussian 09 at Mon Jan 27 18:58:58 2020.
