 Gaussian 09, Revision D.01,
 Gaussian 09:  ES64L-G09RevD.01 24-Apr-2013

 -----------------------------
 # b3lyp 6-31G(2df,p) opt Freq
 -----------------------------

 -----
 titel
 -----
 Symbolic Z-matrix:
 Charge =  0 Multiplicity = 1

 SCF Done:  E(RB3LYP) =  -423.182651258     A.U. after   14 cycles
 Optimization completed.
    -- Stationary point found.
 Normal termination of Gaussian 09 at Tue Jan 28 00:01:47 2020.

 ----------------------------------------------------------------------
 #N Geom=AllCheck Guess=TCheck SCRF=Check GenChk RB3LYP/6-31G(2df,p) Fr
 eq
 ----------------------------------------------------------------------

 Structure from the checkpoint file:  "/scratch/puck/g09_6489fe13-7bee-43c1-8965-82bda25e3ed9/Gau-131054.chk"
 -----
 titel
 -----
 Charge =  0 Multiplicity = 1

                         Standard orientation:
 ---------------------------------------------------------------------
 Center     Atomic      Atomic             Coordinates (Angstroms)
 Number     Number       Type             X           Y           Z
 ---------------------------------------------------------------------
      1          8           0       -1.529322    1.717581   -0.032464
      2          6           0       -0.334279    0.979960   -0.110299
      3          6           0       -0.129473   -0.074812    1.003441
      4          6           0       -1.435006   -0.891668    0.916598
      5          6           0       -1.543160   -1.033622   -0.640222
      6          6           0       -0.272238   -0.265730   -1.049425
      7          6           0        0.774687   -0.837363   -0.012302
      8          6           0        2.192640   -0.382718   -0.203733
      9          8           0        2.684465    0.631825    0.229641
     10          1           0       -1.481018    2.444648   -0.659356
     11          1           0        0.538654    1.626500   -0.213547
     12          1           0        0.242909    0.206568    1.987426
     13          1           0       -1.350275   -1.855749    1.425467
     14          1           0       -2.280726   -0.349025    1.341960
     15          1           0       -1.526366   -2.072978   -0.978771
     16          1           0       -2.440923   -0.553495   -1.034639
     17          1           0       -0.037872   -0.189121   -2.112219
     18          1           0        0.768612   -1.931023    0.055738
     19          1           0        2.806826   -1.085852   -0.813821
 ---------------------------------------------------------------------

 SCF Done:  E(RB3LYP) =  -423.182651258     A.U. after    1 cycles

 The electronic state is 1-A.
 Alpha  occ. eigenvalues --  -19.14177 -19.13868 -10.27055 -10.23134 -10.20025
 Alpha  occ. eigenvalues --  -10.19955 -10.19222 -10.18226 -10.17996  -1.04504
 Alpha  occ. eigenvalues --   -1.02618  -0.88853  -0.73612  -0.69574  -0.68678
 Alpha  occ. eigenvalues --   -0.59415  -0.55873  -0.52714  -0.52358  -0.50435
 Alpha  occ. eigenvalues --   -0.48131  -0.44515  -0.43106  -0.40078  -0.39196
 Alpha  occ. eigenvalues --   -0.38544  -0.35627  -0.34544  -0.34103  -0.33447
 Alpha  occ. eigenvalues --   -0.30853  -0.30417  -0.26465  -0.24852
 Alpha virt. eigenvalues --   -0.02546   0.07206   0.09779   0.12213   0.13139
 Alpha virt. eigenvalues --    0.13598   0.14210   0.15292   0.15977   0.17388
 Alpha virt. eigenvalues --    0.18486   0.19073   0.19454   0.20835   0.23078

 Mulliken charges:
               1
     1  O   -0.440931
     2  C    0.144404
     3  C   -0.053776
     4  C   -0.222978
     5  C   -0.212861
     6  C   -0.093684
     7  C   -0.082701
     8  C    0.116294
     9  O   -0.250846
    10  H    0.286580
    11  H    0.100285
    12  H    0.074880
    13  H    0.093450
    14  H    0.118701
    15  H    0.093513
    16  H    0.109806
    17  H    0.064019
    18  H    0.080371
    19  H    0.075475
 Sum of Mulliken charges =   0.00000

 Dipole moment (field-independent basis, Debye):
    X=             -0.9974    Y=             -1.0876    Z=             -1.5744  Tot=              2.1578
 Quadrupole moment (field-independent basis, Debye-Ang):
   XX=            -60.7339   YY=            -49.3366   ZZ=            -51.5016
   XY=             -4.2329   XZ=             -0.3072   YZ=             -3.1363

  Exact polarizability:  84.948   0.564  75.027  -0.762   1.474  66.952
 Approx polarizability: 117.321   3.094 116.389   1.871   4.921 102.607

                      1                      2                      3
                      A                      A                      A
 Frequencies --     68.7093               174.0492               219.9877
 Red. masses --      3.7253                 5.0453                 1.6421
 Frc consts  --      0.0104                 0.0900                 0.0468
 IR Inten    --      9.7598                 7.6022                33.6757

                      4                      5                      6
                      A                      A                      A
 Frequencies --    228.1138               265.0087               274.4286
 Red. masses --      1.6401                 3.5657                 2.0344
 Frc consts  --      0.0503                 0.1475                 0.0903
 IR Inten    --     58.3841                 5.3447                 0.6345

                      7                      8                      9
                      A                      A                      A
 Frequencies --    354.3440               389.7659               577.5699
 Red. masses --      4.2855                 2.5215                 4.7001
 Frc consts  --      0.3170                 0.2257                 0.9238
 IR Inten    --      2.0537                 2.5068                17.4305

                     10                     11                     12
                      A                      A                      A
 Frequencies --    697.7226               706.9062               770.5620
 Red. masses --      4.1136                 3.7830                 2.6904
 Frc consts  --      1.1799                 1.1138                 0.9412
 IR Inten    --      0.5115                13.5644                 3.7939

                     13                     14                     15
                      A                      A                      A
 Frequencies --    802.2236               840.3404               865.8031
 Red. masses --      2.9320                 1.8102                 2.0832
 Frc consts  --      1.1118                 0.7532                 0.9201
 IR Inten    --      4.3721                12.7935                 1.8270

                     16                     17                     18
                      A                      A                      A
 Frequencies --    896.7597               905.9753               963.2199
 Red. masses --      2.4679                 3.0385                 1.6752
 Frc consts  --      1.1693                 1.4694                 0.9157
 IR Inten    --      0.1286                 1.6886                 4.6692

                     19                     20                     21
                      A                      A                      A
 Frequencies --    985.5753               988.0710              1016.2994
 Red. masses --      2.6380                 1.9913                 1.7657
 Frc consts  --      1.5097                 1.1454                 1.0745
 IR Inten    --      4.7290                 0.4884                 4.7635

                     22                     23                     24
                      A                      A                      A
 Frequencies --   1037.9379              1058.4785              1118.8457
 Red. masses --      1.9536                 1.4748                 1.5008
 Frc consts  --      1.2400                 0.9736                 1.1069
 IR Inten    --      5.8322                16.4660                 6.7637

                     25                     26                     27
                      A                      A                      A
 Frequencies --   1136.2476              1149.9109              1170.5027
 Red. masses --      1.2428                 3.3301                 1.4703
 Frc consts  --      0.9454                 2.5944                 1.1868
 IR Inten    --     15.2806               113.0679                29.7415

                     28                     29                     30
                      A                      A                      A
 Frequencies --   1196.6196              1202.4684              1259.0709
 Red. masses --      1.4327                 1.6977                 1.2181
 Frc consts  --      1.2087                 1.4463                 1.1377
 IR Inten    --      2.4042                 1.3936                 5.2405

                     31                     32                     33
                      A                      A                      A
 Frequencies --   1268.0441              1271.1495              1287.4941
 Red. masses --      1.4749                 1.6452                 1.3320
 Frc consts  --      1.3973                 1.5662                 1.3009
 IR Inten    --     10.0570                10.1987                30.1402

                     34                     35                     36
                      A                      A                      A
 Frequencies --   1317.7701              1325.4813              1376.3656
 Red. masses --      1.5365                 1.4328                 1.6494
 Frc consts  --      1.5720                 1.4831                 1.8410
 IR Inten    --     10.3670                 4.8426                15.8347

                     37                     38                     39
                      A                      A                      A
 Frequencies --   1430.1736              1452.4727              1481.8393
 Red. masses --      1.1951                 1.3398                 1.0832
 Frc consts  --      1.4403                 1.6653                 1.4014
 IR Inten    --      8.1202                 4.3465                 0.8311

                     40                     41                     42
                      A                      A                      A
 Frequencies --   1505.9369              1812.7967              2856.4368
 Red. masses --      1.1201                 9.9269                 1.0817
 Frc consts  --      1.4966                19.2204                 5.2000
 IR Inten    --      4.4796               157.0687               147.0917

                     43                     44                     45
                      A                      A                      A
 Frequencies --   3046.4359              3060.6629              3069.5918
 Red. masses --      1.0849                 1.0618                 1.0618
 Frc consts  --      5.9323                 5.8606                 5.8943
 IR Inten    --     23.5649                22.7223                49.4964

                     46                     47                     48
                      A                      A                      A
 Frequencies --   3100.9145              3108.4216              3110.1143
 Red. masses --      1.0864                 1.0892                 1.1031
 Frc consts  --      6.1551                 6.2009                 6.2868
 IR Inten    --     20.9868                37.0384                 5.8402

                     49                     50                     51
                      A                      A                      A
 Frequencies --   3126.5316              3131.5767              3837.6106
 Red. masses --      1.1038                 1.0907                 1.0665
 Frc consts  --      6.3571                 6.3019                 9.2540
 IR Inten    --     31.1795                23.4952                35.0762

 - Thermochemistry -
 -------------------
 Temperature   298.150 Kelvin.  Pressure   1.00000 Atm.
 Atom     1 has atomic number  8 and mass  15.99491

 Molecular mass:   126.06808 amu.
 Principal axes and moments of inertia in atomic units:
                           1         2         3
     Eigenvalues --   634.585671274.760641500.01511
           X            0.99997   0.00393  -0.00717
           Y           -0.00402   0.99990  -0.01354
           Z            0.00712   0.01356   0.99988
 This molecule is an asymmetric top.
 Rotational symmetry number  1.
 Warning -- assumption of classical behavior for rotation
           may cause significant error
 Rotational temperatures (Kelvin)      0.13649     0.06795     0.05774
 Rotational constants (GHZ):           2.84397     1.41575     1.20315
 Zero-point vibrational energy     420483.4 (Joules/Mol)
                                  100.49795 (Kcal/Mol)
 Warning -- explicit consideration of   9 degrees of freedom as
           vibrations may cause significant error
 Vibrational temperatures:     98.86   250.42   316.51   328.20   381.29
          (Kelvin)            394.84   509.82   560.79   830.99  1003.87
                             1017.08  1108.67  1154.22  1209.06  1245.70
                             1290.24  1303.49  1385.86  1418.02  1421.61
                             1462.23  1493.36  1522.91  1609.77  1634.80
                             1654.46  1684.09  1721.67  1730.08  1811.52
                             1824.43  1828.90  1852.41  1895.97  1907.07
                             1980.28  2057.70  2089.78  2132.03  2166.70
                             2608.21  4109.77  4383.14  4403.61  4416.45
                             4461.52  4472.32  4474.76  4498.38  4505.63
                             5521.46

 Zero-point correction=                           0.160154 (Hartree/Particle)
 Thermal correction to Energy=                    0.168262
 Thermal correction to Enthalpy=                  0.169206
 Thermal correction to Gibbs Free Energy=         0.127389
 Sum of electronic and zero-point Energies=           -423.022498
 Sum of electronic and thermal Energies=              -423.014389
 Sum of electronic and thermal Enthalpies=            -423.013445
 Sum of electronic and thermal Free Energies=         -423.055263

                     E (Thermal)             CV                S
                      KCal/Mol        Cal/Mol-Kelvin    Cal/Mol-Kelvin
 Total                  105.586             31.150             88.012
 Electronic               0.000              0.000              0.000
 Translational            0.889              2.981             40.409
 Rotational               0.889              2.981             28.586
 Vibrational            103.809             25.188             19.018
 Vibration     1          0.598              1.969              4.190
 Vibration     2          0.627              1.874              2.391
 Vibration     3          0.647              1.811              1.959
 Vibration     4          0.651              1.798              1.894
 Vibration     5          0.671              1.737              1.629
 Vibration     6          0.677              1.721              1.568
 Vibration     7          0.730              1.566              1.147
 Vibration     8          0.758              1.492              1.001
 Vibration     9          0.934              1.080              0.490

 Normal termination of Gaussian 09 at Tue Jan 28 00:45:11 2020.
