 Gaussian 09, Revision D.01,
 Gaussian 09:  ES64L-G09RevD.01 24-Apr-2013

 -----------------------------
 # b3lyp 6-31G(2df,p) opt Freq
 -----------------------------

 -----
 titel
 -----
 Symbolic Z-matrix:
 Charge =  0 Multiplicity = 1

 SCF Done:  E(RB3LYP) =  -423.123569049     A.U. after   14 cycles
 Optimization completed.
    -- Stationary point found.
 Normal termination of Gaussian 09 at Tue Jan 28 08:08:05 2020.

 ----------------------------------------------------------------------
 #N Geom=AllCheck Guess=TCheck SCRF=Check GenChk RB3LYP/6-31G(2df,p) Fr
 eq
 ----------------------------------------------------------------------

 Structure from the checkpoint file:  "/scratch/puck/g09_19dbbc80-fbf6-432c-a0f2-a3aff26f5822/Gau-127833.chk"
 -----
 titel
 -----
 Charge =  0 Multiplicity = 1

                         Standard orientation:
 ---------------------------------------------------------------------
 Center     Atomic      Atomic             Coordinates (Angstroms)
 Number     Number       Type             X           Y           Z
 ---------------------------------------------------------------------
      1          8           0       -4.329391    0.857081   -0.160742
      2          6           0       -3.659434   -0.249346    0.429537
      3          6           0       -2.258963   -0.368467    0.026048
      4          6           0       -1.103076   -0.417360   -0.311624
      5          6           0        0.300683   -0.489303   -0.696819
      6          6           0        1.268702   -0.328541    0.495782
      7          6           0        2.708619   -0.417578    0.056285
      8          6           0        3.760836    0.432188    0.625477
      9          8           0        3.220314    0.706653   -0.668192
     10          1           0       -3.776581    1.633036   -0.021888
     11          1           0       -3.719097   -0.210997    1.529507
     12          1           0       -4.220821   -1.136788    0.116076
     13          1           0        0.494879   -1.446479   -1.199376
     14          1           0        0.523289    0.291181   -1.434740
     15          1           0        1.092827    0.638462    0.977584
     16          1           0        1.065032   -1.106272    1.241105
     17          1           0        3.010846   -1.379501   -0.364210
     18          1           0        3.505027    1.153067    1.401200
     19          1           0        4.793015    0.084863    0.638100
 ---------------------------------------------------------------------

 SCF Done:  E(RB3LYP) =  -423.123569049     A.U. after    1 cycles

 The electronic state is 1-A.
 Alpha  occ. eigenvalues --  -19.15358 -19.13758 -10.24904 -10.24338 -10.23790
 Alpha  occ. eigenvalues --  -10.21118 -10.19821 -10.17907 -10.17212  -1.07345
 Alpha  occ. eigenvalues --   -1.01920  -0.81017  -0.75662  -0.70856  -0.67095
 Alpha  occ. eigenvalues --   -0.64760  -0.59508  -0.52815  -0.51113  -0.49280
 Alpha  occ. eigenvalues --   -0.46919  -0.46201  -0.44329  -0.44032  -0.40687
 Alpha  occ. eigenvalues --   -0.39328  -0.37178  -0.36109  -0.35277  -0.30957
 Alpha  occ. eigenvalues --   -0.28351  -0.27191  -0.25815  -0.25042
 Alpha virt. eigenvalues --    0.03473   0.05387   0.09422   0.10466   0.10516
 Alpha virt. eigenvalues --    0.11238   0.11853   0.13190   0.13295   0.14538
 Alpha virt. eigenvalues --    0.16602   0.17818   0.17950   0.19934   0.22515

 Mulliken charges:
               1
     1  O   -0.402942
     2  C   -0.189431
     3  C    0.105966
     4  C    0.000955
     5  C   -0.348340
     6  C   -0.209037
     7  C    0.092020
     8  C   -0.181022
     9  O   -0.236522
    10  H    0.286361
    11  H    0.114409
    12  H    0.138028
    13  H    0.129048
    14  H    0.150105
    15  H    0.113694
    16  H    0.113026
    17  H    0.092663
    18  H    0.114697
    19  H    0.116319
 Sum of Mulliken charges =   0.00000

 Dipole moment (field-independent basis, Debye):
    X=              1.6932    Y=             -0.8068    Z=              2.0141  Tot=              2.7521
 Quadrupole moment (field-independent basis, Debye-Ang):
   XX=            -59.7393   YY=            -50.3712   ZZ=            -53.5421
   XY=             -2.3529   XZ=              0.9002   YZ=              2.2634

  Exact polarizability: 119.200   1.202  64.559  -3.743   2.584  61.933
 Approx polarizability: 151.324   1.028  97.556 -10.264   1.039  95.348

                      1                      2                      3
                      A                      A                      A
 Frequencies --     14.9928                48.5203                76.3144
 Red. masses --      3.0803                 4.1665                 3.1607
 Frc consts  --      0.0004                 0.0058                 0.0108
 IR Inten    --      1.1217                 1.5136                 0.6406

                      4                      5                      6
                      A                      A                      A
 Frequencies --     91.9635               143.2796               200.2833
 Red. masses --      3.2881                 3.4793                 3.1909
 Frc consts  --      0.0164                 0.0421                 0.0754
 IR Inten    --      2.6014                 1.0187                 6.7878

                      7                      8                      9
                      A                      A                      A
 Frequencies --    246.5604               291.0402               370.2475
 Red. masses --      3.1841                 1.3726                 2.7535
 Frc consts  --      0.1140                 0.0685                 0.2224
 IR Inten    --      9.1862                92.0259                27.3967

                     10                     11                     12
                      A                      A                      A
 Frequencies --    384.8633               448.4588               502.5036
 Red. masses --      3.0561                 3.2573                 4.2539
 Frc consts  --      0.2667                 0.3860                 0.6329
 IR Inten    --      2.3660                 8.6151                 3.2966

                     13                     14                     15
                      A                      A                      A
 Frequencies --    558.0024               753.8856               781.3106
 Red. masses --      5.9658                 1.6963                 2.4895
 Frc consts  --      1.0944                 0.5680                 0.8954
 IR Inten    --      4.0301                 2.5291                13.2015

                     16                     17                     18
                      A                      A                      A
 Frequencies --    812.3029               877.2627               945.9157
 Red. masses --      3.0637                 1.9234                 3.1974
 Frc consts  --      1.1911                 0.8721                 1.6856
 IR Inten    --     16.7709                15.3340                14.4203

                     19                     20                     21
                      A                      A                      A
 Frequencies --    987.6006               997.5518              1029.7867
 Red. masses --      1.7117                 1.8619                 2.5978
 Frc consts  --      0.9837                 1.0916                 1.6231
 IR Inten    --     38.8408                 5.0735                 3.9742

                     22                     23                     24
                      A                      A                      A
 Frequencies --   1044.7952              1099.6195              1118.9386
 Red. masses --      5.8827                 1.3925                 1.6605
 Frc consts  --      3.7835                 0.9920                 1.2249
 IR Inten    --     88.8430                 1.1749                 2.1915

                     25                     26                     27
                      A                      A                      A
 Frequencies --   1158.2364              1161.9928              1171.8289
 Red. masses --      3.1279                 1.4225                 1.3219
 Frc consts  --      2.4723                 1.1316                 1.0695
 IR Inten    --      8.1934                 2.6605                 3.3410

                     28                     29                     30
                      A                      A                      A
 Frequencies --   1214.3490              1220.7697              1277.9184
 Red. masses --      1.1300                 1.3157                 1.4111
 Frc consts  --      0.9817                 1.1552                 1.3577
 IR Inten    --      8.6061                 9.5681                13.0047

                     31                     32                     33
                      A                      A                      A
 Frequencies --   1297.4914              1314.3839              1355.3978
 Red. masses --      1.4881                 1.1239                 1.2117
 Frc consts  --      1.4760                 1.1440                 1.3115
 IR Inten    --      7.9835                 0.2081                 3.4509

                     34                     35                     36
                      A                      A                      A
 Frequencies --   1371.7864              1420.0758              1447.4969
 Red. masses --      1.4928                 1.2407                 1.6511
 Frc consts  --      1.6551                 1.4741                 2.0382
 IR Inten    --      5.8645               107.4286                11.1094

                     37                     38                     39
                      A                      A                      A
 Frequencies --   1469.0217              1483.1221              1494.1440
 Red. masses --      1.1066                 1.1054                 1.0798
 Frc consts  --      1.4070                 1.4326                 1.4203
 IR Inten    --      2.6270                 5.4736                 0.6170

                     40                     41                     42
                      A                      A                      A
 Frequencies --   1532.1903              2361.6908              2970.4938
 Red. masses --      1.3626                11.8620                 1.0718
 Frc consts  --      1.8847                38.9812                 5.5723
 IR Inten    --      3.2342                11.9129                52.9288

                     43                     44                     45
                      A                      A                      A
 Frequencies --   3017.4961              3041.7330              3054.9097
 Red. masses --      1.0615                 1.0640                 1.0931
 Frc consts  --      5.6944                 5.8002                 6.0104
 IR Inten    --     14.5043                15.6776                 5.5482

                     46                     47                     48
                      A                      A                      A
 Frequencies --   3058.8837              3078.8301              3083.6718
 Red. masses --      1.0878                 1.0779                 1.0628
 Frc consts  --      5.9968                 6.0201                 5.9544
 IR Inten    --     20.6880                13.3672                23.1810

                     49                     50                     51
                      A                      A                      A
 Frequencies --   3098.7054              3168.7381              3818.0567
 Red. masses --      1.1000                 1.1194                 1.0662
 Frc consts  --      6.2229                 6.6224                 9.1578
 IR Inten    --     40.6823                28.9309                18.5418

 - Thermochemistry -
 -------------------
 Temperature   298.150 Kelvin.  Pressure   1.00000 Atm.
 Atom     1 has atomic number  8 and mass  15.99491

 Molecular mass:   126.06808 amu.
 Principal axes and moments of inertia in atomic units:
                           1         2         3
     Eigenvalues --   282.620523960.010473994.19186
           X            1.00000  -0.00171   0.00143
           Y            0.00133   0.97179   0.23585
           Z           -0.00180  -0.23585   0.97179
 This molecule is an asymmetric top.
 Rotational symmetry number  1.
 Rotational temperatures (Kelvin)      0.30647     0.02187     0.02168
 Rotational constants (GHZ):           6.38574     0.45574     0.45184
 Zero-point vibrational energy     412528.7 (Joules/Mol)
                                   98.59673 (Kcal/Mol)
 Warning -- explicit consideration of  13 degrees of freedom as
           vibrations may cause significant error
 Vibrational temperatures:     21.57    69.81   109.80   132.31   206.15
          (Kelvin)            288.16   354.74   418.74   532.70   553.73
                              645.23   722.99   802.84  1084.67  1124.13
                             1168.72  1262.18  1360.96  1420.94  1435.25
                             1481.63  1503.23  1582.11  1609.90  1666.44
                             1671.85  1686.00  1747.18  1756.41  1838.64
                             1866.80  1891.10  1950.11  1973.69  2043.17
                             2082.62  2113.59  2133.88  2149.74  2204.48
                             3397.94  4273.87  4341.50  4376.37  4395.33
                             4401.05  4429.74  4436.71  4458.34  4559.10
                             5493.33

 Zero-point correction=                           0.157124 (Hartree/Particle)
 Thermal correction to Energy=                    0.167428
 Thermal correction to Enthalpy=                  0.168372
 Thermal correction to Gibbs Free Energy=         0.118956
 Sum of electronic and zero-point Energies=           -422.966445
 Sum of electronic and thermal Energies=              -422.956142
 Sum of electronic and thermal Enthalpies=            -422.955197
 Sum of electronic and thermal Free Energies=         -423.004613

                     E (Thermal)             CV                S
                      KCal/Mol        Cal/Mol-Kelvin    Cal/Mol-Kelvin
 Total                  105.062             35.092            104.005
 Electronic               0.000              0.000              0.000
 Translational            0.889              2.981             40.409
 Rotational               0.889              2.981             29.881
 Vibrational            103.285             29.130             33.715
 Vibration     1          0.593              1.986              7.207
 Vibration     2          0.595              1.978              4.877
 Vibration     3          0.599              1.965              3.984
 Vibration     4          0.602              1.955              3.618
 Vibration     5          0.616              1.910              2.760
 Vibration     6          0.638              1.839              2.130
 Vibration     7          0.661              1.768              1.755
 Vibration     8          0.687              1.690              1.468
 Vibration     9          0.742              1.533              1.079
 Vibration    10          0.754              1.502              1.020
 Vibration    11          0.807              1.364              0.800
 Vibration    12          0.858              1.244              0.652
 Vibration    13          0.914              1.122              0.528

 Optimization completed.
    -- Stationary point found.
 Normal termination of Gaussian 09 at Tue Jan 28 08:37:50 2020.
