 Gaussian 09, Revision D.01,
 Gaussian 09:  ES64L-G09RevD.01 24-Apr-2013

 -----------------------------
 # b3lyp 6-31G(2df,p) opt Freq
 -----------------------------

 -----
 titel
 -----
 Symbolic Z-matrix:
 Charge =  0 Multiplicity = 1

 SCF Done:  E(RB3LYP) =  -423.168976492     A.U. after   14 cycles
 Optimization completed.
    -- Stationary point found.
 Normal termination of Gaussian 09 at Mon Jan 27 16:26:58 2020.

 ----------------------------------------------------------------------
 #N Geom=AllCheck Guess=TCheck SCRF=Check GenChk RB3LYP/6-31G(2df,p) Fr
 eq
 ----------------------------------------------------------------------

 Structure from the checkpoint file:  "/scratch/puck/g09_15798ba9-1f0d-47da-893f-c07be0f22a68/Gau-69876.chk"
 -----
 titel
 -----
 Charge =  0 Multiplicity = 1

                         Standard orientation:
 ---------------------------------------------------------------------
 Center     Atomic      Atomic             Coordinates (Angstroms)
 Number     Number       Type             X           Y           Z
 ---------------------------------------------------------------------
      1          6           0       -1.581944    1.585032   -0.318329
      2          6           0       -1.078685    0.168429   -0.116866
      3          6           0       -2.055416   -0.979912   -0.169003
      4          6           0       -1.437048   -0.571259    1.148225
      5          6           0        0.293851   -0.053815   -0.717411
      6          8           0        0.841553   -1.382662   -0.519368
      7          6           0        2.007772   -0.915078    0.190826
      8          6           0        1.495436    0.523097    0.053024
      9          8           0        1.851297    1.604874    0.407121
     10          1           0       -1.678555    1.823320   -1.384453
     11          1           0       -2.565627    1.715696    0.141852
     12          1           0       -0.897674    2.314820    0.127022
     13          1           0       -3.098902   -0.743580   -0.348964
     14          1           0       -1.716120   -1.913582   -0.602535
     15          1           0       -2.054326   -0.055689    1.875688
     16          1           0       -0.704645   -1.248308    1.573198
     17          1           0        0.293653    0.220192   -1.783554
     18          1           0        2.070875   -1.301040    1.215904
     19          1           0        2.944728   -1.128484   -0.338987
 ---------------------------------------------------------------------

 SCF Done:  E(RB3LYP) =  -423.168976492     A.U. after    1 cycles

 The electronic state is 1-A.
 Alpha  occ. eigenvalues --  -19.15585 -19.15357 -10.28325 -10.24569 -10.24555
 Alpha  occ. eigenvalues --  -10.20648 -10.18590 -10.18525 -10.18203  -1.07264
 Alpha  occ. eigenvalues --   -1.04747  -0.86845  -0.73643  -0.71707  -0.69861
 Alpha  occ. eigenvalues --   -0.60428  -0.58083  -0.53054  -0.50919  -0.48927
 Alpha  occ. eigenvalues --   -0.47431  -0.46429  -0.44185  -0.42840  -0.40162
 Alpha  occ. eigenvalues --   -0.39377  -0.38575  -0.36513  -0.36428  -0.34635
 Alpha  occ. eigenvalues --   -0.30052  -0.29316  -0.26941  -0.24777
 Alpha virt. eigenvalues --   -0.03160   0.06464   0.09106   0.10375   0.12069
 Alpha virt. eigenvalues --    0.12424   0.13935   0.15254   0.16043   0.17014
 Alpha virt. eigenvalues --    0.17860   0.18472   0.20084   0.21302   0.22933

 Mulliken charges:
               1
     1  C   -0.473046
     2  C    0.338122
     3  C   -0.307929
     4  C   -0.305119
     5  C   -0.064161
     6  O   -0.292440
     7  C   -0.192034
     8  C    0.352332
     9  O   -0.277841
    10  H    0.117353
    11  H    0.118078
    12  H    0.142555
    13  H    0.111498
    14  H    0.129396
    15  H    0.111394
    16  H    0.118412
    17  H    0.103928
    18  H    0.135216
    19  H    0.134286
 Sum of Mulliken charges =   0.00000

 Dipole moment (field-independent basis, Debye):
    X=             -0.5482    Y=             -0.7182    Z=             -0.2290  Tot=              0.9321
 Quadrupole moment (field-independent basis, Debye-Ang):
   XX=            -50.8535   YY=            -58.9922   ZZ=            -52.0184
   XY=             -5.3512   XZ=             -0.5809   YZ=             -2.6037

  Exact polarizability:  85.192  -1.570  75.877   2.530  -1.721  66.161
 Approx polarizability: 111.607   3.076 116.793   5.298   1.404 102.384

                      1                      2                      3
                      A                      A                      A
 Frequencies --     68.3965               113.6900               126.3575
 Red. masses --      3.9707                 3.0277                 4.1445
 Frc consts  --      0.0109                 0.0231                 0.0390
 IR Inten    --      0.9594                 5.8263                 0.5573

                      4                      5                      6
                      A                      A                      A
 Frequencies --    220.4750               244.0164               296.3845
 Red. masses --      1.0797                 4.2650                 2.1267
 Frc consts  --      0.0309                 0.1496                 0.1101
 IR Inten    --      0.0109                 7.3756                 0.2845

                      7                      8                      9
                      A                      A                      A
 Frequencies --    326.1533               377.2565               424.6961
 Red. masses --      2.5941                 3.1008                 3.1240
 Frc consts  --      0.1626                 0.2600                 0.3320
 IR Inten    --      0.2291                 0.2287                 4.4146

                     10                     11                     12
                      A                      A                      A
 Frequencies --    487.6916               561.2900               696.7698
 Red. masses --      3.2802                 3.0464                 2.9314
 Frc consts  --      0.4597                 0.5655                 0.8385
 IR Inten    --      7.3527                 8.1828                 1.6227

                     13                     14                     15
                      A                      A                      A
 Frequencies --    719.5301               789.2780               828.4507
 Red. masses --      7.0263                 1.0403                 2.3878
 Frc consts  --      2.1433                 0.3818                 0.9656
 IR Inten    --      2.4474                 0.1345                 1.2465

                     16                     17                     18
                      A                      A                      A
 Frequencies --    874.3876               915.2536               926.7824
 Red. masses --      2.8511                 1.3845                 2.4651
 Frc consts  --      1.2843                 0.6833                 1.2475
 IR Inten    --      4.4171                 0.9858                 8.5229

                     19                     20                     21
                      A                      A                      A
 Frequencies --    954.8160              1007.5601              1019.7713
 Red. masses --      1.6542                 8.8642                 2.2168
 Frc consts  --      0.8885                 5.3019                 1.3583
 IR Inten    --      7.0817                83.6333                 6.4862

                     22                     23                     24
                      A                      A                      A
 Frequencies --   1042.9203              1048.9278              1067.9467
 Red. masses --      2.2832                 1.6689                 1.9628
 Frc consts  --      1.4632                 1.0819                 1.3189
 IR Inten    --     23.6307                26.3430                 3.1004

                     25                     26                     27
                      A                      A                      A
 Frequencies --   1086.1296              1090.5550              1127.8738
 Red. masses --      2.0493                 1.8999                 1.6798
 Frc consts  --      1.4244                 1.3313                 1.2590
 IR Inten    --     33.8759                32.5357                 0.5461

                     28                     29                     30
                      A                      A                      A
 Frequencies --   1141.5305              1192.9712              1241.2475
 Red. masses --      1.1700                 1.2855                 1.5118
 Frc consts  --      0.8983                 1.0779                 1.3724
 IR Inten    --      1.8697                 0.1251                 5.1354

                     31                     32                     33
                      A                      A                      A
 Frequencies --   1273.3418              1296.6169              1344.5397
 Red. masses --      1.7993                 1.4644                 2.3618
 Frc consts  --      1.7189                 1.4505                 2.5156
 IR Inten    --      3.1865                 2.0106                 3.3944

                     34                     35                     36
                      A                      A                      A
 Frequencies --   1357.0057              1418.1870              1456.2560
 Red. masses --      1.9677                 1.2833                 1.0879
 Frc consts  --      2.1349                 1.5208                 1.3592
 IR Inten    --      0.0676                 4.2480                 3.5153

                     37                     38                     39
                      A                      A                      A
 Frequencies --   1479.1865              1490.2532              1496.2706
 Red. masses --      1.1016                 1.0473                 1.2074
 Frc consts  --      1.4201                 1.3704                 1.5927
 IR Inten    --      4.6432                 3.1694                 6.5825

                     40                     41                     42
                      A                      A                      A
 Frequencies --   1509.6402              1920.2491              2991.7586
 Red. masses --      1.2174                12.9170                 1.0811
 Frc consts  --      1.6347                28.0625                 5.7013
 IR Inten    --      1.5368               234.8187                34.5390

                     43                     44                     45
                      A                      A                      A
 Frequencies --   3019.7223              3026.7761              3067.7648
 Red. masses --      1.0556                 1.0370                 1.1082
 Frc consts  --      5.6715                 5.5974                 6.1449
 IR Inten    --     29.3717                27.5429                16.8198

                     46                     47                     48
                      A                      A                      A
 Frequencies --   3089.9168              3109.9208              3133.8247
 Red. masses --      1.0989                 1.1016                 1.0505
 Frc consts  --      6.1819                 6.2773                 6.0788
 IR Inten    --     18.8434                14.9985                16.5926

                     49                     50                     51
                      A                      A                      A
 Frequencies --   3136.8175              3217.0312              3230.1165
 Red. masses --      1.0580                 1.1176                 1.1158
 Frc consts  --      6.1337                 6.8147                 6.8593
 IR Inten    --      9.3285                 0.5369                12.0895

 - Thermochemistry -
 -------------------
 Temperature   298.150 Kelvin.  Pressure   1.00000 Atm.
 Atom     1 has atomic number  6 and mass  12.00000

 Molecular mass:   126.06808 amu.
 Principal axes and moments of inertia in atomic units:
                           1         2         3
     Eigenvalues --   698.479091239.462271621.55426
           X            0.99830  -0.05824   0.00122
           Y            0.05824   0.99753  -0.03916
           Z            0.00106   0.03916   0.99923
 This molecule is an asymmetric top.
 Rotational symmetry number  1.
 Warning -- assumption of classical behavior for rotation
           may cause significant error
 Rotational temperatures (Kelvin)      0.12400     0.06988     0.05341
 Rotational constants (GHZ):           2.58382     1.45607     1.11297
 Zero-point vibrational energy     413215.9 (Joules/Mol)
                                   98.76097 (Kcal/Mol)
 Warning -- explicit consideration of  11 degrees of freedom as
           vibrations may cause significant error
 Vibrational temperatures:     98.41   163.57   181.80   317.21   351.08
          (Kelvin)            426.43   469.26   542.79   611.04   701.68
                              807.57  1002.50  1035.24  1135.59  1191.95
                             1258.05  1316.84  1333.43  1373.77  1449.65
                             1467.22  1500.53  1509.17  1536.54  1562.70
                             1569.06  1622.76  1642.41  1716.42  1785.88
                             1832.05  1865.54  1934.49  1952.43  2040.45
                             2095.22  2128.22  2144.14  2152.80  2172.03
                             2762.81  4304.47  4344.70  4354.85  4413.82
                             4445.70  4474.48  4508.87  4513.18  4628.58
                             4647.41

 Zero-point correction=                           0.157386 (Hartree/Particle)
 Thermal correction to Energy=                    0.166218
 Thermal correction to Enthalpy=                  0.167162
 Thermal correction to Gibbs Free Energy=         0.123664
 Sum of electronic and zero-point Energies=           -423.011591
 Sum of electronic and thermal Energies=              -423.002759
 Sum of electronic and thermal Enthalpies=            -423.001814
 Sum of electronic and thermal Free Energies=         -423.045312

                     E (Thermal)             CV                S
                      KCal/Mol        Cal/Mol-Kelvin    Cal/Mol-Kelvin
 Total                  104.303             33.057             91.549
 Electronic               0.000              0.000              0.000
 Translational            0.889              2.981             40.409
 Rotational               0.889              2.981             28.731
 Vibrational            102.526             27.096             22.409
 Vibration     1          0.598              1.969              4.199
 Vibration     2          0.607              1.938              3.205
 Vibration     3          0.611              1.927              3.001
 Vibration     4          0.647              1.810              1.955
 Vibration     5          0.659              1.773              1.773
 Vibration     6          0.690              1.680              1.437
 Vibration     7          0.710              1.623              1.279
 Vibration     8          0.748              1.519              1.050
 Vibration     9          0.787              1.417              0.876
 Vibration    10          0.844              1.277              0.690
 Vibration    11          0.917              1.115              0.521

 Normal termination of Gaussian 09 at Mon Jan 27 17:19:08 2020.
