 Gaussian 09, Revision D.01,
 Gaussian 09:  ES64L-G09RevD.01 24-Apr-2013

 -----------------------------
 # b3lyp 6-31G(2df,p) opt Freq
 -----------------------------

 -----
 titel
 -----
 Symbolic Z-matrix:
 Charge =  0 Multiplicity = 1

 SCF Done:  E(RB3LYP) =  -423.107147669     A.U. after   13 cycles
 Optimization completed.
    -- Stationary point found.
 Normal termination of Gaussian 09 at Tue Jan 28 10:18:39 2020.

 ----------------------------------------------------------------------
 #N Geom=AllCheck Guess=TCheck SCRF=Check GenChk RB3LYP/6-31G(2df,p) Fr
 eq
 ----------------------------------------------------------------------

 Structure from the checkpoint file:  "/scratch/puck/g09_dc558449-6031-4c29-a0dc-2d76158069c0/Gau-917.chk"
 -----
 titel
 -----
 Charge =  0 Multiplicity = 1

                         Standard orientation:
 ---------------------------------------------------------------------
 Center     Atomic      Atomic             Coordinates (Angstroms)
 Number     Number       Type             X           Y           Z
 ---------------------------------------------------------------------
      1          6           0        2.559896   -0.101704   -0.463460
      2          8           0        1.670853   -0.240268    0.636218
      3          6           0        0.362679   -0.416332    0.261525
      4          6           0       -0.291298   -1.630113   -0.409062
      5          6           0       -1.615373   -0.946131    0.022303
      6          8           0       -1.684085    0.251722   -0.803358
      7          6           0       -0.610845    0.765165   -0.002866
      8          6           0       -0.243060    2.205870   -0.079849
      9          6           0       -0.844183   -0.169518    1.149372
     10          1           0        2.289624    0.754765   -1.094885
     11          1           0        3.556728    0.056192   -0.046775
     12          1           0        2.571605   -1.006821   -1.085648
     13          1           0       -0.161310   -1.801406   -1.481999
     14          1           0       -0.101735   -2.543057    0.161830
     15          1           0       -2.558035   -1.482126    0.101316
     16          1           0        0.013050    2.484951   -1.107751
     17          1           0       -1.067436    2.845614    0.250750
     18          1           0        0.625295    2.398515    0.556756
     19          1           0       -0.968821   -0.041684    2.215740
 ---------------------------------------------------------------------

 SCF Done:  E(RB3LYP) =  -423.107147669     A.U. after    1 cycles

 The electronic state is 1-A.
 Alpha  occ. eigenvalues --  -19.15509 -19.13005 -10.24309 -10.23888 -10.23793
 Alpha  occ. eigenvalues --  -10.22960 -10.18705 -10.18458 -10.18339  -1.06311
 Alpha  occ. eigenvalues --   -1.04063  -0.85025  -0.76043  -0.70304  -0.68950
 Alpha  occ. eigenvalues --   -0.63048  -0.54633  -0.53984  -0.50776  -0.48132
 Alpha  occ. eigenvalues --   -0.46087  -0.45279  -0.44147  -0.42192  -0.40511
 Alpha  occ. eigenvalues --   -0.39657  -0.38725  -0.37142  -0.34937  -0.32696
 Alpha  occ. eigenvalues --   -0.29914  -0.27586  -0.25491  -0.21102
 Alpha virt. eigenvalues --    0.07905   0.09652   0.10041   0.12481   0.13204
 Alpha virt. eigenvalues --    0.13756   0.14071   0.15410   0.16235   0.16635
 Alpha virt. eigenvalues --    0.17057   0.17552   0.18940   0.19955   0.21000

 Mulliken charges:
               1
     1  C   -0.260521
     2  O   -0.279844
     3  C    0.344395
     4  C   -0.313149
     5  C    0.064119
     6  O   -0.325085
     7  C    0.395589
     8  C   -0.512732
     9  C   -0.273377
    10  H    0.116344
    11  H    0.129399
    12  H    0.118726
    13  H    0.099036
    14  H    0.107370
    15  H    0.089504
    16  H    0.130372
    17  H    0.129794
    18  H    0.136351
    19  H    0.103707
 Sum of Mulliken charges =   0.00000

 Dipole moment (field-independent basis, Debye):
    X=              0.9813    Y=             -0.2559    Z=              0.1987  Tot=              1.0334
 Quadrupole moment (field-independent basis, Debye-Ang):
   XX=            -52.6106   YY=            -50.2095   ZZ=            -54.0874
   XY=              2.5120   XZ=             -5.1412   YZ=              0.7462

  Exact polarizability:  80.544   1.975  79.470  -3.551   0.599  65.238
 Approx polarizability: 111.770   0.819 109.374  -1.167  -1.851 104.497

                      1                      2                      3
                      A                      A                      A
 Frequencies --     97.6992               161.8102               174.9966
 Red. masses --      2.5382                 1.4000                 2.0372
 Frc consts  --      0.0143                 0.0216                 0.0368
 IR Inten    --      2.5308                 0.2905                 1.9929

                      4                      5                      6
                      A                      A                      A
 Frequencies --    206.1589               227.7211               265.0840
 Red. masses --      1.2507                 1.8855                 2.6492
 Frc consts  --      0.0313                 0.0576                 0.1097
 IR Inten    --      2.1432                 3.2851                 3.4208

                      7                      8                      9
                      A                      A                      A
 Frequencies --    404.6974               420.5776               465.4743
 Red. masses --      3.0303                 3.6061                 2.3175
 Frc consts  --      0.2924                 0.3758                 0.2958
 IR Inten    --      4.0643                 2.6320                 0.6926

                     10                     11                     12
                      A                      A                      A
 Frequencies --    512.7334               637.3924               669.2613
 Red. masses --      5.0002                 3.8267                 3.4607
 Frc consts  --      0.7745                 0.9160                 0.9133
 IR Inten    --      3.3834                 2.7715                 3.4194

                     13                     14                     15
                      A                      A                      A
 Frequencies --    742.9313               789.8838               808.6492
 Red. masses --      4.3689                 2.3339                 2.1998
 Frc consts  --      1.4207                 0.8579                 0.8475
 IR Inten    --      8.3891                 2.7267                14.3199

                     16                     17                     18
                      A                      A                      A
 Frequencies --    878.1959               899.0054               926.6689
 Red. masses --      1.9324                 1.9796                 2.3284
 Frc consts  --      0.8781                 0.9426                 1.1780
 IR Inten    --     15.6698                 1.1944                 8.6880

                     19                     20                     21
                      A                      A                      A
 Frequencies --    930.6545               998.9658              1046.7842
 Red. masses --      2.8402                 3.4474                 2.2179
 Frc consts  --      1.4494                 2.0269                 1.4319
 IR Inten    --     33.8221                 8.6159                18.5651

                     22                     23                     24
                      A                      A                      A
 Frequencies --   1069.4047              1075.3844              1092.9482
 Red. masses --      3.8005                 2.6659                 1.7819
 Frc consts  --      2.5608                 1.8165                 1.2541
 IR Inten    --     68.6006                 3.0370                14.5537

                     25                     26                     27
                      A                      A                      A
 Frequencies --   1119.2795              1141.8613              1161.1548
 Red. masses --      1.5580                 1.6584                 1.8438
 Frc consts  --      1.1500                 1.2740                 1.4647
 IR Inten    --      9.9882                10.6063                15.4998

                     28                     29                     30
                      A                      A                      A
 Frequencies --   1181.8771              1205.7528              1240.8747
 Red. masses --      1.2868                 1.6833                 1.7663
 Frc consts  --      1.0590                 1.4419                 1.6024
 IR Inten    --      2.2488                 4.5172                 3.6496

                     31                     32                     33
                      A                      A                      A
 Frequencies --   1246.3837              1289.0875              1353.0799
 Red. masses --      2.1109                 1.6798                 2.6662
 Frc consts  --      1.9321                 1.6447                 2.8760
 IR Inten    --      7.5569                76.1322                83.5827

                     34                     35                     36
                      A                      A                      A
 Frequencies --   1400.0713              1446.2783              1476.5813
 Red. masses --      1.4703                 3.8261                 1.0607
 Frc consts  --      1.6981                 4.7153                 1.3625
 IR Inten    --     19.5560                16.1634                 2.6734

                     37                     38                     39
                      A                      A                      A
 Frequencies --   1480.0283              1488.2394              1495.8501
 Red. masses --      1.1164                 1.0558                 1.2115
 Frc consts  --      1.4409                 1.3778                 1.5971
 IR Inten    --      0.7176                 5.2988                 9.1440

                     40                     41                     42
                      A                      A                      A
 Frequencies --   1503.4180              1507.3318              3001.6021
 Red. masses --      1.1906                 1.0565                 1.0342
 Frc consts  --      1.5855                 1.4143                 5.4897
 IR Inten    --     12.6797                 7.2740                43.7665

                     43                     44                     45
                      A                      A                      A
 Frequencies --   3033.8422              3048.2720              3058.4188
 Red. masses --      1.0355                 1.0574                 1.1026
 Frc consts  --      5.6156                 5.7887                 6.0768
 IR Inten    --     24.1684                25.9682                54.7688

                     46                     47                     48
                      A                      A                      A
 Frequencies --   3096.7729              3113.4468              3118.2363
 Red. masses --      1.1013                 1.1083                 1.1001
 Frc consts  --      6.2224                 6.3300                 6.3024
 IR Inten    --     17.8862                18.6043                12.8809

                     49                     50                     51
                      A                      A                      A
 Frequencies --   3126.7048              3149.9229              3210.2815
 Red. masses --      1.0996                 1.0930                 1.0983
 Frc consts  --      6.3337                 6.3897                 6.6689
 IR Inten    --     26.6104                35.7893                 5.8281

 - Thermochemistry -
 -------------------
 Temperature   298.150 Kelvin.  Pressure   1.00000 Atm.
 Atom     1 has atomic number  6 and mass  12.00000

 Molecular mass:   126.06808 amu.
 Principal axes and moments of inertia in atomic units:
                           1         2         3
     Eigenvalues --   697.386141068.965741416.22361
           X            0.99904   0.02269  -0.03743
           Y           -0.02215   0.99964   0.01497
           Z            0.03775  -0.01413   0.99919
 This molecule is an asymmetric top.
 Rotational symmetry number  1.
 Warning -- assumption of classical behavior for rotation
           may cause significant error
 Rotational temperatures (Kelvin)      0.12420     0.08103     0.06116
 Rotational constants (GHZ):           2.58787     1.68831     1.27433
 Zero-point vibrational energy     413894.4 (Joules/Mol)
                                   98.92312 (Kcal/Mol)
 Warning -- explicit consideration of  10 degrees of freedom as
           vibrations may cause significant error
 Vibrational temperatures:    140.57   232.81   251.78   296.62   327.64
          (Kelvin)            381.40   582.27   605.12   669.71   737.71
                              917.06   962.92  1068.91  1136.47  1163.46
                             1263.53  1293.47  1333.27  1339.00  1437.29
                             1506.09  1538.63  1547.24  1572.51  1610.39
                             1642.88  1670.64  1700.46  1734.81  1785.34
                             1793.27  1854.71  1946.78  2014.39  2080.87
                             2124.47  2129.43  2141.24  2152.19  2163.08
                             2168.71  4318.63  4365.02  4385.78  4400.38
                             4455.56  4479.55  4486.44  4498.63  4532.03
                             4618.87

 Zero-point correction=                           0.157644 (Hartree/Particle)
 Thermal correction to Energy=                    0.166105
 Thermal correction to Enthalpy=                  0.167049
 Thermal correction to Gibbs Free Energy=         0.124822
 Sum of electronic and zero-point Energies=           -422.949504
 Sum of electronic and thermal Energies=              -422.941042
 Sum of electronic and thermal Enthalpies=            -422.940098
 Sum of electronic and thermal Free Energies=         -422.982326

                     E (Thermal)             CV                S
                      KCal/Mol        Cal/Mol-Kelvin    Cal/Mol-Kelvin
 Total                  104.233             32.384             88.876
 Electronic               0.000              0.000              0.000
 Translational            0.889              2.981             40.409
 Rotational               0.889              2.981             28.448
 Vibrational            102.455             26.422             20.020
 Vibration     1          0.603              1.951              3.500
 Vibration     2          0.622              1.889              2.529
 Vibration     3          0.627              1.873              2.381
 Vibration     4          0.641              1.831              2.077
 Vibration     5          0.651              1.799              1.897
 Vibration     6          0.671              1.737              1.628
 Vibration     7          0.770              1.460              0.946
 Vibration     8          0.783              1.426              0.890
 Vibration     9          0.823              1.327              0.750
 Vibration    10          0.868              1.222              0.627

 Normal termination of Gaussian 09 at Tue Jan 28 12:28:24 2020.
