 Gaussian 09, Revision D.01,
 Gaussian 09:  ES64L-G09RevD.01 24-Apr-2013

 -----------------------------
 # b3lyp 6-31G(2df,p) opt Freq
 -----------------------------

 -----
 titel
 -----
 Symbolic Z-matrix:
 Charge =  0 Multiplicity = 1

 SCF Done:  E(RB3LYP) =  -423.113369303     A.U. after   14 cycles
 Optimization completed.
    -- Stationary point found.
 Normal termination of Gaussian 09 at Tue Jan 28 13:32:31 2020.

 ----------------------------------------------------------------------
 #N Geom=AllCheck Guess=TCheck SCRF=Check GenChk RB3LYP/6-31G(2df,p) Fr
 eq
 ----------------------------------------------------------------------

 Structure from the checkpoint file:  "/scratch/puck/g09_f95f500e-f501-4766-ae43-563b8cb8df24/Gau-93975.chk"
 -----
 titel
 -----
 Charge =  0 Multiplicity = 1

                         Standard orientation:
 ---------------------------------------------------------------------
 Center     Atomic      Atomic             Coordinates (Angstroms)
 Number     Number       Type             X           Y           Z
 ---------------------------------------------------------------------
      1          6           0       -0.253120    2.082059   -0.274593
      2          8           0       -0.378959    0.910852   -1.080136
      3          6           0       -0.611321   -0.258098   -0.354547
      4          6           0       -0.158167   -1.516614   -1.052363
      5          6           0        0.599067   -1.039968    0.163202
      6          6           0        1.994042   -0.483321    0.005246
      7          8           0        2.367020    0.419574    1.040140
      8          6           0       -1.825188   -0.291425    0.424778
      9          6           0       -2.834217   -0.304010    1.079841
     10          1           0        0.575892    1.983524    0.435133
     11          1           0       -0.055770    2.905452   -0.964149
     12          1           0       -1.182271    2.284836    0.272395
     13          1           0       -0.781206   -2.399158   -0.976113
     14          1           0        0.304467   -1.356962   -2.020690
     15          1           0        0.429222   -1.600709    1.079875
     16          1           0        2.711602   -1.316018   -0.063451
     17          1           0        2.059807    0.087857   -0.923954
     18          1           0        2.296370   -0.044962    1.880354
     19          1           0       -3.729176   -0.319006    1.651173
 ---------------------------------------------------------------------

 SCF Done:  E(RB3LYP) =  -423.113369303     A.U. after    1 cycles

 The electronic state is 1-A.
 Alpha  occ. eigenvalues --  -19.14787 -19.14049 -10.26170 -10.23251 -10.21341
 Alpha  occ. eigenvalues --  -10.20016 -10.19576 -10.18366 -10.17695  -1.04219
 Alpha  occ. eigenvalues --   -1.01945  -0.86643  -0.75078  -0.70675  -0.67988
 Alpha  occ. eigenvalues --   -0.62296  -0.59067  -0.54122  -0.51258  -0.50677
 Alpha  occ. eigenvalues --   -0.47869  -0.45281  -0.43569  -0.42926  -0.41342
 Alpha  occ. eigenvalues --   -0.39436  -0.35831  -0.34934  -0.31632  -0.31190
 Alpha  occ. eigenvalues --   -0.28138  -0.27457  -0.26246  -0.23919
 Alpha virt. eigenvalues --    0.03544   0.04634   0.07250   0.10262   0.12173
 Alpha virt. eigenvalues --    0.12714   0.14085   0.14438   0.15862   0.16466
 Alpha virt. eigenvalues --    0.16830   0.18010   0.19331   0.20134   0.20663

 Mulliken charges:
               1
     1  C   -0.270594
     2  O   -0.279760
     3  C    0.246634
     4  C   -0.354905
     5  C   -0.107426
     6  C   -0.079422
     7  O   -0.411002
     8  C    0.300825
     9  C   -0.475321
    10  H    0.138619
    11  H    0.123682
    12  H    0.119546
    13  H    0.127111
    14  H    0.130876
    15  H    0.091603
    16  H    0.094658
    17  H    0.126775
    18  H    0.282097
    19  H    0.196006
 Sum of Mulliken charges =   0.00000

 Dipole moment (field-independent basis, Debye):
    X=              0.0759    Y=             -1.3752    Z=              1.2702  Tot=              1.8736
 Quadrupole moment (field-independent basis, Debye-Ang):
   XX=            -52.7877   YY=            -50.9642   ZZ=            -50.6539
   XY=             -2.6925   XZ=             -2.2993   YZ=             -0.6695

  Exact polarizability:  93.172  -1.246  73.828 -11.208   1.446  70.039
 Approx polarizability: 132.261  -1.766 101.436 -21.739   1.436 111.234

                      1                      2                      3
                      A                      A                      A
 Frequencies --     98.9750               123.5208               140.8886
 Red. masses --      4.6559                 3.9544                 3.0660
 Frc consts  --      0.0269                 0.0355                 0.0359
 IR Inten    --      0.4904                 1.2066                 0.5587

                      4                      5                      6
                      A                      A                      A
 Frequencies --    162.0547               195.6378               229.6510
 Red. masses --      2.9213                 1.2571                 2.8150
 Frc consts  --      0.0452                 0.0283                 0.0875
 IR Inten    --      5.6055                 2.1321                 4.9189

                      7                      8                      9
                      A                      A                      A
 Frequencies --    252.8225               294.7860               341.5480
 Red. masses --      2.0327                 1.3089                 2.7288
 Frc consts  --      0.0766                 0.0670                 0.1876
 IR Inten    --      4.2223                79.9788                48.7460

                     10                     11                     12
                      A                      A                      A
 Frequencies --    378.6334               467.4729               508.3813
 Red. masses --      3.9549                 3.1184                 4.5547
 Frc consts  --      0.3341                 0.4015                 0.6936
 IR Inten    --      4.8040                 1.0126                15.7718

                     13                     14                     15
                      A                      A                      A
 Frequencies --    553.3109               576.1370               601.4716
 Red. masses --      5.1216                 1.4184                 2.7981
 Frc consts  --      0.9238                 0.2774                 0.5964
 IR Inten    --      6.5558                37.2880                 7.4226

                     16                     17                     18
                      A                      A                      A
 Frequencies --    678.0649               680.5099               820.3711
 Red. masses --      1.4300                 2.9579                 1.6725
 Frc consts  --      0.3874                 0.8071                 0.6632
 IR Inten    --     30.5596                 2.9757                 6.6452

                     19                     20                     21
                      A                      A                      A
 Frequencies --    896.9852               899.7564               966.5662
 Red. masses --      1.8457                 3.0970                 1.4390
 Frc consts  --      0.8749                 1.4772                 0.7921
 IR Inten    --     10.7924                 7.3033                22.7693

                     22                     23                     24
                      A                      A                      A
 Frequencies --   1004.4867              1050.5338              1078.1466
 Red. masses --      4.0130                 3.1078                 1.5431
 Frc consts  --      2.3856                 2.0208                 1.0568
 IR Inten    --      9.6935                49.8770                28.2316

                     25                     26                     27
                      A                      A                      A
 Frequencies --   1086.4925              1104.8003              1123.6159
 Red. masses --      3.1952                 2.3817                 1.3984
 Frc consts  --      2.2223                 1.7128                 1.0402
 IR Inten    --     27.1043                68.8613                 7.2770

                     28                     29                     30
                      A                      A                      A
 Frequencies --   1194.6303              1203.5390              1239.4840
 Red. masses --      1.2750                 1.5753                 1.5320
 Frc consts  --      1.0721                 1.3444                 1.3867
 IR Inten    --      0.3646                 4.8042                13.7131

                     31                     32                     33
                      A                      A                      A
 Frequencies --   1270.5525              1273.9895              1363.1320
 Red. masses --      2.9007                 1.8021                 1.2474
 Frc consts  --      2.7589                 1.7233                 1.3656
 IR Inten    --     97.4835                27.1868                 2.3185

                     34                     35                     36
                      A                      A                      A
 Frequencies --   1397.8443              1433.9634              1473.8419
 Red. masses --      1.4296                 1.4203                 1.2708
 Frc consts  --      1.6458                 1.7207                 1.6264
 IR Inten    --     14.7773                39.6800                 3.0764

                     37                     38                     39
                      A                      A                      A
 Frequencies --   1480.6906              1491.2629              1501.3248
 Red. masses --      1.1872                 1.0581                 1.1017
 Frc consts  --      1.5336                 1.3863                 1.4630
 IR Inten    --      5.1287                 1.8560                 2.6201

                     40                     41                     42
                      A                      A                      A
 Frequencies --   1520.5781              2228.8248              2982.7867
 Red. masses --      1.0492                 5.9988                 1.0718
 Frc consts  --      1.4293                17.5575                 5.6182
 IR Inten    --      3.7029                 4.8694                72.5528

                     43                     44                     45
                      A                      A                      A
 Frequencies --   3016.5930              3087.1852              3102.3331
 Red. masses --      1.0329                 1.1032                 1.0900
 Frc consts  --      5.5380                 6.1946                 6.1810
 IR Inten    --     44.9444                15.1361                 5.9890

                     46                     47                     48
                      A                      A                      A
 Frequencies --   3130.3759              3134.2709              3140.3298
 Red. masses --      1.1028                 1.0884                 1.0548
 Frc consts  --      6.3673                 6.2996                 6.1289
 IR Inten    --     19.9486                16.9518                 5.5309

                     49                     50                     51
                      A                      A                      A
 Frequencies --   3234.7285              3501.0980              3815.1043
 Red. masses --      1.1174                 1.1604                 1.0662
 Frc consts  --      6.8885                 8.3805                 9.1435
 IR Inten    --      3.3653                75.8095                19.3478

 - Thermochemistry -
 -------------------
 Temperature   298.150 Kelvin.  Pressure   1.00000 Atm.
 Atom     1 has atomic number  6 and mass  12.00000

 Molecular mass:   126.06808 amu.
 Principal axes and moments of inertia in atomic units:
                           1         2         3
     Eigenvalues --   810.337581436.485481656.21021
           X            0.99974  -0.01789  -0.01414
           Y            0.01822   0.99955   0.02375
           Z            0.01371  -0.02401   0.99962
 This molecule is an asymmetric top.
 Rotational symmetry number  1.
 Warning -- assumption of classical behavior for rotation
           may cause significant error
 Rotational temperatures (Kelvin)      0.10689     0.06030     0.05230
 Rotational constants (GHZ):           2.22715     1.25636     1.08968
 Zero-point vibrational energy     409924.9 (Joules/Mol)
                                   97.97439 (Kcal/Mol)
 Warning -- explicit consideration of  15 degrees of freedom as
           vibrations may cause significant error
 Vibrational temperatures:    142.40   177.72   202.71   233.16   281.48
          (Kelvin)            330.42   363.75   424.13   491.41   544.77
                              672.59   731.45   796.09   828.93   865.38
                              975.58   979.10  1180.33  1290.56  1294.55
                             1390.67  1445.23  1511.48  1551.21  1563.22
                             1589.56  1616.63  1718.80  1731.62  1783.34
                             1828.04  1832.98  1961.24  2011.18  2063.15
                             2120.53  2130.38  2145.59  2160.07  2187.77
                             3206.78  4291.56  4340.20  4441.77  4463.56
                             4503.91  4509.51  4518.23  4654.05  5037.29
                             5489.08

 Zero-point correction=                           0.156132 (Hartree/Particle)
 Thermal correction to Energy=                    0.166110
 Thermal correction to Enthalpy=                  0.167054
 Thermal correction to Gibbs Free Energy=         0.121645
 Sum of electronic and zero-point Energies=           -422.957237
 Sum of electronic and thermal Energies=              -422.947260
 Sum of electronic and thermal Enthalpies=            -422.946316
 Sum of electronic and thermal Free Energies=         -422.991724

                     E (Thermal)             CV                S
                      KCal/Mol        Cal/Mol-Kelvin    Cal/Mol-Kelvin
 Total                  104.235             36.858             95.570
 Electronic               0.000              0.000              0.000
 Translational            0.889              2.981             40.409
 Rotational               0.889              2.981             29.046
 Vibrational            102.458             30.897             26.116
 Vibration     1          0.604              1.950              3.474
 Vibration     2          0.610              1.929              3.045
 Vibration     3          0.615              1.912              2.792
 Vibration     4          0.622              1.889              2.526
 Vibration     5          0.636              1.846              2.174
 Vibration     6          0.652              1.796              1.882
 Vibration     7          0.664              1.758              1.711
 Vibration     8          0.689              1.683              1.446
 Vibration     9          0.721              1.592              1.205
 Vibration    10          0.749              1.516              1.045
 Vibration    11          0.825              1.322              0.745
 Vibration    12          0.864              1.231              0.637
 Vibration    13          0.909              1.132              0.537
 Vibration    14          0.933              1.083              0.493
 Vibration    15          0.960              1.029              0.447

 Optimization completed.
    -- Stationary point found.
 Normal termination of Gaussian 09 at Tue Jan 28 14:57:20 2020.
