 Gaussian 09, Revision D.01,
 Gaussian 09:  ES64L-G09RevD.01 24-Apr-2013

 -----------------------------
 # b3lyp 6-31G(2df,p) opt Freq
 -----------------------------

 -----
 titel
 -----
 Symbolic Z-matrix:
 Charge =  0 Multiplicity = 1

 SCF Done:  E(RB3LYP) =  -423.124703172     A.U. after   14 cycles
 Optimization completed.
    -- Stationary point found.
 Normal termination of Gaussian 09 at Tue Jan 28 02:55:33 2020.

 ----------------------------------------------------------------------
 #N Geom=AllCheck Guess=TCheck SCRF=Check GenChk RB3LYP/6-31G(2df,p) Fr
 eq
 ----------------------------------------------------------------------

 Structure from the checkpoint file:  "/scratch/puck/g09_7595a3d1-e2e1-41ed-b069-54caa2be991a/Gau-11504.chk"
 -----
 titel
 -----
 Charge =  0 Multiplicity = 1

                         Standard orientation:
 ---------------------------------------------------------------------
 Center     Atomic      Atomic             Coordinates (Angstroms)
 Number     Number       Type             X           Y           Z
 ---------------------------------------------------------------------
      1          6           0        2.834078    0.508124   -0.146724
      2          6           0        1.409661    0.066006   -0.073168
      3          8           0        1.010951   -0.741556    1.045230
      4          6           0        0.736842   -1.232590   -0.279836
      5          6           0       -0.559832   -0.546674   -0.767632
      6          6           0       -1.606902   -0.178666    0.337047
      7          8           0       -2.961237   -0.179604   -0.051947
      8          6           0       -0.920831    1.216961    0.506584
      9          6           0        0.144795    0.834029   -0.558864
     10          1           0        3.082702    0.853045   -1.155568
     11          1           0        3.018251    1.337192    0.546531
     12          1           0        3.503725   -0.313902    0.120104
     13          1           0        1.125062   -2.217200   -0.519230
     14          1           0       -0.944561   -0.865539   -1.737126
     15          1           0       -1.549105   -0.812823    1.222321
     16          1           0       -3.056377    0.395363   -0.818870
     17          1           0       -1.577768    2.028407    0.177023
     18          1           0       -0.547682    1.446681    1.506469
     19          1           0        0.321167    1.514913   -1.392354
 ---------------------------------------------------------------------

 SCF Done:  E(RB3LYP) =  -423.124703172     A.U. after    1 cycles

 The electronic state is 1-A.
 Alpha  occ. eigenvalues --  -19.14929 -19.13379 -10.24137 -10.23428 -10.22535
 Alpha  occ. eigenvalues --  -10.18948 -10.18795 -10.18589 -10.17730  -1.07538
 Alpha  occ. eigenvalues --   -1.01596  -0.83900  -0.74992  -0.70986  -0.66062
 Alpha  occ. eigenvalues --   -0.60284  -0.58584  -0.53311  -0.50788  -0.48982
 Alpha  occ. eigenvalues --   -0.46818  -0.43250  -0.42487  -0.41195  -0.40470
 Alpha  occ. eigenvalues --   -0.38484  -0.37712  -0.36562  -0.33796  -0.31925
 Alpha  occ. eigenvalues --   -0.29659  -0.26794  -0.26252  -0.23868
 Alpha virt. eigenvalues --    0.07229   0.07664   0.08723   0.11214   0.11649
 Alpha virt. eigenvalues --    0.13410   0.14158   0.14507   0.15740   0.16216
 Alpha virt. eigenvalues --    0.17272   0.18627   0.19520   0.20815   0.21344

 Mulliken charges:
               1
     1  C   -0.504813
     2  C    0.411393
     3  O   -0.277974
     4  C   -0.059132
     5  C   -0.117875
     6  C    0.169851
     7  O   -0.441301
     8  C   -0.285415
     9  C   -0.107309
    10  H    0.124301
    11  H    0.131441
    12  H    0.134845
    13  H    0.100685
    14  H    0.069361
    15  H    0.104378
    16  H    0.274539
    17  H    0.090516
    18  H    0.112212
    19  H    0.070296
 Sum of Mulliken charges =   0.00000

 Dipole moment (field-independent basis, Debye):
    X=              1.3508    Y=              1.1417    Z=             -2.3550  Tot=              2.9452
 Quadrupole moment (field-independent basis, Debye-Ang):
   XX=            -55.6201   YY=            -51.2342   ZZ=            -52.9280
   XY=             -2.2830   XZ=              1.5163   YZ=              0.5958

  Exact polarizability:  87.000   0.223  72.913   1.444   0.767  64.378
 Approx polarizability: 111.350   2.578 111.324   3.852  -1.246 104.856

                      1                      2                      3
                      A                      A                      A
 Frequencies --    100.7471               182.2932               196.9596
 Red. masses --      3.6266                 3.1035                 1.0576
 Frc consts  --      0.0217                 0.0608                 0.0242
 IR Inten    --      0.8593                 0.7917                 0.1675

                      4                      5                      6
                      A                      A                      A
 Frequencies --    246.1777               293.5694               322.5306
 Red. masses --      2.9135                 1.3832                 3.0003
 Frc consts  --      0.1040                 0.0702                 0.1839
 IR Inten    --      1.8692                40.7750                 8.3650

                      7                      8                      9
                      A                      A                      A
 Frequencies --    358.3291               395.0557               495.3381
 Red. masses --      2.6794                 2.9739                 1.9989
 Frc consts  --      0.2027                 0.2735                 0.2890
 IR Inten    --     37.2598                10.8737                 4.5228

                     10                     11                     12
                      A                      A                      A
 Frequencies --    552.0035               645.0697               704.4863
 Red. masses --      5.0473                 3.9209                 3.3994
 Frc consts  --      0.9061                 0.9613                 0.9940
 IR Inten    --     13.0131                 0.8927                 0.5870

                     13                     14                     15
                      A                      A                      A
 Frequencies --    763.2096               811.5672               834.7445
 Red. masses --      4.6874                 2.9650                 2.0590
 Frc consts  --      1.6087                 1.1506                 0.8453
 IR Inten    --      7.6385                 6.0182                 5.3289

                     16                     17                     18
                      A                      A                      A
 Frequencies --    852.7121               882.2418               920.5216
 Red. masses --      2.2887                 2.0561                 2.1500
 Frc consts  --      0.9805                 0.9429                 1.0734
 IR Inten    --      2.8638                16.8257                 4.3468

                     19                     20                     21
                      A                      A                      A
 Frequencies --    951.3285               976.9513               994.9931
 Red. masses --      2.1005                 1.8296                 2.3892
 Frc consts  --      1.1200                 1.0289                 1.3936
 IR Inten    --      4.1998                 4.4122                 1.4058

                     22                     23                     24
                      A                      A                      A
 Frequencies --   1008.6489              1045.0292              1085.0565
 Red. masses --      2.2501                 2.0020                 1.5248
 Frc consts  --      1.3487                 1.2881                 1.0577
 IR Inten    --      7.7678                 3.0404                 9.8389

                     25                     26                     27
                      A                      A                      A
 Frequencies --   1113.0560              1115.8178              1136.6427
 Red. masses --      2.2159                 2.7022                 1.5139
 Frc consts  --      1.6175                 1.9822                 1.1524
 IR Inten    --     76.7025                70.7439                 1.8493

                     28                     29                     30
                      A                      A                      A
 Frequencies --   1177.0425              1199.4473              1225.8145
 Red. masses --      1.6175                 1.5292                 1.6348
 Frc consts  --      1.3203                 1.2962                 1.4473
 IR Inten    --      4.3498                32.4190                 4.4877

                     31                     32                     33
                      A                      A                      A
 Frequencies --   1241.6236              1257.7348              1266.4039
 Red. masses --      1.5295                 1.5031                 1.4072
 Frc consts  --      1.3892                 1.4009                 1.3297
 IR Inten    --      6.4845                 3.5981                 7.2822

                     34                     35                     36
                      A                      A                      A
 Frequencies --   1295.0874              1319.7192              1403.1935
 Red. masses --      1.8257                 1.6855                 1.2757
 Frc consts  --      1.8042                 1.7296                 1.4799
 IR Inten    --      8.9387                 1.0198                 4.1017

                     37                     38                     39
                      A                      A                      A
 Frequencies --   1419.4539              1454.2064              1465.4915
 Red. masses --      1.2457                 1.3894                 1.7700
 Frc consts  --      1.4788                 1.7311                 2.2397
 IR Inten    --     53.9605                 5.1254                18.8926

                     40                     41                     42
                      A                      A                      A
 Frequencies --   1482.6465              1493.6259              3031.9423
 Red. masses --      1.1377                 1.1879                 1.0366
 Frc consts  --      1.4735                 1.5614                 5.6144
 IR Inten    --      9.7455                 3.4625                22.6805

                     43                     44                     45
                      A                      A                      A
 Frequencies --   3050.9683              3094.1716              3100.8636
 Red. masses --      1.0622                 1.0990                 1.0887
 Frc consts  --      5.8256                 6.1994                 6.1679
 IR Inten    --     30.5263                15.2696                29.8240

                     46                     47                     48
                      A                      A                      A
 Frequencies --   3107.5337              3111.7930              3120.3518
 Red. masses --      1.0891                 1.0902                 1.1012
 Frc consts  --      6.1968                 6.2200                 6.3173
 IR Inten    --      2.5683                18.3883                 8.2910

                     49                     50                     51
                      A                      A                      A
 Frequencies --   3122.1395              3170.1083              3801.5614
 Red. masses --      1.1002                 1.0942                 1.0659
 Frc consts  --      6.3188                 6.4787                 9.0758
 IR Inten    --     38.0193                25.4472                11.6786

 - Thermochemistry -
 -------------------
 Temperature   298.150 Kelvin.  Pressure   1.00000 Atm.
 Atom     1 has atomic number  6 and mass  12.00000

 Molecular mass:   126.06808 amu.
 Principal axes and moments of inertia in atomic units:
                           1         2         3
     Eigenvalues --   442.314761506.517091624.77935
           X            0.99999   0.00194  -0.00420
           Y           -0.00176   0.99910   0.04239
           Z            0.00428  -0.04239   0.99909
 This molecule is an asymmetric top.
 Rotational symmetry number  1.
 Warning -- assumption of classical behavior for rotation
           may cause significant error
 Rotational temperatures (Kelvin)      0.19582     0.05749     0.05331
 Rotational constants (GHZ):           4.08022     1.19796     1.11076
 Zero-point vibrational energy     415092.2 (Joules/Mol)
                                   99.20943 (Kcal/Mol)
 Warning -- explicit consideration of  10 degrees of freedom as
           vibrations may cause significant error
 Vibrational temperatures:    144.95   262.28   283.38   354.19   422.38
          (Kelvin)            464.05   515.56   568.40   712.68   794.21
                              928.11  1013.60  1098.09  1167.66  1201.01
                             1226.86  1269.35  1324.42  1368.75  1405.61
                             1431.57  1451.22  1503.56  1561.15  1601.44
                             1605.41  1635.37  1693.50  1725.74  1763.67
                             1786.42  1809.60  1822.07  1863.34  1898.78
                             2018.88  2042.28  2092.28  2108.51  2133.19
                             2148.99  4362.28  4389.66  4451.82  4461.45
                             4471.04  4477.17  4489.48  4492.06  4561.07
                             5469.59

 Zero-point correction=                           0.158100 (Hartree/Particle)
 Thermal correction to Energy=                    0.166302
 Thermal correction to Enthalpy=                  0.167246
 Thermal correction to Gibbs Free Energy=         0.125700
 Sum of electronic and zero-point Energies=           -422.966603
 Sum of electronic and thermal Energies=              -422.958401
 Sum of electronic and thermal Enthalpies=            -422.957457
 Sum of electronic and thermal Free Energies=         -422.999003

                     E (Thermal)             CV                S
                      KCal/Mol        Cal/Mol-Kelvin    Cal/Mol-Kelvin
 Total                  104.356             32.350             87.441
 Electronic               0.000              0.000              0.000
 Translational            0.889              2.981             40.409
 Rotational               0.889              2.981             28.473
 Vibrational            102.578             26.388             18.559
 Vibration     1          0.604              1.949              3.440
 Vibration     2          0.630              1.864              2.305
 Vibration     3          0.636              1.844              2.161
 Vibration     4          0.661              1.769              1.758
 Vibration     5          0.688              1.686              1.453
 Vibration     6          0.708              1.630              1.297
 Vibration     7          0.733              1.558              1.129
 Vibration     8          0.762              1.481              0.981
 Vibration     9          0.851              1.260              0.670
 Vibration    10          0.907              1.135              0.540

 Optimization completed.
    -- Stationary point found.
 Normal termination of Gaussian 09 at Tue Jan 28 03:45:16 2020.
