 Gaussian 09, Revision D.01,
 Gaussian 09:  ES64L-G09RevD.01 24-Apr-2013

 -----------------------------
 # b3lyp 6-31G(2df,p) opt Freq
 -----------------------------

 -----
 titel
 -----
 Symbolic Z-matrix:
 Charge =  0 Multiplicity = 1

 SCF Done:  E(RB3LYP) =  -423.220965970     A.U. after   14 cycles
 Optimization completed.
    -- Stationary point found.
 Normal termination of Gaussian 09 at Tue Jan 28 11:40:19 2020.

 ----------------------------------------------------------------------
 #N Geom=AllCheck Guess=TCheck SCRF=Check GenChk RB3LYP/6-31G(2df,p) Fr
 eq
 ----------------------------------------------------------------------

 Structure from the checkpoint file:  "/scratch/puck/g09_c6fe541f-66a4-4866-82f8-aaa169bc0db6/Gau-195690.chk"
 -----
 titel
 -----
 Charge =  0 Multiplicity = 1

                         Standard orientation:
 ---------------------------------------------------------------------
 Center     Atomic      Atomic             Coordinates (Angstroms)
 Number     Number       Type             X           Y           Z
 ---------------------------------------------------------------------
      1          8           0        3.096753    0.015344   -0.391094
      2          6           0        2.083791   -0.792290    0.190336
      3          6           0        0.729596   -0.209635   -0.200062
      4          6           0        0.576247    1.249083    0.257104
      5          6           0       -0.817481    1.766473    0.043407
      6          6           0       -1.886826    0.974501   -0.111265
      7          6           0       -1.794365   -0.498508   -0.032219
      8          8           0       -2.757984   -1.215561   -0.213877
      9          6           0       -0.426034   -1.063139    0.340069
     10          1           0        3.952913   -0.340214   -0.136572
     11          1           0        2.150369   -1.833096   -0.164156
     12          1           0        2.172819   -0.813332    1.289894
     13          1           0        0.677800   -0.217165   -1.297403
     14          1           0        0.828186    1.335013    1.327064
     15          1           0        1.300729    1.882470   -0.262894
     16          1           0       -0.943441    2.847088    0.016903
     17          1           0       -2.880450    1.375228   -0.285962
     18          1           0       -0.379709   -1.095231    1.439586
     19          1           0       -0.378948   -2.097926   -0.010910
 ---------------------------------------------------------------------

 SCF Done:  E(RB3LYP) =  -423.220965970     A.U. after    1 cycles

 The electronic state is 1-A.
 Alpha  occ. eigenvalues --  -19.14341 -19.11631 -10.25909 -10.23507 -10.20962
 Alpha  occ. eigenvalues --  -10.19843 -10.19521 -10.18855 -10.18677  -1.02586
 Alpha  occ. eigenvalues --   -1.02434  -0.84394  -0.77363  -0.72719  -0.68158
 Alpha  occ. eigenvalues --   -0.60641  -0.57959  -0.52654  -0.51148  -0.48958
 Alpha  occ. eigenvalues --   -0.45512  -0.44753  -0.42760  -0.42327  -0.41007
 Alpha  occ. eigenvalues --   -0.40344  -0.37613  -0.36171  -0.34351  -0.33391
 Alpha  occ. eigenvalues --   -0.32537  -0.27672  -0.26758  -0.23551
 Alpha virt. eigenvalues --   -0.04577   0.06084   0.06860   0.09568   0.11377
 Alpha virt. eigenvalues --    0.12130   0.14325   0.15267   0.16093   0.17464
 Alpha virt. eigenvalues --    0.17572   0.18507   0.20512   0.22181   0.23184

 Mulliken charges:
               1
     1  O   -0.425233
     2  C   -0.093185
     3  C    0.000777
     4  C   -0.247580
     5  C   -0.060942
     6  C   -0.136910
     7  C    0.364351
     8  O   -0.331957
     9  C   -0.327566
    10  H    0.289946
    11  H    0.091778
    12  H    0.083892
    13  H    0.094891
    14  H    0.113839
    15  H    0.132846
    16  H    0.107297
    17  H    0.105058
    18  H    0.118479
    19  H    0.120220
 Sum of Mulliken charges =   0.00000

 Dipole moment (field-independent basis, Debye):
    X=              3.4412    Y=              1.0921    Z=              1.2415  Tot=              3.8178
 Quadrupole moment (field-independent basis, Debye-Ang):
   XX=            -56.7524   YY=            -51.9046   ZZ=            -53.3478
   XY=             -9.3705   XZ=              1.4847   YZ=             -0.4158

  Exact polarizability:  96.807   6.311  84.302   4.169   0.246  55.193
 Approx polarizability: 138.174  26.671 131.069   8.485   2.957  89.364

                      1                      2                      3
                      A                      A                      A
 Frequencies --     83.6586               121.3504               146.7920
 Red. masses --      4.9571                 2.9066                 2.9515
 Frc consts  --      0.0204                 0.0252                 0.0375
 IR Inten    --      6.0529                 0.4010                 4.2600

                      4                      5                      6
                      A                      A                      A
 Frequencies --    199.3629               259.6224               312.5470
 Red. masses --      2.7877                 1.1129                 2.6123
 Frc consts  --      0.0653                 0.0442                 0.1504
 IR Inten    --      8.6783                98.7303                 1.3747

                      7                      8                      9
                      A                      A                      A
 Frequencies --    349.1185               393.1698               452.4493
 Red. masses --      5.2531                 2.0490                 3.9354
 Frc consts  --      0.3772                 0.1866                 0.4747
 IR Inten    --      1.5376                 0.7194                 8.5608

                     10                     11                     12
                      A                      A                      A
 Frequencies --    469.5652               534.7763               608.7787
 Red. masses --      4.8793                 3.0470                 2.4269
 Frc consts  --      0.6339                 0.5134                 0.5299
 IR Inten    --      3.8652                12.2866                 4.0079

                     13                     14                     15
                      A                      A                      A
 Frequencies --    708.4905               756.4162               821.8768
 Red. masses --      4.4856                 1.3866                 2.9084
 Frc consts  --      1.3266                 0.4674                 1.1575
 IR Inten    --      3.2181                13.0389                 2.5972

                     16                     17                     18
                      A                      A                      A
 Frequencies --    882.5174               903.3743               957.8073
 Red. masses --      2.6785                 1.5451                 1.9776
 Frc consts  --      1.2291                 0.7429                 1.0689
 IR Inten    --      3.5113                10.3415                 3.3274

                     19                     20                     21
                      A                      A                      A
 Frequencies --    972.4670              1026.2942              1060.7258
 Red. masses --      2.1614                 1.2273                 3.4320
 Frc consts  --      1.2043                 0.7616                 2.2751
 IR Inten    --     14.3785                 0.4290                17.0647

                     22                     23                     24
                      A                      A                      A
 Frequencies --   1081.1761              1082.5158              1113.8316
 Red. masses --      3.0207                 2.2104                 1.9934
 Frc consts  --      2.0804                 1.5261                 1.4571
 IR Inten    --     51.7638                 1.8304                19.6770

                     25                     26                     27
                      A                      A                      A
 Frequencies --   1153.5216              1184.0476              1219.3958
 Red. masses --      1.3059                 1.2745                 1.2085
 Frc consts  --      1.0238                 1.0527                 1.0587
 IR Inten    --     12.7940                 5.5580                16.1093

                     28                     29                     30
                      A                      A                      A
 Frequencies --   1245.1101              1259.7394              1283.4710
 Red. masses --      1.2545                 1.7842                 1.2256
 Frc consts  --      1.1459                 1.6683                 1.1895
 IR Inten    --     50.9187                31.8699                 3.8378

                     31                     32                     33
                      A                      A                      A
 Frequencies --   1303.2724              1330.9341              1368.9535
 Red. masses --      1.4469                 1.3979                 1.4503
 Frc consts  --      1.4480                 1.4589                 1.6014
 IR Inten    --     17.9408                 2.2365                 0.2097

                     34                     35                     36
                      A                      A                      A
 Frequencies --   1396.4117              1407.8398              1458.0076
 Red. masses --      1.6632                 1.6674                 1.2732
 Frc consts  --      1.9109                 1.9471                 1.5947
 IR Inten    --     10.1244                21.3863                 3.3678

                     37                     38                     39
                      A                      A                      A
 Frequencies --   1458.8517              1472.1633              1518.8746
 Red. masses --      1.2305                 1.0985                 1.0835
 Frc consts  --      1.5429                 1.4027                 1.4727
 IR Inten    --      4.0944                 7.4443                 3.8575

                     40                     41                     42
                      A                      A                      A
 Frequencies --   1681.0655              1778.7205              2955.0369
 Red. masses --      6.6369                11.5027                 1.0590
 Frc consts  --     11.0505                21.4421                 5.4483
 IR Inten    --     17.1632               238.7636                47.0390

                     43                     44                     45
                      A                      A                      A
 Frequencies --   2981.3969              2989.4964              3000.6956
 Red. masses --      1.0723                 1.0982                 1.0700
 Frc consts  --      5.6159                 5.7827                 5.6764
 IR Inten    --     14.8809                39.3574                 8.9229

                     46                     47                     48
                      A                      A                      A
 Frequencies --   3026.5230              3085.0190              3092.1027
 Red. masses --      1.0832                 1.0869                 1.0929
 Frc consts  --      5.8458                 6.0945                 6.1563
 IR Inten    --     45.8943                 9.7890                16.7523

                     49                     50                     51
                      A                      A                      A
 Frequencies --   3148.0793              3188.2836              3835.1670
 Red. masses --      1.0870                 1.0951                 1.0665
 Frc consts  --      6.3471                 6.5585                 9.2420
 IR Inten    --     14.4618                12.5123                26.5149

 - Thermochemistry -
 -------------------
 Temperature   298.150 Kelvin.  Pressure   1.00000 Atm.
 Atom     1 has atomic number  8 and mass  15.99491

 Molecular mass:   126.06808 amu.
 Principal axes and moments of inertia in atomic units:
                           1         2         3
     Eigenvalues --   552.487171715.660872169.26101
           X            0.99961  -0.02741   0.00487
           Y            0.02745   0.99959  -0.00834
           Z           -0.00464   0.00847   0.99995
 This molecule is an asymmetric top.
 Rotational symmetry number  1.
 Warning -- assumption of classical behavior for rotation
           may cause significant error
 Rotational temperatures (Kelvin)      0.15677     0.05048     0.03993
 Rotational constants (GHZ):           3.26658     1.05192     0.83196
 Zero-point vibrational energy     419415.9 (Joules/Mol)
                                  100.24281 (Kcal/Mol)
 Warning -- explicit consideration of  12 degrees of freedom as
           vibrations may cause significant error
 Vibrational temperatures:    120.37   174.60   211.20   286.84   373.54
          (Kelvin)            449.68   502.30   565.68   650.97   675.60
                              769.42   875.90  1019.36  1088.31  1182.50
                             1269.74  1299.75  1378.07  1399.16  1476.61
                             1526.15  1555.57  1557.50  1602.55  1659.66
                             1703.58  1754.44  1791.43  1812.48  1846.63
                             1875.12  1914.91  1969.62  2009.12  2025.56
                             2097.75  2098.96  2118.11  2185.32  2418.68
                             2559.18  4251.63  4289.56  4301.21  4317.33
                             4354.49  4438.65  4448.84  4529.38  4587.22
                             5517.94

 Zero-point correction=                           0.159747 (Hartree/Particle)
 Thermal correction to Energy=                    0.168442
 Thermal correction to Enthalpy=                  0.169386
 Thermal correction to Gibbs Free Energy=         0.126176
 Sum of electronic and zero-point Energies=           -423.061219
 Sum of electronic and thermal Energies=              -423.052524
 Sum of electronic and thermal Enthalpies=            -423.051579
 Sum of electronic and thermal Free Energies=         -423.094790

                     E (Thermal)             CV                S
                      KCal/Mol        Cal/Mol-Kelvin    Cal/Mol-Kelvin
 Total                  105.699             32.600             90.945
 Electronic               0.000              0.000              0.000
 Translational            0.889              2.981             40.409
 Rotational               0.889              2.981             29.110
 Vibrational            103.922             26.638             21.426
 Vibration     1          0.601              1.960              3.803
 Vibration     2          0.609              1.931              3.079
 Vibration     3          0.617              1.906              2.713
 Vibration     4          0.637              1.841              2.139
 Vibration     5          0.668              1.746              1.664
 Vibration     6          0.701              1.650              1.349
 Vibration     7          0.726              1.577              1.170
 Vibration     8          0.760              1.485              0.988
 Vibration     9          0.811              1.355              0.788
 Vibration    10          0.827              1.318              0.739
 Vibration    11          0.890              1.173              0.577
 Vibration    12          0.968              1.013              0.435

 Optimization completed.
    -- Stationary point found.
 Normal termination of Gaussian 09 at Tue Jan 28 12:18:56 2020.
