 Gaussian 09, Revision D.01,
 Gaussian 09:  ES64L-G09RevD.01 24-Apr-2013

 -----------------------------
 # b3lyp 6-31G(2df,p) opt Freq
 -----------------------------

 -----
 titel
 -----
 Symbolic Z-matrix:
 Charge =  0 Multiplicity = 1

 SCF Done:  E(RB3LYP) =  -423.135595483     A.U. after   14 cycles
 Optimization completed.
    -- Stationary point found.
 Normal termination of Gaussian 09 at Tue Jan 28 09:15:39 2020.

 ----------------------------------------------------------------------
 #N Geom=AllCheck Guess=TCheck SCRF=Check GenChk RB3LYP/6-31G(2df,p) Fr
 eq
 ----------------------------------------------------------------------

 Structure from the checkpoint file:  "/scratch/puck/g09_c38fba10-436a-4449-a3e4-fec4d94dec0d/Gau-129701.chk"
 -----
 titel
 -----
 Charge =  0 Multiplicity = 1

                         Standard orientation:
 ---------------------------------------------------------------------
 Center     Atomic      Atomic             Coordinates (Angstroms)
 Number     Number       Type             X           Y           Z
 ---------------------------------------------------------------------
      1          6           0       -2.750371   -0.708212    0.005001
      2          8           0       -1.991255    0.481897    0.000759
      3          6           0       -0.616123    0.319338    0.002530
      4          6           0        0.199949   -0.496484   -1.074237
      5          6           0        1.315908   -0.286565   -0.007017
      6          8           0        2.456070   -1.078558   -0.083086
      7          6           0        0.196942   -0.488999    1.082871
      8          6           0        1.433503    1.250749   -0.009561
      9          6           0        0.158902    1.641499   -0.002001
     10          1           0       -2.557829   -1.314781    0.900988
     11          1           0       -3.801442   -0.411133    0.000545
     12          1           0       -2.553164   -1.324421   -0.883275
     13          1           0       -0.098307   -1.545394   -1.162083
     14          1           0        0.345456   -0.035859   -2.052804
     15          1           0        3.020264   -0.870516    0.669285
     16          1           0       -0.101655   -1.537247    1.178471
     17          1           0        0.339853   -0.017990    2.057971
     18          1           0        2.351867    1.821142   -0.030230
     19          1           0       -0.295815    2.621536   -0.005772
 ---------------------------------------------------------------------

 SCF Done:  E(RB3LYP) =  -423.135595483     A.U. after    1 cycles

 The electronic state is 1-A.
 Alpha  occ. eigenvalues --  -19.14549 -19.14397 -10.24556 -10.24436 -10.22524
 Alpha  occ. eigenvalues --  -10.17993 -10.17957 -10.17874 -10.17771  -1.04129
 Alpha  occ. eigenvalues --   -1.02982  -0.88564  -0.72975  -0.70893  -0.66436
 Alpha  occ. eigenvalues --   -0.62929  -0.55520  -0.54408  -0.52775  -0.47902
 Alpha  occ. eigenvalues --   -0.45603  -0.44528  -0.43632  -0.41675  -0.41426
 Alpha  occ. eigenvalues --   -0.38860  -0.37333  -0.35156  -0.34673  -0.31695
 Alpha  occ. eigenvalues --   -0.30464  -0.26652  -0.24998  -0.22808
 Alpha virt. eigenvalues --    0.00973   0.07920   0.09627   0.11114   0.12982
 Alpha virt. eigenvalues --    0.14148   0.14599   0.15568   0.15804   0.17000
 Alpha virt. eigenvalues --    0.18328   0.19127   0.21095   0.22142   0.23375

 Mulliken charges:
               1
     1  C   -0.261245
     2  O   -0.306680
     3  C    0.414497
     4  C   -0.310727
     5  C    0.372484
     6  O   -0.483249
     7  C   -0.346211
     8  C   -0.186664
     9  C   -0.125906
    10  H    0.111824
    11  H    0.128267
    12  H    0.112854
    13  H    0.098403
    14  H    0.100438
    15  H    0.280160
    16  H    0.096463
    17  H    0.091454
    18  H    0.103183
    19  H    0.110653
 Sum of Mulliken charges =   0.00000

 Dipole moment (field-independent basis, Debye):
    X=              0.1550    Y=             -0.2586    Z=              1.0359  Tot=              1.0789
 Quadrupole moment (field-independent basis, Debye-Ang):
   XX=            -49.6229   YY=            -53.5238   ZZ=            -53.1384
   XY=              5.0293   XZ=              3.8801   YZ=             -1.0830

  Exact polarizability:  90.275   2.546  73.496   1.311  -0.188  63.306
 Approx polarizability: 130.410  -4.222 110.583   1.361   0.446  96.763

                      1                      2                      3
                      A                      A                      A
 Frequencies --     83.4907               191.9415               193.7884
 Red. masses --      2.3657                 1.1728                 3.0751
 Frc consts  --      0.0097                 0.0255                 0.0680
 IR Inten    --      3.3331                 1.9313                 2.4631

                      4                      5                      6
                      A                      A                      A
 Frequencies --    247.6378               293.2230               359.9122
 Red. masses --      1.1890                 3.0112                 3.9649
 Frc consts  --      0.0430                 0.1525                 0.3026
 IR Inten    --     66.1685                28.2648                10.7533

                      7                      8                      9
                      A                      A                      A
 Frequencies --    398.0686               435.8476               473.0454
 Red. masses --      3.4455                 3.5137                 1.8135
 Frc consts  --      0.3217                 0.3933                 0.2391
 IR Inten    --      3.2006                 2.4153                 1.9543

                     10                     11                     12
                      A                      A                      A
 Frequencies --    554.9048               556.7665               588.7749
 Red. masses --      2.3314                 2.3336                 6.3850
 Frc consts  --      0.4230                 0.4262                 1.3041
 IR Inten    --      1.7405                 0.3505                 1.3407

                     13                     14                     15
                      A                      A                      A
 Frequencies --    650.8620               684.8113               699.2919
 Red. masses --      3.7880                 1.5432                 3.3835
 Frc consts  --      0.9454                 0.4264                 0.9748
 IR Inten    --     13.4376                32.6089                 4.8997

                     16                     17                     18
                      A                      A                      A
 Frequencies --    854.1935               872.6945               898.2440
 Red. masses --      3.5414                 4.2110                 1.4421
 Frc consts  --      1.5224                 1.8895                 0.6855
 IR Inten    --      3.4496                 0.6835                 0.5967

                     19                     20                     21
                      A                      A                      A
 Frequencies --    932.6773               938.7209              1017.4842
 Red. masses --      1.8463                 1.9036                 2.2925
 Frc consts  --      0.9463                 0.9883                 1.3983
 IR Inten    --      5.9484                 6.0807                 1.4934

                     22                     23                     24
                      A                      A                      A
 Frequencies --   1037.3159              1040.6842              1055.1712
 Red. masses --      1.5107                 1.2557                 2.0511
 Frc consts  --      0.9577                 0.8013                 1.3455
 IR Inten    --     10.4310                 9.1270                20.4397

                     25                     26                     27
                      A                      A                      A
 Frequencies --   1084.4820              1134.8505              1157.5936
 Red. masses --      2.4380                 2.1957                 1.9114
 Frc consts  --      1.6894                 1.6661                 1.5091
 IR Inten    --     23.4972               104.7960                 3.7943

                     28                     29                     30
                      A                      A                      A
 Frequencies --   1170.6501              1182.6492              1188.0435
 Red. masses --      1.4729                 1.2863                 1.5252
 Frc consts  --      1.1893                 1.0600                 1.2684
 IR Inten    --      1.8363                 2.2163                 4.8328

                     31                     32                     33
                      A                      A                      A
 Frequencies --   1226.7473              1252.5835              1313.3829
 Red. masses --      1.6342                 2.2115                 2.6934
 Frc consts  --      1.4490                 2.0443                 2.7373
 IR Inten    --     33.7853               137.5837                65.2357

                     34                     35                     36
                      A                      A                      A
 Frequencies --   1345.0779              1368.4828              1472.3483
 Red. masses --      2.3719                 2.1055                 1.1115
 Frc consts  --      2.5284                 2.3232                 1.4196
 IR Inten    --    229.3709                 4.1755                 1.3143

                     37                     38                     39
                      A                      A                      A
 Frequencies --   1485.5732              1490.3613              1507.2454
 Red. masses --      1.1768                 1.0473                 1.0595
 Frc consts  --      1.5302                 1.3706                 1.4181
 IR Inten    --      2.0420                 5.2864                11.3745

                     40                     41                     42
                      A                      A                      A
 Frequencies --   1519.7803              1634.8458              2993.8046
 Red. masses --      1.2036                 6.2474                 1.0353
 Frc consts  --      1.6379                 9.8379                 5.4671
 IR Inten    --      0.0925                 0.2436                38.9228

                     43                     44                     45
                      A                      A                      A
 Frequencies --   3043.1248              3051.9652              3061.6612
 Red. masses --      1.0844                 1.0730                 1.0571
 Frc consts  --      5.9167                 5.8888                 5.8380
 IR Inten    --      3.0305                76.2983                31.5303

                     46                     47                     48
                      A                      A                      A
 Frequencies --   3119.6986              3124.4322              3134.2350
 Red. masses --      1.0980                 1.1100                 1.1093
 Frc consts  --      6.2962                 6.3842                 6.4205
 IR Inten    --     30.1333                27.6925                30.9849

                     49                     50                     51
                      A                      A                      A
 Frequencies --   3218.3672              3248.5938              3807.3842
 Red. masses --      1.0870                 1.1106                 1.0658
 Frc consts  --      6.6335                 6.9059                 9.1032
 IR Inten    --      3.3520                 5.6601                23.0864

 - Thermochemistry -
 -------------------
 Temperature   298.150 Kelvin.  Pressure   1.00000 Atm.
 Atom     1 has atomic number  6 and mass  12.00000

 Molecular mass:   126.06808 amu.
 Principal axes and moments of inertia in atomic units:
                           1         2         3
     Eigenvalues --   528.184941379.886011612.78524
           X            0.99919   0.03973   0.00582
           Y           -0.03967   0.99917  -0.00915
           Z           -0.00618   0.00891   0.99994
 This molecule is an asymmetric top.
 Rotational symmetry number  1.
 Warning -- assumption of classical behavior for rotation
           may cause significant error
 Rotational temperatures (Kelvin)      0.16398     0.06277     0.05370
 Rotational constants (GHZ):           3.41687     1.30789     1.11902
 Zero-point vibrational energy     415089.3 (Joules/Mol)
                                   99.20873 (Kcal/Mol)
 Warning -- explicit consideration of  12 degrees of freedom as
           vibrations may cause significant error
 Vibrational temperatures:    120.12   276.16   278.82   356.30   421.88
          (Kelvin)            517.83   572.73   627.09   680.61   798.38
                              801.06   847.11   936.44   985.29  1006.12
                             1228.99  1255.61  1292.37  1341.91  1350.61
                             1463.93  1492.46  1497.31  1518.15  1560.33
                             1632.79  1665.52  1684.30  1701.57  1709.33
                             1765.01  1802.19  1889.66  1935.26  1968.94
                             2118.38  2137.41  2144.29  2168.59  2186.62
                             2352.18  4307.41  4378.37  4391.09  4405.04
                             4488.54  4495.36  4509.46  4630.51  4674.00
                             5477.97

 Zero-point correction=                           0.158099 (Hartree/Particle)
 Thermal correction to Energy=                    0.166455
 Thermal correction to Enthalpy=                  0.167399
 Thermal correction to Gibbs Free Energy=         0.125537
 Sum of electronic and zero-point Energies=           -422.977496
 Sum of electronic and thermal Energies=              -422.969140
 Sum of electronic and thermal Enthalpies=            -422.968196
 Sum of electronic and thermal Free Energies=         -423.010059

                     E (Thermal)             CV                S
                      KCal/Mol        Cal/Mol-Kelvin    Cal/Mol-Kelvin
 Total                  104.452             33.206             88.107
 Electronic               0.000              0.000              0.000
 Translational            0.889              2.981             40.409
 Rotational               0.889              2.981             28.554
 Vibrational            102.675             27.244             19.145
 Vibration     1          0.600              1.961              3.807
 Vibration     2          0.634              1.851              2.209
 Vibration     3          0.635              1.849              2.191
 Vibration     4          0.661              1.767              1.747
 Vibration     5          0.688              1.686              1.455
 Vibration     6          0.734              1.555              1.122
 Vibration     7          0.764              1.474              0.970
 Vibration     8          0.796              1.392              0.840
 Vibration     9          0.830              1.310              0.729
 Vibration    10          0.910              1.129              0.534
 Vibration    11          0.912              1.125              0.530
 Vibration    12          0.946              1.056              0.469

 Normal termination of Gaussian 09 at Tue Jan 28 10:02:56 2020.
