 Gaussian 09, Revision D.01,
 Gaussian 09:  ES64L-G09RevD.01 24-Apr-2013

 -----------------------------
 # b3lyp 6-31G(2df,p) opt Freq
 -----------------------------

 -----
 titel
 -----
 Symbolic Z-matrix:
 Charge =  0 Multiplicity = 1

 SCF Done:  E(RB3LYP) =  -423.132006745     A.U. after   12 cycles
 Optimization completed.
    -- Stationary point found.
 Normal termination of Gaussian 09 at Mon Jan 27 18:47:07 2020.

 ----------------------------------------------------------------------
 #N Geom=AllCheck Guess=TCheck SCRF=Check GenChk RB3LYP/6-31G(2df,p) Fr
 eq
 ----------------------------------------------------------------------

 Structure from the checkpoint file:  "/scratch/puck/g09_ed2539f6-c36f-40be-b100-ea3888517823/Gau-43446.chk"
 -----
 titel
 -----
 Charge =  0 Multiplicity = 1

                         Standard orientation:
 ---------------------------------------------------------------------
 Center     Atomic      Atomic             Coordinates (Angstroms)
 Number     Number       Type             X           Y           Z
 ---------------------------------------------------------------------
      1          6           0       -0.878745    1.934269   -0.497544
      2          6           0       -0.611419    0.554906    0.042826
      3          8           0       -1.773983   -0.003087    0.709168
      4          6           0       -1.719326   -1.215488   -0.075324
      5          6           0       -0.420705   -0.782877   -0.765704
      6          6           0        0.830837   -1.083798    0.075250
      7          8           0        2.029674   -0.579075   -0.542150
      8          6           0        1.993401    0.628428    0.253788
      9          6           0        0.648584    0.239614    0.888190
     10          1           0       -0.018356    2.326777   -1.047066
     11          1           0       -1.741495    1.921231   -1.169822
     12          1           0       -1.103104    2.621060    0.326620
     13          1           0       -1.666554   -2.115718    0.551067
     14          1           0       -2.586962   -1.300472   -0.741741
     15          1           0       -0.329381   -0.868179   -1.847612
     16          1           0        0.960224   -2.087262    0.492231
     17          1           0        2.828935    0.660028    0.964869
     18          1           0        2.022398    1.535382   -0.361930
     19          1           0        0.533004    0.314125    1.968344
 ---------------------------------------------------------------------

 SCF Done:  E(RB3LYP) =  -423.132006745     A.U. after    1 cycles

 The electronic state is 1-A.
 Alpha  occ. eigenvalues --  -19.13515 -19.13279 -10.24273 -10.23661 -10.23379
 Alpha  occ. eigenvalues --  -10.23256 -10.19096 -10.18971 -10.18049  -1.04964
 Alpha  occ. eigenvalues --   -1.03274  -0.81004  -0.75132  -0.71705  -0.67983
 Alpha  occ. eigenvalues --   -0.62083  -0.57307  -0.51566  -0.50750  -0.49239
 Alpha  occ. eigenvalues --   -0.48683  -0.45154  -0.42592  -0.42206  -0.40997
 Alpha  occ. eigenvalues --   -0.40759  -0.38880  -0.35259  -0.33533  -0.30893
 Alpha  occ. eigenvalues --   -0.30700  -0.27716  -0.25807  -0.23694
 Alpha virt. eigenvalues --    0.05994   0.08924   0.09652   0.10664   0.12124
 Alpha virt. eigenvalues --    0.12735   0.13856   0.14480   0.15553   0.16083
 Alpha virt. eigenvalues --    0.18038   0.18526   0.19370   0.19920   0.22202

 Mulliken charges:
               1
     1  C   -0.482877
     2  C    0.449258
     3  O   -0.327770
     4  C   -0.098778
     5  C   -0.166238
     6  C    0.122993
     7  O   -0.294931
     8  C   -0.096595
     9  C   -0.144492
    10  H    0.123573
    11  H    0.126604
    12  H    0.129456
    13  H    0.099791
    14  H    0.103894
    15  H    0.086140
    16  H    0.077169
    17  H    0.104324
    18  H    0.102186
    19  H    0.086292
 Sum of Mulliken charges =   0.00000

 Dipole moment (field-independent basis, Debye):
    X=             -0.1364    Y=              0.3187    Z=             -0.0812  Tot=              0.3560
 Quadrupole moment (field-independent basis, Debye-Ang):
   XX=            -57.9841   YY=            -49.8519   ZZ=            -53.4925
   XY=              3.7207   XZ=              5.4509   YZ=             -0.6903

  Exact polarizability:  80.341   5.124  78.383   4.129  -0.198  63.998
 Approx polarizability: 109.862   5.268 111.042   0.313   2.836 100.005

                      1                      2                      3
                      A                      A                      A
 Frequencies --    105.8259               197.6031               204.2971
 Red. masses --      3.2050                 1.1467                 2.2579
 Frc consts  --      0.0211                 0.0264                 0.0555
 IR Inten    --      4.2673                 0.7240                 0.1465

                      4                      5                      6
                      A                      A                      A
 Frequencies --    246.1016               309.1346               357.9578
 Red. masses --      2.7611                 2.4941                 3.5601
 Frc consts  --      0.0985                 0.1404                 0.2688
 IR Inten    --      1.3106                 2.7877                 4.5791

                      7                      8                      9
                      A                      A                      A
 Frequencies --    383.6124               442.2307               608.6947
 Red. masses --      3.1787                 4.0219                 3.4941
 Frc consts  --      0.2756                 0.4634                 0.7628
 IR Inten    --      7.9128                 0.0889                 0.5325

                     10                     11                     12
                      A                      A                      A
 Frequencies --    666.1029               805.2495               828.0932
 Red. masses --      3.1732                 2.1093                 1.9740
 Frc consts  --      0.8295                 0.8058                 0.7975
 IR Inten    --      0.4698                 0.7156                17.3712

                     13                     14                     15
                      A                      A                      A
 Frequencies --    843.4387               880.1916               897.2747
 Red. masses --      1.9393                 3.3615                 2.0206
 Frc consts  --      0.8128                 1.5344                 0.9585
 IR Inten    --      0.2848                21.0172                 3.3270

                     16                     17                     18
                      A                      A                      A
 Frequencies --    939.2043               970.1597               997.9287
 Red. masses --      2.9675                 2.4152                 1.6177
 Frc consts  --      1.5423                 1.3394                 0.9492
 IR Inten    --      4.6428                11.2124                 2.5486

                     19                     20                     21
                      A                      A                      A
 Frequencies --   1013.6287              1016.5515              1024.1014
 Red. masses --      7.7141                 3.8915                 2.0164
 Frc consts  --      4.6697                 2.3694                 1.2460
 IR Inten    --     71.2619                45.8561                33.7939

                     22                     23                     24
                      A                      A                      A
 Frequencies --   1059.2050              1084.4835              1118.8849
 Red. masses --      2.0876                 2.3128                 2.1888
 Frc consts  --      1.3799                 1.6026                 1.6145
 IR Inten    --      6.0236                26.7406                 9.5039

                     25                     26                     27
                      A                      A                      A
 Frequencies --   1149.3727              1158.2148              1169.6024
 Red. masses --      1.8257                 1.4476                 1.2652
 Frc consts  --      1.4210                 1.1441                 1.0197
 IR Inten    --      6.6270                14.2207                 0.3335

                     28                     29                     30
                      A                      A                      A
 Frequencies --   1179.8716              1190.9288              1237.1701
 Red. masses --      1.8492                 1.7074                 1.6686
 Frc consts  --      1.5167                 1.4268                 1.5047
 IR Inten    --      1.5337                 5.3958                 6.6576

                     31                     32                     33
                      A                      A                      A
 Frequencies --   1254.1305              1272.6736              1311.0946
 Red. masses --      1.7477                 1.7433                 1.6806
 Frc consts  --      1.6196                 1.6636                 1.7021
 IR Inten    --     10.8194                11.3921                 9.2192

                     34                     35                     36
                      A                      A                      A
 Frequencies --   1314.5630              1356.0719              1364.8625
 Red. masses --      2.1060                 1.5187                 1.4934
 Frc consts  --      2.1442                 1.6454                 1.6391
 IR Inten    --     19.7728                 4.2934                 2.9612

                     37                     38                     39
                      A                      A                      A
 Frequencies --   1409.1509              1480.4334              1486.5091
 Red. masses --      1.3717                 1.0516                 1.0547
 Frc consts  --      1.6048                 1.3579                 1.3731
 IR Inten    --     11.9107                 2.3818                 3.1855

                     40                     41                     42
                      A                      A                      A
 Frequencies --   1525.2564              1525.7288              3006.2752
 Red. masses --      1.0985                 1.0963                 1.0550
 Frc consts  --      1.5057                 1.5037                 5.6176
 IR Inten    --      0.5567                 1.7744                95.2669

                     43                     44                     45
                      A                      A                      A
 Frequencies --   3011.7553              3035.3011              3045.9780
 Red. masses --      1.0569                 1.0369                 1.1104
 Frc consts  --      5.6486                 5.6285                 6.0699
 IR Inten    --     67.3338                14.0053                28.8402

                     46                     47                     48
                      A                      A                      A
 Frequencies --   3055.1734              3060.7060              3103.7651
 Red. masses --      1.1074                 1.0884                 1.0993
 Frc consts  --      6.0901                 6.0075                 6.2395
 IR Inten    --     50.5924                59.2424                13.7321

                     49                     50                     51
                      A                      A                      A
 Frequencies --   3117.7211              3124.9069              3128.2285
 Red. masses --      1.1011                 1.0893                 1.0911
 Frc consts  --      6.3060                 6.2670                 6.2908
 IR Inten    --     18.6012                37.8163                 4.3839

 - Thermochemistry -
 -------------------
 Temperature   298.150 Kelvin.  Pressure   1.00000 Atm.
 Atom     1 has atomic number  6 and mass  12.00000

 Molecular mass:   126.06808 amu.
 Principal axes and moments of inertia in atomic units:
                           1         2         3
     Eigenvalues --   620.585331075.695141375.19850
           X            0.99897   0.03280   0.03145
           Y           -0.03182   0.99900  -0.03125
           Z           -0.03245   0.03022   0.99902
 This molecule is an asymmetric top.
 Rotational symmetry number  1.
 Warning -- assumption of classical behavior for rotation
           may cause significant error
 Rotational temperatures (Kelvin)      0.13957     0.08052     0.06298
 Rotational constants (GHZ):           2.90813     1.67774     1.31235
 Zero-point vibrational energy     419144.0 (Joules/Mol)
                                  100.17782 (Kcal/Mol)
 Warning -- explicit consideration of   9 degrees of freedom as
           vibrations may cause significant error
 Vibrational temperatures:    152.26   284.31   293.94   354.08   444.78
          (Kelvin)            515.02   551.93   636.27   875.77   958.37
                             1158.57  1191.44  1213.52  1266.40  1290.98
                             1351.30  1395.84  1435.80  1458.38  1462.59
                             1473.45  1523.96  1560.33  1609.82  1653.69
                             1666.41  1682.79  1697.57  1713.48  1780.01
                             1804.41  1831.09  1886.37  1891.36  1951.08
                             1963.73  2027.45  2130.01  2138.75  2194.50
                             2195.18  4325.35  4333.24  4367.12  4382.48
                             4395.71  4403.67  4465.62  4485.70  4496.04
                             4500.82

 Zero-point correction=                           0.159644 (Hartree/Particle)
 Thermal correction to Energy=                    0.167284
 Thermal correction to Enthalpy=                  0.168229
 Thermal correction to Gibbs Free Energy=         0.127690
 Sum of electronic and zero-point Energies=           -422.972363
 Sum of electronic and thermal Energies=              -422.964722
 Sum of electronic and thermal Enthalpies=            -422.963778
 Sum of electronic and thermal Free Energies=         -423.004317

                     E (Thermal)             CV                S
                      KCal/Mol        Cal/Mol-Kelvin    Cal/Mol-Kelvin
 Total                  104.973             29.978             85.321
 Electronic               0.000              0.000              0.000
 Translational            0.889              2.981             40.409
 Rotational               0.889              2.981             28.309
 Vibrational            103.195             24.017             16.603
 Vibration     1          0.605              1.945              3.344
 Vibration     2          0.637              1.843              2.155
 Vibration     3          0.640              1.834              2.094
 Vibration     4          0.661              1.769              1.758
 Vibration     5          0.698              1.656              1.367
 Vibration     6          0.733              1.559              1.131
 Vibration     7          0.753              1.505              1.025
 Vibration     8          0.802              1.378              0.820
 Vibration     9          0.968              1.013              0.435

 Optimization completed.
    -- Stationary point found.
 Normal termination of Gaussian 09 at Mon Jan 27 19:49:50 2020.
