 Gaussian 09, Revision D.01,
 Gaussian 09:  ES64L-G09RevD.01 24-Apr-2013

 -----------------------------
 # b3lyp 6-31G(2df,p) opt Freq
 -----------------------------

 -----
 titel
 -----
 Symbolic Z-matrix:
 Charge =  0 Multiplicity = 1

 SCF Done:  E(RB3LYP) =  -423.158783087     A.U. after   13 cycles
 Optimization completed.
    -- Stationary point found.
 Normal termination of Gaussian 09 at Mon Jan 27 11:30:35 2020.

 ----------------------------------------------------------------------
 #N Geom=AllCheck Guess=TCheck SCRF=Check GenChk RB3LYP/6-31G(2df,p) Fr
 eq
 ----------------------------------------------------------------------

 Structure from the checkpoint file:  "/scratch/puck/g09_2bb4a58b-47c7-4fd7-a1a9-ae4631ed5346/Gau-61433.chk"
 -----
 titel
 -----
 Charge =  0 Multiplicity = 1

                         Standard orientation:
 ---------------------------------------------------------------------
 Center     Atomic      Atomic             Coordinates (Angstroms)
 Number     Number       Type             X           Y           Z
 ---------------------------------------------------------------------
      1          6           0        1.836530   -0.135531    0.173533
      2          6           0        1.213090    1.277954    0.275714
      3          6           0       -0.305102    1.353307    0.171585
      4          8           0       -0.750589    0.933360   -1.161070
      5          6           0       -1.374657   -0.222719   -0.609803
      6          6           0       -0.371755   -1.348943   -0.187060
      7          6           0        1.065538   -1.154793   -0.688065
      8          8           0       -0.513312   -0.958173    1.219268
      9          6           0       -1.191944    0.237313    0.833304
     10          1           0        2.854929   -0.041889   -0.218185
     11          1           0        1.923030   -0.556714    1.177389
     12          1           0        1.533830    1.752395    1.211116
     13          1           0        1.591019    1.912416   -0.535334
     14          1           0       -0.657501    2.371721    0.372668
     15          1           0       -2.300666   -0.508954   -1.109891
     16          1           0       -0.731862   -2.372543   -0.329361
     17          1           0        1.600364   -2.109871   -0.655142
     18          1           0        1.027762   -0.837508   -1.736100
     19          1           0       -1.959888    0.549915    1.542005
 ---------------------------------------------------------------------

 SCF Done:  E(RB3LYP) =  -423.158783087     A.U. after    1 cycles

 The electronic state is 1-A.
 Alpha  occ. eigenvalues --  -19.13677 -19.13665 -10.23603 -10.23518 -10.23402
 Alpha  occ. eigenvalues --  -10.23281 -10.18316 -10.17983 -10.17854  -1.06778
 Alpha  occ. eigenvalues --   -1.01483  -0.79250  -0.75836  -0.71460  -0.65583
 Alpha  occ. eigenvalues --   -0.65088  -0.55892  -0.53600  -0.50956  -0.49266
 Alpha  occ. eigenvalues --   -0.46646  -0.43685  -0.42947  -0.42558  -0.39675
 Alpha  occ. eigenvalues --   -0.39094  -0.37296  -0.35288  -0.32936  -0.31989
 Alpha  occ. eigenvalues --   -0.31488  -0.28820  -0.25112  -0.24206
 Alpha virt. eigenvalues --    0.06300   0.08669   0.11079   0.11613   0.12338
 Alpha virt. eigenvalues --    0.13334   0.14790   0.15452   0.16142   0.17096
 Alpha virt. eigenvalues --    0.17546   0.18650   0.20380   0.20807   0.22278

 Mulliken charges:
               1
     1  C   -0.191243
     2  C   -0.202454
     3  C    0.067567
     4  O   -0.300340
     5  C    0.061448
     6  C    0.068307
     7  C   -0.227334
     8  O   -0.298442
     9  C    0.051751
    10  H    0.089338
    11  H    0.119229
    12  H    0.100914
    13  H    0.111682
    14  H    0.081033
    15  H    0.086157
    16  H    0.080956
    17  H    0.097098
    18  H    0.115891
    19  H    0.088443
 Sum of Mulliken charges =   0.00000

 Dipole moment (field-independent basis, Debye):
    X=             -0.0868    Y=              0.0984    Z=              0.0562  Tot=              0.1427
 Quadrupole moment (field-independent basis, Debye-Ang):
   XX=            -50.2714   YY=            -51.7087   ZZ=            -56.6098
   XY=              0.5692   XZ=             -0.6175   YZ=              4.9895

  Exact polarizability:  76.475   0.482  77.129  -0.589   4.888  64.654
 Approx polarizability: 102.819   0.441 110.779  -0.007   2.359 105.392

                      1                      2                      3
                      A                      A                      A
 Frequencies --    186.8806               257.0894               294.7889
 Red. masses --      2.1738                 2.1536                 6.0149
 Frc consts  --      0.0447                 0.0839                 0.3080
 IR Inten    --      0.9643                 0.9951                 3.6472

                      4                      5                      6
                      A                      A                      A
 Frequencies --    371.7202               388.6546               514.5176
 Red. masses --      3.8698                 2.6015                 3.8899
 Frc consts  --      0.3150                 0.2315                 0.6067
 IR Inten    --      6.0705                 5.5964                 5.7676

                      7                      8                      9
                      A                      A                      A
 Frequencies --    602.9543               647.4712               699.3755
 Red. masses --      2.9148                 3.2278                 3.2349
 Frc consts  --      0.6243                 0.7973                 0.9323
 IR Inten    --      1.1117                 3.5861                 1.5478

                     10                     11                     12
                      A                      A                      A
 Frequencies --    759.7307               798.4727               818.7943
 Red. masses --      2.8527                 2.9675                 2.1764
 Frc consts  --      0.9701                 1.1147                 0.8597
 IR Inten    --      3.1266                 5.0824                 1.6674

                     13                     14                     15
                      A                      A                      A
 Frequencies --    848.3836               882.7833               895.1757
 Red. masses --      1.8739                 2.4970                 2.5035
 Frc consts  --      0.7946                 1.1465                 1.1820
 IR Inten    --     12.1237                18.6725                34.9794

                     16                     17                     18
                      A                      A                      A
 Frequencies --    913.1729               942.6934               974.2462
 Red. masses --      2.6436                 2.5770                 3.1995
 Frc consts  --      1.2988                 1.3493                 1.7893
 IR Inten    --      9.6128                18.5367                 3.0357

                     19                     20                     21
                      A                      A                      A
 Frequencies --   1026.5336              1037.6221              1058.8195
 Red. masses --      3.7836                 4.2962                 2.0760
 Frc consts  --      2.3491                 2.7253                 1.3713
 IR Inten    --     39.5992                21.9924                20.2347

                     22                     23                     24
                      A                      A                      A
 Frequencies --   1071.9229              1083.1437              1129.9771
 Red. masses --      2.1769                 2.3581                 1.9172
 Frc consts  --      1.4737                 1.6300                 1.4423
 IR Inten    --      9.3223                45.4317                11.0566

                     25                     26                     27
                      A                      A                      A
 Frequencies --   1159.0436              1197.5555              1214.7330
 Red. masses --      1.3312                 1.3580                 1.7637
 Frc consts  --      1.0536                 1.1475                 1.5334
 IR Inten    --      0.5377                 0.3458                 1.9437

                     28                     29                     30
                      A                      A                      A
 Frequencies --   1219.9759              1255.4858              1275.8133
 Red. masses --      1.6500                 1.3031                 1.1858
 Frc consts  --      1.4469                 1.2102                 1.1372
 IR Inten    --      2.6882                 2.2632                 0.1001

                     31                     32                     33
                      A                      A                      A
 Frequencies --   1304.4388              1340.0763              1340.9240
 Red. masses --      1.2849                 1.6055                 1.5772
 Frc consts  --      1.2881                 1.6987                 1.6709
 IR Inten    --      5.0266                 4.9153                 2.8708

                     34                     35                     36
                      A                      A                      A
 Frequencies --   1342.5192              1358.9086              1374.8673
 Red. masses --      1.3804                 1.5591                 1.3596
 Frc consts  --      1.4659                 1.6963                 1.5142
 IR Inten    --      1.8827                 2.5865                 2.2223

                     37                     38                     39
                      A                      A                      A
 Frequencies --   1388.3896              1403.5799              1468.6952
 Red. masses --      1.4276                 1.3631                 1.0795
 Frc consts  --      1.6214                 1.5821                 1.3719
 IR Inten    --      2.8933                 2.1201                 1.3621

                     40                     41                     42
                      A                      A                      A
 Frequencies --   1477.7344              1493.0606              3022.8931
 Red. masses --      1.0875                 1.0936                 1.0653
 Frc consts  --      1.3991                 1.4364                 5.7356
 IR Inten    --      4.2727                 5.2635                 3.8203

                     43                     44                     45
                      A                      A                      A
 Frequencies --   3037.6022              3040.5074              3053.0573
 Red. masses --      1.0646                 1.0799                 1.0681
 Frc consts  --      5.7873                 5.8819                 5.8661
 IR Inten    --      3.4512                78.8865                55.7442

                     46                     47                     48
                      A                      A                      A
 Frequencies --   3059.2292              3062.2960              3081.8799
 Red. masses --      1.0838                 1.1003                 1.1032
 Frc consts  --      5.9763                 6.0794                 6.1738
 IR Inten    --     41.9356                10.6803                21.3231

                     49                     50                     51
                      A                      A                      A
 Frequencies --   3099.3785              3108.3600              3113.0315
 Red. masses --      1.0873                 1.0985                 1.0947
 Frc consts  --      6.1538                 6.2533                 6.2504
 IR Inten    --     48.0821                27.0889                55.2167

 - Thermochemistry -
 -------------------
 Temperature   298.150 Kelvin.  Pressure   1.00000 Atm.
 Atom     1 has atomic number  6 and mass  12.00000

 Molecular mass:   126.06808 amu.
 Principal axes and moments of inertia in atomic units:
                           1         2         3
     Eigenvalues --   750.39172 834.748251044.17574
           X            0.99960   0.02718  -0.00725
           Y           -0.02624   0.99380   0.10804
           Z            0.01015  -0.10781   0.99412
 This molecule is an asymmetric top.
 Rotational symmetry number  1.
 Warning -- assumption of classical behavior for rotation
           may cause significant error
 Rotational temperatures (Kelvin)      0.11542     0.10376     0.08295
 Rotational constants (GHZ):           2.40507     2.16202     1.72839
 Zero-point vibrational energy     427658.7 (Joules/Mol)
                                  102.21289 (Kcal/Mol)
 Warning -- explicit consideration of   7 degrees of freedom as
           vibrations may cause significant error
 Vibrational temperatures:    268.88   369.89   424.13   534.82   559.19
          (Kelvin)            740.28   867.52   931.57  1006.24  1093.08
                             1148.82  1178.06  1220.63  1270.13  1287.96
                             1313.85  1356.32  1401.72  1476.95  1492.90
                             1523.40  1542.26  1558.40  1625.78  1667.60
                             1723.01  1747.73  1755.27  1806.36  1835.61
                             1876.79  1928.07  1929.29  1931.58  1955.16
                             1978.12  1997.58  2019.44  2113.12  2126.13
                             2148.18  4349.26  4370.43  4374.61  4392.66
                             4401.54  4405.96  4434.13  4459.31  4472.23
                             4478.95

 Zero-point correction=                           0.162887 (Hartree/Particle)
 Thermal correction to Energy=                    0.169394
 Thermal correction to Enthalpy=                  0.170338
 Thermal correction to Gibbs Free Energy=         0.132362
 Sum of electronic and zero-point Energies=           -422.995896
 Sum of electronic and thermal Energies=              -422.989389
 Sum of electronic and thermal Enthalpies=            -422.988445
 Sum of electronic and thermal Free Energies=         -423.026421

                     E (Thermal)             CV                S
                      KCal/Mol        Cal/Mol-Kelvin    Cal/Mol-Kelvin
 Total                  106.297             27.461             79.928
 Electronic               0.000              0.000              0.000
 Translational            0.889              2.981             40.409
 Rotational               0.889              2.981             27.972
 Vibrational            104.519             21.500             11.547
 Vibration     1          0.632              1.858              2.259
 Vibration     2          0.667              1.751              1.681
 Vibration     3          0.689              1.683              1.446
 Vibration     4          0.743              1.530              1.073
 Vibration     5          0.757              1.494              1.005
 Vibration     6          0.870              1.218              0.623
 Vibration     7          0.961              1.026              0.445

 Optimization completed.
    -- Stationary point found.
 Normal termination of Gaussian 09 at Mon Jan 27 13:56:28 2020.
