 Gaussian 09, Revision D.01,
 Gaussian 09:  ES64L-G09RevD.01 24-Apr-2013

 -----------------------------
 # b3lyp 6-31G(2df,p) opt Freq
 -----------------------------

 -----
 titel
 -----
 Symbolic Z-matrix:
 Charge =  0 Multiplicity = 1

 SCF Done:  E(RB3LYP) =  -423.144600611     A.U. after   13 cycles
 Optimization completed.
    -- Stationary point found.
 Normal termination of Gaussian 09 at Mon Jan 27 11:29:38 2020.

 ----------------------------------------------------------------------
 #N Geom=AllCheck Guess=TCheck SCRF=Check GenChk RB3LYP/6-31G(2df,p) Fr
 eq
 ----------------------------------------------------------------------

 Structure from the checkpoint file:  "/scratch/puck/g09_311436c6-ebc6-43d9-a9b8-cdbb09d2171d/Gau-61435.chk"
 -----
 titel
 -----
 Charge =  0 Multiplicity = 1

                         Standard orientation:
 ---------------------------------------------------------------------
 Center     Atomic      Atomic             Coordinates (Angstroms)
 Number     Number       Type             X           Y           Z
 ---------------------------------------------------------------------
      1          6           0        2.242865   -0.076908    0.203309
      2          6           0        1.195173    0.843590   -0.385906
      3          6           0        0.192391    1.487211    0.549261
      4          8           0       -1.164562    1.496578    0.106087
      5          6           0       -1.671961    0.397528   -0.617510
      6          6           0       -1.331991   -1.012131   -0.125468
      7          8           0       -0.585983   -1.161129    1.084910
      8          6           0        0.051535   -1.513500   -0.149571
      9          6           0        1.152763   -0.644198   -0.666556
     10          1           0        3.253070   -0.044499   -0.188776
     11          1           0        2.176312   -0.267234    1.269563
     12          1           0        1.506825    1.460782   -1.223559
     13          1           0        0.245557    1.008153    1.530229
     14          1           0        0.447343    2.545513    0.675149
     15          1           0       -2.758972    0.525996   -0.586169
     16          1           0       -1.374461    0.451780   -1.678787
     17          1           0       -2.144581   -1.732215   -0.237628
     18          1           0        0.213594   -2.586572   -0.263054
     19          1           0        1.455020   -0.934848   -1.670305
 ---------------------------------------------------------------------

 SCF Done:  E(RB3LYP) =  -423.144600611     A.U. after    1 cycles

 The electronic state is 1-A.
 Alpha  occ. eigenvalues --  -19.15443 -19.13060 -10.23901 -10.23686 -10.23054
 Alpha  occ. eigenvalues --  -10.22001 -10.20034 -10.19457 -10.19158  -1.07545
 Alpha  occ. eigenvalues --   -1.01763  -0.86678  -0.74900  -0.68840  -0.68256
 Alpha  occ. eigenvalues --   -0.60393  -0.57538  -0.55905  -0.52573  -0.49481
 Alpha  occ. eigenvalues --   -0.47153  -0.46222  -0.43933  -0.43592  -0.39151
 Alpha  occ. eigenvalues --   -0.38279  -0.38141  -0.36766  -0.33720  -0.30700
 Alpha  occ. eigenvalues --   -0.28653  -0.27913  -0.27034  -0.23760
 Alpha virt. eigenvalues --    0.08149   0.08549   0.10006   0.10702   0.11739
 Alpha virt. eigenvalues --    0.13093   0.14637   0.15332   0.16352   0.17089
 Alpha virt. eigenvalues --    0.17422   0.18160   0.20136   0.20801   0.23550

 Mulliken charges:
               1
     1  C   -0.311050
     2  C   -0.070294
     3  C   -0.063606
     4  O   -0.264697
     5  C   -0.106173
     6  C    0.031486
     7  O   -0.244477
     8  C    0.022927
     9  C   -0.024977
    10  H    0.114298
    11  H    0.128566
    12  H    0.090165
    13  H    0.114580
    14  H    0.100356
    15  H    0.113061
    16  H    0.093514
    17  H    0.093487
    18  H    0.091629
    19  H    0.091204
 Sum of Mulliken charges =   0.00000

 Dipole moment (field-independent basis, Debye):
    X=              0.9887    Y=             -0.9680    Z=             -1.8999  Tot=              2.3503
 Quadrupole moment (field-independent basis, Debye-Ang):
   XX=            -50.2582   YY=            -53.9389   ZZ=            -53.7581
   XY=              2.7698   XZ=              1.2739   YZ=              1.8938

  Exact polarizability:  85.183   0.988  74.360   2.425   1.904  63.091
 Approx polarizability: 116.725  -1.527 106.391   3.205   2.572 102.839

                      1                      2                      3
                      A                      A                      A
 Frequencies --    117.4739               197.0290               219.3767
 Red. masses --      2.9206                 3.2680                 2.8145
 Frc consts  --      0.0237                 0.0747                 0.0798
 IR Inten    --      4.3840                 0.2420                 3.3179

                      4                      5                      6
                      A                      A                      A
 Frequencies --    273.6403               319.6091               393.9716
 Red. masses --      4.7371                 4.0931                 2.7481
 Frc consts  --      0.2090                 0.2463                 0.2513
 IR Inten    --      1.2163                 2.5184                 0.1660

                      7                      8                      9
                      A                      A                      A
 Frequencies --    479.3894               512.0454               662.0926
 Red. masses --      3.4603                 3.5170                 3.3408
 Frc consts  --      0.4685                 0.5433                 0.8629
 IR Inten    --      2.1021                 8.2725                 2.4478

                     10                     11                     12
                      A                      A                      A
 Frequencies --    674.7833               762.7975               776.2779
 Red. masses --      3.4436                 2.8125                 3.2849
 Frc consts  --      0.9238                 0.9642                 1.1663
 IR Inten    --     22.7810                 4.3988                 3.2149

                     13                     14                     15
                      A                      A                      A
 Frequencies --    835.4643               848.7913               902.3305
 Red. masses --      2.4770                 1.4292                 3.2437
 Frc consts  --      1.0187                 0.6066                 1.5560
 IR Inten    --      0.0760                 0.5729                19.1263

                     16                     17                     18
                      A                      A                      A
 Frequencies --    910.8916               952.6638               968.7423
 Red. masses --      2.4791                 2.1380                 2.6696
 Frc consts  --      1.2119                 1.1433                 1.4761
 IR Inten    --     16.3502                10.0228                21.7289

                     19                     20                     21
                      A                      A                      A
 Frequencies --    993.5859              1046.3401              1060.1298
 Red. masses --      2.2086                 2.3124                 2.4277
 Frc consts  --      1.2846                 1.4916                 1.6076
 IR Inten    --      8.6845                15.7294                 4.2794

                     22                     23                     24
                      A                      A                      A
 Frequencies --   1072.1232              1097.2699              1129.5675
 Red. masses --      1.3972                 1.5833                 1.7037
 Frc consts  --      0.9463                 1.1232                 1.2808
 IR Inten    --      7.9945                13.7627                13.7529

                     25                     26                     27
                      A                      A                      A
 Frequencies --   1132.5794              1137.7889              1178.5796
 Red. masses --      1.3436                 1.2814                 1.6389
 Frc consts  --      1.0154                 0.9774                 1.3413
 IR Inten    --      1.0384                 1.8271                 0.9088

                     28                     29                     30
                      A                      A                      A
 Frequencies --   1183.0624              1226.3952              1266.8603
 Red. masses --      3.7732                 1.4573                 1.1962
 Frc consts  --      3.1116                 1.2914                 1.1311
 IR Inten    --     88.5420                 6.7670                 3.2745

                     31                     32                     33
                      A                      A                      A
 Frequencies --   1299.1192              1319.2310              1362.2526
 Red. masses --      1.2098                 1.1800                 1.2807
 Frc consts  --      1.2030                 1.2100                 1.4003
 IR Inten    --      7.7027                 4.1820                 7.3083

                     34                     35                     36
                      A                      A                      A
 Frequencies --   1389.7883              1409.3235              1415.9768
 Red. masses --      1.3911                 1.3565                 1.5384
 Frc consts  --      1.5831                 1.5874                 1.8173
 IR Inten    --      1.2326                 3.1809                 1.1633

                     37                     38                     39
                      A                      A                      A
 Frequencies --   1436.6122              1470.5095              1488.5479
 Red. masses --      1.4959                 2.8747                 1.3979
 Frc consts  --      1.8190                 3.6625                 1.8249
 IR Inten    --     11.3629                12.1054                 0.4798

                     40                     41                     42
                      A                      A                      A
 Frequencies --   1499.6670              1507.1360              2956.4287
 Red. masses --      1.0823                 1.1562                 1.0723
 Frc consts  --      1.4341                 1.5474                 5.5218
 IR Inten    --      1.0201                 3.5449                58.6903

                     43                     44                     45
                      A                      A                      A
 Frequencies --   3041.1052              3063.0054              3084.4989
 Red. masses --      1.0612                 1.0886                 1.1022
 Frc consts  --      5.7824                 6.0174                 6.1783
 IR Inten    --     52.3075                20.7678                16.9434

                     46                     47                     48
                      A                      A                      A
 Frequencies --   3088.4655              3100.5304              3130.4765
 Red. masses --      1.0846                 1.0913                 1.0833
 Frc consts  --      6.0952                 6.1813                 6.2550
 IR Inten    --     27.4729                60.4673                17.0904

                     49                     50                     51
                      A                      A                      A
 Frequencies --   3133.7010              3148.3094              3221.6276
 Red. masses --      1.0575                 1.0900                 1.1168
 Frc consts  --      6.1185                 6.3658                 6.8295
 IR Inten    --     14.6625                18.7324                 9.3009

 - Thermochemistry -
 -------------------
 Temperature   298.150 Kelvin.  Pressure   1.00000 Atm.
 Atom     1 has atomic number  6 and mass  12.00000

 Molecular mass:   126.06808 amu.
 Principal axes and moments of inertia in atomic units:
                           1         2         3
     Eigenvalues --   740.19660 920.132361323.01998
           X            0.99860   0.04979   0.01785
           Y           -0.05021   0.99844   0.02427
           Z           -0.01661  -0.02513   0.99955
 This molecule is an asymmetric top.
 Rotational symmetry number  1.
 Warning -- assumption of classical behavior for rotation
           may cause significant error
 Rotational temperatures (Kelvin)      0.11701     0.09413     0.06547
 Rotational constants (GHZ):           2.43819     1.96139     1.36411
 Zero-point vibrational energy     424064.0 (Joules/Mol)
                                  101.35373 (Kcal/Mol)
 Warning -- explicit consideration of   8 degrees of freedom as
           vibrations may cause significant error
 Vibrational temperatures:    169.02   283.48   315.63   393.71   459.85
          (Kelvin)            566.84   689.73   736.72   952.60   970.86
                             1097.49  1116.89  1202.05  1221.22  1298.25
                             1310.57  1370.67  1393.80  1429.55  1505.45
                             1525.29  1542.54  1578.72  1625.19  1629.53
                             1637.02  1695.71  1702.16  1764.51  1822.73
                             1869.14  1898.08  1959.98  1999.59  2027.70
                             2037.27  2066.96  2115.73  2141.69  2157.68
                             2168.43  4253.64  4375.47  4406.98  4437.90
                             4443.61  4460.97  4504.05  4508.69  4529.71
                             4635.20

 Zero-point correction=                           0.161517 (Hartree/Particle)
 Thermal correction to Energy=                    0.168881
 Thermal correction to Enthalpy=                  0.169825
 Thermal correction to Gibbs Free Energy=         0.129881
 Sum of electronic and zero-point Energies=           -422.983083
 Sum of electronic and thermal Energies=              -422.975720
 Sum of electronic and thermal Enthalpies=            -422.974775
 Sum of electronic and thermal Free Energies=         -423.014719

                     E (Thermal)             CV                S
                      KCal/Mol        Cal/Mol-Kelvin    Cal/Mol-Kelvin
 Total                  105.974             29.380             84.069
 Electronic               0.000              0.000              0.000
 Translational            0.889              2.981             40.409
 Rotational               0.889              2.981             28.290
 Vibrational            104.197             23.419             15.371
 Vibration     1          0.608              1.935              3.142
 Vibration     2          0.636              1.844              2.161
 Vibration     3          0.647              1.812              1.964
 Vibration     4          0.676              1.722              1.573
 Vibration     5          0.706              1.636              1.312
 Vibration     6          0.761              1.483              0.985
 Vibration     7          0.836              1.296              0.712
 Vibration     8          0.867              1.223              0.629

 Optimization completed.
    -- Stationary point found.
 Normal termination of Gaussian 09 at Mon Jan 27 13:50:18 2020.
