 Gaussian 09, Revision D.01,
 Gaussian 09:  ES64L-G09RevD.01 24-Apr-2013

 -----------------------------
 # b3lyp 6-31G(2df,p) opt Freq
 -----------------------------

 -----
 titel
 -----
 Symbolic Z-matrix:
 Charge =  0 Multiplicity = 1

 SCF Done:  E(RB3LYP) =  -423.163976016     A.U. after   13 cycles
 Optimization completed.
    -- Stationary point found.
 Normal termination of Gaussian 09 at Mon Jan 27 12:18:56 2020.

 ----------------------------------------------------------------------
 #N Geom=AllCheck Guess=TCheck SCRF=Check GenChk RB3LYP/6-31G(2df,p) Fr
 eq
 ----------------------------------------------------------------------

 Structure from the checkpoint file:  "/scratch/puck/g09_6e3318cb-161d-4194-8d53-e5f2ac4dc167/Gau-167160.chk"
 -----
 titel
 -----
 Charge =  0 Multiplicity = 1

                         Standard orientation:
 ---------------------------------------------------------------------
 Center     Atomic      Atomic             Coordinates (Angstroms)
 Number     Number       Type             X           Y           Z
 ---------------------------------------------------------------------
      1          6           0        2.281688   -0.004345   -0.086265
      2          6           0        1.460718   -1.147628    0.595704
      3          6           0        0.187242   -0.513909    0.049680
      4          8           0       -0.875789   -1.324045   -0.355426
      5          6           0       -1.988597   -0.458585   -0.450708
      6          8           0       -1.852958    0.519530    0.561323
      7          6           0       -0.462208    0.702660    0.772832
      8          6           0        0.270212    1.685591   -0.191610
      9          6           0        1.012001    0.493287   -0.846979
     10          1           0        2.693005    0.731594    0.609941
     11          1           0        3.090686   -0.353769   -0.729881
     12          1           0        1.646180   -2.116763    0.125350
     13          1           0        1.535950   -1.263215    1.680714
     14          1           0       -2.016462    0.014374   -1.448097
     15          1           0       -2.905471   -1.028785   -0.279202
     16          1           0       -0.296126    0.839263    1.844431
     17          1           0       -0.434678    2.187873   -0.859415
     18          1           0        0.897464    2.442534    0.288159
     19          1           0        1.053095    0.440590   -1.935104
 ---------------------------------------------------------------------

 SCF Done:  E(RB3LYP) =  -423.163976016     A.U. after    1 cycles

 The electronic state is 1-A.
 Alpha  occ. eigenvalues --  -19.15224 -19.14677 -10.27449 -10.23300 -10.23031
 Alpha  occ. eigenvalues --  -10.18778 -10.18490 -10.18472 -10.18150  -1.09067
 Alpha  occ. eigenvalues --   -0.99842  -0.86730  -0.75359  -0.71043  -0.63467
 Alpha  occ. eigenvalues --   -0.62355  -0.59890  -0.53924  -0.51370  -0.49939
 Alpha  occ. eigenvalues --   -0.47967  -0.45017  -0.43923  -0.42770  -0.39670
 Alpha  occ. eigenvalues --   -0.37933  -0.36185  -0.35618  -0.33562  -0.32810
 Alpha  occ. eigenvalues --   -0.31521  -0.28484  -0.25481  -0.24560
 Alpha virt. eigenvalues --    0.07872   0.08718   0.09918   0.11287   0.12116
 Alpha virt. eigenvalues --    0.14548   0.15152   0.15501   0.16136   0.17343
 Alpha virt. eigenvalues --    0.17709   0.19050   0.20430   0.20765   0.21676

 Mulliken charges:
               1
     1  C   -0.227865
     2  C   -0.319338
     3  C    0.437702
     4  O   -0.287373
     5  C   -0.005953
     6  O   -0.261419
     7  C    0.041195
     8  C   -0.267569
     9  C   -0.110118
    10  H    0.102190
    11  H    0.109086
    12  H    0.117054
    13  H    0.101063
    14  H    0.088153
    15  H    0.121334
    16  H    0.083156
    17  H    0.109333
    18  H    0.098835
    19  H    0.070535
 Sum of Mulliken charges =   0.00000

 Dipole moment (field-independent basis, Debye):
    X=              1.1263    Y=              0.4582    Z=             -0.4190  Tot=              1.2861
 Quadrupole moment (field-independent basis, Debye-Ang):
   XX=            -52.4469   YY=            -55.1024   ZZ=            -52.0826
   XY=              0.8569   XZ=              2.3925   YZ=             -0.4670

  Exact polarizability:  84.105   1.174  71.343   2.449  -0.854  66.574
 Approx polarizability: 112.271   2.331 104.936   1.835   0.897 101.661

                      1                      2                      3
                      A                      A                      A
 Frequencies --     89.1073               201.0756               220.3432
 Red. masses --      2.6169                 2.3095                 2.4385
 Frc consts  --      0.0122                 0.0550                 0.0698
 IR Inten    --      0.3453                 3.8655                 0.7772

                      4                      5                      6
                      A                      A                      A
 Frequencies --    324.7845               402.2467               438.6884
 Red. masses --      2.9485                 3.6169                 1.8990
 Frc consts  --      0.1833                 0.3448                 0.2153
 IR Inten    --      0.1601                 5.8806                 0.8652

                      7                      8                      9
                      A                      A                      A
 Frequencies --    470.8136               633.6719               701.3241
 Red. masses --      4.9522                 3.3417                 2.3434
 Frc consts  --      0.6468                 0.7906                 0.6791
 IR Inten    --      3.5587                 4.0149                 1.7879

                     10                     11                     12
                      A                      A                      A
 Frequencies --    735.6479               765.8765               796.5366
 Red. masses --      4.6638                 1.6619                 2.5701
 Frc consts  --      1.4871                 0.5743                 0.9608
 IR Inten    --      0.0664                 0.9710                 4.4401

                     13                     14                     15
                      A                      A                      A
 Frequencies --    852.4687               870.4930               891.2271
 Red. masses --      2.3137                 2.2674                 2.2195
 Frc consts  --      0.9906                 1.0123                 1.0387
 IR Inten    --     16.5127                 2.3412                 3.5885

                     16                     17                     18
                      A                      A                      A
 Frequencies --    924.5291               965.3991               972.6723
 Red. masses --      2.3004                 2.0338                 4.7139
 Frc consts  --      1.1585                 1.1168                 2.6276
 IR Inten    --      1.5086                 0.9901                70.4168

                     19                     20                     21
                      A                      A                      A
 Frequencies --   1015.4773              1027.8201              1072.8399
 Red. masses --      2.3159                 2.5440                 4.5072
 Frc consts  --      1.4071                 1.5834                 3.0565
 IR Inten    --      8.7662                 2.9341                29.6444

                     22                     23                     24
                      A                      A                      A
 Frequencies --   1078.8847              1099.5888              1132.6545
 Red. masses --      1.9651                 1.8295                 3.1148
 Frc consts  --      1.3477                 1.3033                 2.3544
 IR Inten    --     10.1470                41.1354                63.9330

                     25                     26                     27
                      A                      A                      A
 Frequencies --   1167.0519              1185.5662              1194.2579
 Red. masses --      1.6998                 1.7229                 1.4964
 Frc consts  --      1.3641                 1.4268                 1.2574
 IR Inten    --     14.8183                47.6973                13.1332

                     28                     29                     30
                      A                      A                      A
 Frequencies --   1217.5405              1224.8170              1234.1676
 Red. masses --      1.5843                 1.3102                 1.4111
 Frc consts  --      1.3837                 1.1580                 1.2664
 IR Inten    --     33.2511                10.4334                 5.0449

                     31                     32                     33
                      A                      A                      A
 Frequencies --   1244.7727              1270.6334              1288.6825
 Red. masses --      1.2911                 1.5426                 1.8651
 Frc consts  --      1.1786                 1.4673                 1.8249
 IR Inten    --      8.4111                 8.1273                39.5701

                     34                     35                     36
                      A                      A                      A
 Frequencies --   1293.6746              1312.2370              1353.3515
 Red. masses --      1.5214                 2.5079                 1.2868
 Frc consts  --      1.5002                 2.5444                 1.3887
 IR Inten    --      7.5243                20.2055                11.8127

                     37                     38                     39
                      A                      A                      A
 Frequencies --   1431.0723              1469.3155              1477.9698
 Red. masses --      1.3158                 1.0995                 1.0929
 Frc consts  --      1.5877                 1.3986                 1.4066
 IR Inten    --      8.3829                 2.6345                 2.1723

                     40                     41                     42
                      A                      A                      A
 Frequencies --   1495.1407              1542.3165              2948.0237
 Red. masses --      1.1308                 1.1037                 1.0704
 Frc consts  --      1.4894                 1.5469                 5.4808
 IR Inten    --      5.5585                 2.4809                86.2721

                     43                     44                     45
                      A                      A                      A
 Frequencies --   3053.4614              3055.0070              3064.0449
 Red. masses --      1.0596                 1.0586                 1.0616
 Frc consts  --      5.8205                 5.8210                 5.8719
 IR Inten    --     34.5324                28.5266                33.4376

                     46                     47                     48
                      A                      A                      A
 Frequencies --   3075.2866              3093.8833              3101.1689
 Red. masses --      1.0879                 1.0950                 1.0993
 Frc consts  --      6.0622                 6.1757                 6.2288
 IR Inten    --     37.2165                50.9285                 7.4782

                     49                     50                     51
                      A                      A                      A
 Frequencies --   3106.6682              3112.4214              3125.4398
 Red. masses --      1.1031                 1.1026                 1.1043
 Frc consts  --      6.2728                 6.2930                 6.3555
 IR Inten    --     11.2060                13.5579                49.7023

 - Thermochemistry -
 -------------------
 Temperature   298.150 Kelvin.  Pressure   1.00000 Atm.
 Atom     1 has atomic number  6 and mass  12.00000

 Molecular mass:   126.06808 amu.
 Principal axes and moments of inertia in atomic units:
                           1         2         3
     Eigenvalues --   572.723661069.702021328.43050
           X            0.99983   0.00036   0.01839
           Y            0.00012   0.99966  -0.02611
           Z           -0.01839   0.02611   0.99949
 This molecule is an asymmetric top.
 Rotational symmetry number  1.
 Warning -- assumption of classical behavior for rotation
           may cause significant error
 Rotational temperatures (Kelvin)      0.15123     0.08097     0.06520
 Rotational constants (GHZ):           3.15116     1.68714     1.35855
 Zero-point vibrational energy     423610.5 (Joules/Mol)
                                  101.24534 (Kcal/Mol)
 Warning -- explicit consideration of   7 degrees of freedom as
           vibrations may cause significant error
 Vibrational temperatures:    128.21   289.30   317.02   467.29   578.74
          (Kelvin)            631.17   677.39   911.71  1009.05  1058.43
                             1101.92  1146.04  1226.51  1252.44  1282.28
                             1330.19  1388.99  1399.46  1461.04  1478.80
                             1543.58  1552.27  1582.06  1629.64  1679.13
                             1705.76  1718.27  1751.77  1762.24  1775.69
                             1790.95  1828.16  1854.12  1861.31  1888.01
                             1947.17  2058.99  2114.01  2126.47  2151.17
                             2219.05  4241.54  4393.24  4395.47  4408.47
                             4424.65  4451.40  4461.88  4469.80  4478.07
                             4496.81

 Zero-point correction=                           0.161345 (Hartree/Particle)
 Thermal correction to Energy=                    0.168439
 Thermal correction to Enthalpy=                  0.169383
 Thermal correction to Gibbs Free Energy=         0.129809
 Sum of electronic and zero-point Energies=           -423.002631
 Sum of electronic and thermal Energies=              -422.995537
 Sum of electronic and thermal Enthalpies=            -422.994593
 Sum of electronic and thermal Free Energies=         -423.034167

                     E (Thermal)             CV                S
                      KCal/Mol        Cal/Mol-Kelvin    Cal/Mol-Kelvin
 Total                  105.697             28.563             83.290
 Electronic               0.000              0.000              0.000
 Translational            0.889              2.981             40.409
 Rotational               0.889              2.981             28.189
 Vibrational            103.920             22.601             14.693
 Vibration     1          0.602              1.957              3.680
 Vibration     2          0.638              1.838              2.123
 Vibration     3          0.647              1.810              1.956
 Vibration     4          0.709              1.626              1.286
 Vibration     5          0.768              1.465              0.954
 Vibration     6          0.799              1.386              0.831
 Vibration     7          0.828              1.315              0.735

 Optimization completed.
    -- Stationary point found.
 Normal termination of Gaussian 09 at Mon Jan 27 13:06:14 2020.
