 Gaussian 09, Revision D.01,
 Gaussian 09:  ES64L-G09RevD.01 24-Apr-2013

 -----------------------------
 # b3lyp 6-31G(2df,p) opt Freq
 -----------------------------

 -----
 titel
 -----
 Symbolic Z-matrix:
 Charge =  0 Multiplicity = 1

 SCF Done:  E(RB3LYP) =  -423.183159550     A.U. after   14 cycles
 Optimization completed.
    -- Stationary point found.
 Normal termination of Gaussian 09 at Mon Jan 27 13:54:58 2020.

 ----------------------------------------------------------------------
 #N Geom=AllCheck Guess=TCheck SCRF=Check GenChk RB3LYP/6-31G(2df,p) Fr
 eq
 ----------------------------------------------------------------------

 Structure from the checkpoint file:  "/scratch/puck/g09_353fbafc-9c64-4a25-90bc-a5a79ac12bce/Gau-137690.chk"
 -----
 titel
 -----
 Charge =  0 Multiplicity = 1

                         Standard orientation:
 ---------------------------------------------------------------------
 Center     Atomic      Atomic             Coordinates (Angstroms)
 Number     Number       Type             X           Y           Z
 ---------------------------------------------------------------------
      1          8           0        3.066432   -0.370421    0.224037
      2          6           0        2.081169   -0.648762   -0.406613
      3          6           0        0.817493   -1.243165    0.180026
      4          6           0       -0.433155   -0.390689   -0.149489
      5          6           0       -1.670099   -1.124570    0.344181
      6          8           0       -2.502679   -1.623235   -0.366460
      7          6           0       -0.365692    0.989115    0.485139
      8          6           0        0.232511    2.153969   -0.266127
      9          6           0       -1.253516    2.100433   -0.018169
     10          1           0        2.039277   -0.490489   -1.509564
     11          1           0        0.691396   -2.244293   -0.256000
     12          1           0        0.953317   -1.352837    1.260447
     13          1           0       -0.536032   -0.299749   -1.237260
     14          1           0       -1.755816   -1.173311    1.455458
     15          1           0       -0.181199    0.972665    1.556629
     16          1           0        0.827595    2.867770    0.291689
     17          1           0        0.581211    1.982887   -1.279195
     18          1           0       -1.682171    2.783343    0.706292
     19          1           0       -1.899869    1.885273   -0.862801
 ---------------------------------------------------------------------

 SCF Done:  E(RB3LYP) =  -423.183159550     A.U. after    1 cycles

 The electronic state is 1-A.
 Alpha  occ. eigenvalues --  -19.14834 -19.14801 -10.28137 -10.27863 -10.21784
 Alpha  occ. eigenvalues --  -10.21126 -10.21122 -10.20014 -10.19856  -1.05573
 Alpha  occ. eigenvalues --   -1.05501  -0.87902  -0.80941  -0.70869  -0.61539
 Alpha  occ. eigenvalues --   -0.60535  -0.58745  -0.58022  -0.50702  -0.49705
 Alpha  occ. eigenvalues --   -0.47612  -0.46100  -0.44892  -0.43779  -0.42217
 Alpha  occ. eigenvalues --   -0.40473  -0.38462  -0.37693  -0.37124  -0.35764
 Alpha  occ. eigenvalues --   -0.31201  -0.30349  -0.26673  -0.24947
 Alpha virt. eigenvalues --   -0.03610  -0.02213   0.07372   0.08834   0.10362
 Alpha virt. eigenvalues --    0.11596   0.12215   0.13761   0.14294   0.14965
 Alpha virt. eigenvalues --    0.16075   0.16852   0.19378   0.21599   0.21825

 Mulliken charges:
               1
     1  O   -0.236418
     2  C    0.171703
     3  C   -0.303562
     4  C   -0.111852
     5  C    0.164907
     6  O   -0.247530
     7  C    0.017071
     8  C   -0.269390
     9  C   -0.279454
    10  H    0.075951
    11  H    0.132756
    12  H    0.125094
    13  H    0.096528
    14  H    0.076261
    15  H    0.096624
    16  H    0.127086
    17  H    0.117560
    18  H    0.120732
    19  H    0.125933
 Sum of Mulliken charges =   0.00000

 Dipole moment (field-independent basis, Debye):
    X=             -0.2985    Y=              0.9307    Z=              0.2120  Tot=              1.0001
 Quadrupole moment (field-independent basis, Debye-Ang):
   XX=            -70.0159   YY=            -52.7463   ZZ=            -50.8732
   XY=             -5.2521   XZ=             -4.8366   YZ=             -0.2863

  Exact polarizability:  87.261   4.326  75.889   1.464  -0.021  69.024
 Approx polarizability: 127.621  11.087 103.159  11.353   2.985 111.549

                      1                      2                      3
                      A                      A                      A
 Frequencies --     42.0412                60.1284                65.8814
 Red. masses --      5.8324                 6.4191                 2.9311
 Frc consts  --      0.0061                 0.0137                 0.0075
 IR Inten    --      7.2068                 4.0187                 4.4524

                      4                      5                      6
                      A                      A                      A
 Frequencies --     92.4746               160.3781               221.9069
 Red. masses --      2.8936                 2.7907                 2.3247
 Frc consts  --      0.0146                 0.0423                 0.0674
 IR Inten    --      3.4139                 3.5341                 2.7225

                      7                      8                      9
                      A                      A                      A
 Frequencies --    251.7287               315.7805               401.9576
 Red. masses --      2.5983                 2.8402                 3.1596
 Frc consts  --      0.0970                 0.1669                 0.3008
 IR Inten    --      1.0051                 0.4706                 3.6897

                     10                     11                     12
                      A                      A                      A
 Frequencies --    435.2332               481.1623               561.6215
 Red. masses --      3.3518                 2.8376                 3.1913
 Frc consts  --      0.3741                 0.3871                 0.5931
 IR Inten    --      0.1323                 0.3561                26.6077

                     13                     14                     15
                      A                      A                      A
 Frequencies --    762.0030               792.3081               830.4296
 Red. masses --      1.3946                 1.2491                 1.2306
 Frc consts  --      0.4771                 0.4620                 0.5000
 IR Inten    --      0.4898                 0.7572                 9.4136

                     16                     17                     18
                      A                      A                      A
 Frequencies --    848.0813               924.2639               948.0024
 Red. masses --      2.0253                 3.8791                 2.6590
 Frc consts  --      0.8583                 1.9524                 1.4080
 IR Inten    --      4.6604                 4.4953                21.2286

                     19                     20                     21
                      A                      A                      A
 Frequencies --    971.6574              1002.5867              1014.5102
 Red. masses --      2.1072                 2.7720                 1.4137
 Frc consts  --      1.1721                 1.6417                 0.8573
 IR Inten    --     11.6037                36.7000                 7.0985

                     22                     23                     24
                      A                      A                      A
 Frequencies --   1064.1440              1084.2292              1095.3214
 Red. masses --      1.3138                 1.7003                 1.9436
 Frc consts  --      0.8765                 1.1776                 1.3738
 IR Inten    --      5.7159                 3.7073                14.1263

                     25                     26                     27
                      A                      A                      A
 Frequencies --   1124.2179              1137.5059              1167.6201
 Red. masses --      3.0286                 1.1213                 1.8448
 Frc consts  --      2.2552                 0.8548                 1.4819
 IR Inten    --      0.4188                 0.6552                 3.9292

                     28                     29                     30
                      A                      A                      A
 Frequencies --   1198.5598              1223.1010              1226.6377
 Red. masses --      1.3818                 1.5951                 1.6857
 Frc consts  --      1.1696                 1.4059                 1.4944
 IR Inten    --      0.8611                 8.0598                 6.1978

                     31                     32                     33
                      A                      A                      A
 Frequencies --   1255.6398              1297.5913              1340.7957
 Red. masses --      1.3351                 1.3498                 1.3764
 Frc consts  --      1.2402                 1.3391                 1.4579
 IR Inten    --      1.6454                 8.6729                 1.6095

                     34                     35                     36
                      A                      A                      A
 Frequencies --   1414.4265              1423.6623              1428.9800
 Red. masses --      1.5618                 1.2002                 1.1862
 Frc consts  --      1.8409                 1.4332                 1.4271
 IR Inten    --      0.2267                 0.1053                 6.6598

                     37                     38                     39
                      A                      A                      A
 Frequencies --   1465.0813              1471.9759              1506.4607
 Red. masses --      1.0992                 1.0870                 1.3610
 Frc consts  --      1.3901                 1.3877                 1.8198
 IR Inten    --      6.2103                 1.7682                 1.5884

                     40                     41                     42
                      A                      A                      A
 Frequencies --   1834.5743              1838.3231              2855.3691
 Red. masses --     10.2912                10.1987                 1.0819
 Frc consts  --     20.4074                20.3066                 5.1970
 IR Inten    --    293.4287                66.4102               114.5359

                     43                     44                     45
                      A                      A                      A
 Frequencies --   2860.0128              3018.1139              3047.4902
 Red. masses --      1.0823                 1.0629                 1.0838
 Frc consts  --      5.2159                 5.7044                 5.9304
 IR Inten    --     75.8105                10.7490                 7.9633

                     46                     47                     48
                      A                      A                      A
 Frequencies --   3095.0199              3134.5978              3135.7950
 Red. masses --      1.0981                 1.0511                 1.0764
 Frc consts  --      6.1976                 6.0849                 6.2363
 IR Inten    --     12.0282                14.6693                15.1929

                     49                     50                     51
                      A                      A                      A
 Frequencies --   3139.9553              3213.9763              3228.4650
 Red. masses --      1.0697                 1.1177                 1.1154
 Frc consts  --      6.2140                 6.8026                 6.8498
 IR Inten    --      2.3864                 0.0902                13.5973

 - Thermochemistry -
 -------------------
 Temperature   298.150 Kelvin.  Pressure   1.00000 Atm.
 Atom     1 has atomic number  8 and mass  15.99491

 Molecular mass:   126.06808 amu.
 Principal axes and moments of inertia in atomic units:
                           1         2         3
     Eigenvalues --   934.790911456.941002222.44257
           X            0.99893  -0.04474  -0.01164
           Y            0.04466   0.99898  -0.00689
           Z            0.01194   0.00636   0.99991
 This molecule is an asymmetric top.
 Rotational symmetry number  1.
 Warning -- assumption of classical behavior for rotation
           may cause significant error
 Rotational temperatures (Kelvin)      0.09266     0.05945     0.03897
 Rotational constants (GHZ):           1.93064     1.23872     0.81205
 Zero-point vibrational energy     409791.4 (Joules/Mol)
                                   97.94251 (Kcal/Mol)
 Warning -- explicit consideration of  12 degrees of freedom as
           vibrations may cause significant error
 Vibrational temperatures:     60.49    86.51    94.79   133.05   230.75
          (Kelvin)            319.27   362.18   454.34   578.33   626.20
                              692.28   808.05  1096.35  1139.95  1194.80
                             1220.20  1329.81  1363.96  1398.00  1442.50
                             1459.65  1531.06  1559.96  1575.92  1617.50
                             1636.62  1679.94  1724.46  1759.77  1764.86
                             1806.58  1866.94  1929.10  2035.04  2048.33
                             2055.98  2107.92  2117.84  2167.46  2639.54
                             2644.93  4108.23  4114.92  4342.39  4384.65
                             4453.04  4509.98  4511.70  4517.69  4624.19
                             4645.04

 Zero-point correction=                           0.156081 (Hartree/Particle)
 Thermal correction to Energy=                    0.165950
 Thermal correction to Enthalpy=                  0.166894
 Thermal correction to Gibbs Free Energy=         0.119405
 Sum of electronic and zero-point Energies=           -423.027078
 Sum of electronic and thermal Energies=              -423.017210
 Sum of electronic and thermal Enthalpies=            -423.016265
 Sum of electronic and thermal Free Energies=         -423.063755

                     E (Thermal)             CV                S
                      KCal/Mol        Cal/Mol-Kelvin    Cal/Mol-Kelvin
 Total                  104.135             34.055             99.949
 Electronic               0.000              0.000              0.000
 Translational            0.889              2.981             40.409
 Rotational               0.889              2.981             29.494
 Vibrational            102.358             28.093             30.047
 Vibration     1          0.595              1.980              5.161
 Vibration     2          0.597              1.973              4.453
 Vibration     3          0.597              1.971              4.273
 Vibration     4          0.602              1.955              3.607
 Vibration     5          0.622              1.891              2.545
 Vibration     6          0.648              1.808              1.943
 Vibration     7          0.664              1.760              1.718
 Vibration     8          0.703              1.644              1.332
 Vibration     9          0.768              1.466              0.955
 Vibration    10          0.796              1.393              0.842
 Vibration    11          0.837              1.292              0.707
 Vibration    12          0.917              1.114              0.521

 Optimization completed.
    -- Stationary point found.
 Normal termination of Gaussian 09 at Mon Jan 27 14:51:55 2020.
