 Gaussian 09, Revision D.01,
 Gaussian 09:  ES64L-G09RevD.01 24-Apr-2013

 -----------------------------
 # b3lyp 6-31G(2df,p) opt Freq
 -----------------------------

 -----
 titel
 -----
 Symbolic Z-matrix:
 Charge =  0 Multiplicity = 1

 SCF Done:  E(RB3LYP) =  -423.216746628     A.U. after   14 cycles
 Optimization completed.
    -- Stationary point found.
 Normal termination of Gaussian 09 at Mon Jan 27 11:12:41 2020.

 ----------------------------------------------------------------------
 #N Geom=AllCheck Guess=TCheck SCRF=Check GenChk RB3LYP/6-31G(2df,p) Fr
 eq
 ----------------------------------------------------------------------

 Structure from the checkpoint file:  "/scratch/puck/g09_446d7149-5d4a-41c9-b2c5-39259112ed6e/Gau-69575.chk"
 -----
 titel
 -----
 Charge =  0 Multiplicity = 1

                         Standard orientation:
 ---------------------------------------------------------------------
 Center     Atomic      Atomic             Coordinates (Angstroms)
 Number     Number       Type             X           Y           Z
 ---------------------------------------------------------------------
      1          6           0       -1.292072    2.124687   -0.031107
      2          6           0       -1.206997    0.640874    0.023661
      3          6           0       -0.202620   -0.238538    0.311918
      4          6           0        1.222399    0.073108    0.658714
      5          6           0        2.187094   -0.207278   -0.495551
      6          8           0        3.498229    0.093637   -0.043987
      7          6           0       -0.786310   -1.550752    0.191186
      8          6           0       -2.083016   -1.365308   -0.154002
      9          8           0       -2.358846   -0.038162   -0.260598
     10          1           0       -1.539729    2.478121   -1.038880
     11          1           0       -2.064375    2.505534    0.646805
     12          1           0       -0.337092    2.569032    0.257026
     13          1           0        1.331582    1.123412    0.948011
     14          1           0        1.545547   -0.521697    1.521276
     15          1           0        2.099117   -1.261404   -0.803184
     16          1           0        1.906373    0.409101   -1.364198
     17          1           0        4.111716   -0.077586   -0.764213
     18          1           0       -0.292417   -2.496805    0.353513
     19          1           0       -2.906662   -2.032262   -0.348375
 ---------------------------------------------------------------------

 SCF Done:  E(RB3LYP) =  -423.216746628     A.U. after    1 cycles

 The electronic state is 1-A.
 Alpha  occ. eigenvalues --  -19.19205 -19.13191 -10.22524 -10.22427 -10.21969
 Alpha  occ. eigenvalues --  -10.18789 -10.18284 -10.17716 -10.17204  -1.09559
 Alpha  occ. eigenvalues --   -1.01294  -0.80917  -0.77018  -0.73772  -0.67748
 Alpha  occ. eigenvalues --   -0.62082  -0.57648  -0.53643  -0.51594  -0.48607
 Alpha  occ. eigenvalues --   -0.46385  -0.45273  -0.43276  -0.40394  -0.39809
 Alpha  occ. eigenvalues --   -0.39524  -0.38242  -0.37811  -0.36261  -0.33815
 Alpha  occ. eigenvalues --   -0.32890  -0.26593  -0.25956  -0.20946
 Alpha virt. eigenvalues --    0.02381   0.07437   0.08071   0.09751   0.12464
 Alpha virt. eigenvalues --    0.13877   0.14467   0.15609   0.15872   0.17655
 Alpha virt. eigenvalues --    0.18258   0.19250   0.20101   0.22128   0.23967

 Mulliken charges:
               1
     1  C   -0.493434
     2  C    0.270264
     3  C    0.150268
     4  C   -0.312606
     5  C   -0.058449
     6  O   -0.418671
     7  C   -0.267794
     8  C   -0.020157
     9  O   -0.180389
    10  H    0.136529
    11  H    0.137916
    12  H    0.136543
    13  H    0.108488
    14  H    0.114186
    15  H    0.088316
    16  H    0.087391
    17  H    0.285810
    18  H    0.106053
    19  H    0.129736
 Sum of Mulliken charges =   0.00000

 Dipole moment (field-independent basis, Debye):
    X=              0.3597    Y=             -0.2634    Z=             -1.1497  Tot=              1.2331
 Quadrupole moment (field-independent basis, Debye-Ang):
   XX=            -52.8262   YY=            -48.7399   ZZ=            -53.4038
   XY=             -1.0273   XZ=             -5.0247   YZ=              0.2012

  Exact polarizability:  94.161  -0.197  87.435   4.484  -0.444  54.659
 Approx polarizability: 134.761  -3.492 130.767  12.178  -1.731  84.695

                      1                      2                      3
                      A                      A                      A
 Frequencies --     43.1248                90.6869               113.5360
 Red. masses --      2.5017                 2.9905                 1.6916
 Frc consts  --      0.0027                 0.0145                 0.0128
 IR Inten    --      1.1943                 5.8469                 0.5415

                      4                      5                      6
                      A                      A                      A
 Frequencies --    126.4672               230.1718               255.8843
 Red. masses --      1.7034                 3.2309                 1.1091
 Frc consts  --      0.0161                 0.1008                 0.0428
 IR Inten    --      0.4561                 2.2272                95.8932

                      7                      8                      9
                      A                      A                      A
 Frequencies --    266.2195               347.6690               355.3207
 Red. masses --      2.3740                 4.5592                 3.5265
 Frc consts  --      0.0991                 0.3247                 0.2623
 IR Inten    --      7.0798                11.1820                 2.8668

                     10                     11                     12
                      A                      A                      A
 Frequencies --    420.2332               620.8272               648.2633
 Red. masses --      3.2736                 4.4181                 4.1780
 Frc consts  --      0.3406                 1.0033                 1.0345
 IR Inten    --      1.8848                 3.4602                12.2134

                     13                     14                     15
                      A                      A                      A
 Frequencies --    680.4292               741.5830               773.0802
 Red. masses --      3.6976                 1.3607                 3.7767
 Frc consts  --      1.0087                 0.4409                 1.3299
 IR Inten    --      2.9574                26.6831                12.4904

                     16                     17                     18
                      A                      A                      A
 Frequencies --    796.5715               824.1660               912.2699
 Red. masses --      1.1880                 1.2909                 5.5289
 Frc consts  --      0.4441                 0.5166                 2.7110
 IR Inten    --      0.8601                 5.9986                15.4849

                     19                     20                     21
                      A                      A                      A
 Frequencies --    961.1533              1005.6696              1028.5570
 Red. masses --      1.7524                 2.6469                 1.6300
 Frc consts  --      0.9538                 1.5772                 1.0160
 IR Inten    --      5.8289                16.1561                 8.8769

                     22                     23                     24
                      A                      A                      A
 Frequencies --   1062.8688              1072.9929              1078.0182
 Red. masses --      1.4794                 1.8715                 4.7085
 Frc consts  --      0.9847                 1.2695                 3.2239
 IR Inten    --      2.2906                12.5752                77.4945

                     25                     26                     27
                      A                      A                      A
 Frequencies --   1158.4354              1180.6101              1220.7847
 Red. masses --      2.0882                 2.3079                 1.5002
 Frc consts  --      1.6510                 1.8953                 1.3173
 IR Inten    --     23.3942                11.2513                14.8296

                     28                     29                     30
                      A                      A                      A
 Frequencies --   1237.7134              1250.2967              1275.5966
 Red. masses --      1.2973                 2.4565                 1.7414
 Frc consts  --      1.1709                 2.2625                 1.6694
 IR Inten    --     18.4860                30.2374                 0.5498

                     31                     32                     33
                      A                      A                      A
 Frequencies --   1312.6466              1341.7971              1410.3105
 Red. masses --      1.1447                 1.5619                 1.3659
 Frc consts  --      1.1620                 1.6569                 1.6007
 IR Inten    --      0.0820                11.9346                 1.3368

                     34                     35                     36
                      A                      A                      A
 Frequencies --   1439.9584              1453.7268              1473.4171
 Red. masses --      3.0444                 1.4418                 1.0430
 Frc consts  --      3.7192                 1.7953                 1.3342
 IR Inten    --      0.7243                 6.9833                 4.6875

                     37                     38                     39
                      A                      A                      A
 Frequencies --   1485.9386              1494.2706              1525.9433
 Red. masses --      1.0974                 1.1031                 1.0867
 Frc consts  --      1.4276                 1.4511                 1.4908
 IR Inten    --      0.7843                 7.1422                 2.3250

                     40                     41                     42
                      A                      A                      A
 Frequencies --   1552.5098              1664.6393              2969.0980
 Red. masses --      4.3647                 7.2612                 1.0544
 Frc consts  --      6.1984                11.8549                 5.4763
 IR Inten    --     17.6113                 7.4802                48.7913

                     43                     44                     45
                      A                      A                      A
 Frequencies --   2997.1190              3029.4192              3038.0666
 Red. masses --      1.1062                 1.0390                 1.0607
 Frc consts  --      5.8547                 5.6181                 5.7680
 IR Inten    --     43.2502                32.6579                28.4854

                     46                     47                     48
                      A                      A                      A
 Frequencies --   3078.0156              3083.5968              3131.0423
 Red. masses --      1.1001                 1.1016                 1.0970
 Frc consts  --      6.1405                 6.1715                 6.3365
 IR Inten    --     15.3194                28.9894                12.0702

                     49                     50                     51
                      A                      A                      A
 Frequencies --   3245.8620              3282.1183              3831.7530
 Red. masses --      1.0909                 1.1044                 1.0664
 Frc consts  --      6.7716                 7.0093                 9.2246
 IR Inten    --      2.3187                 1.6429                22.0299

 - Thermochemistry -
 -------------------
 Temperature   298.150 Kelvin.  Pressure   1.00000 Atm.
 Atom     1 has atomic number  6 and mass  12.00000

 Molecular mass:   126.06808 amu.
 Principal axes and moments of inertia in atomic units:
                           1         2         3
     Eigenvalues --   585.344301862.653472309.88563
           X            0.99990  -0.01282  -0.00566
           Y            0.01284   0.99991   0.00262
           Z            0.00563  -0.00269   0.99998
 This molecule is an asymmetric top.
 Rotational symmetry number  1.
 Warning -- assumption of classical behavior for rotation
           may cause significant error
 Rotational temperatures (Kelvin)      0.14797     0.04650     0.03750
 Rotational constants (GHZ):           3.08321     0.96891     0.78131
 Zero-point vibrational energy     416422.8 (Joules/Mol)
                                   99.52743 (Kcal/Mol)
 Warning -- explicit consideration of  10 degrees of freedom as
           vibrations may cause significant error
 Vibrational temperatures:     62.05   130.48   163.35   181.96   331.17
          (Kelvin)            368.16   383.03   500.22   511.23   604.62
                              893.23   932.71   978.98  1066.97  1112.29
                             1146.09  1185.79  1312.55  1382.88  1446.93
                             1479.86  1529.23  1543.80  1551.03  1666.73
                             1698.63  1756.43  1780.79  1798.90  1835.30
                             1888.60  1930.54  2029.12  2071.78  2091.59
                             2119.92  2137.93  2149.92  2195.49  2233.71
                             2395.04  4271.86  4312.18  4358.65  4371.09
                             4428.57  4436.60  4504.87  4670.07  4722.23
                             5513.03

 Zero-point correction=                           0.158607 (Hartree/Particle)
 Thermal correction to Energy=                    0.168049
 Thermal correction to Enthalpy=                  0.168993
 Thermal correction to Gibbs Free Energy=         0.123330
 Sum of electronic and zero-point Energies=           -423.058140
 Sum of electronic and thermal Energies=              -423.048698
 Sum of electronic and thermal Enthalpies=            -423.047753
 Sum of electronic and thermal Free Energies=         -423.093417

                     E (Thermal)             CV                S
                      KCal/Mol        Cal/Mol-Kelvin    Cal/Mol-Kelvin
 Total                  105.452             33.782             96.106
 Electronic               0.000              0.000              0.000
 Translational            0.889              2.981             40.409
 Rotational               0.889              2.981             29.311
 Vibrational            103.675             27.820             26.386
 Vibration     1          0.595              1.980              5.110
 Vibration     2          0.602              1.956              3.645
 Vibration     3          0.607              1.938              3.208
 Vibration     4          0.611              1.927              2.999
 Vibration     5          0.652              1.795              1.878
 Vibration     6          0.666              1.753              1.690
 Vibration     7          0.672              1.735              1.621
 Vibration     8          0.725              1.580              1.177
 Vibration     9          0.731              1.564              1.143
 Vibration    10          0.783              1.426              0.891

 Normal termination of Gaussian 09 at Mon Jan 27 11:48:30 2020.
