 Gaussian 09, Revision D.01,
 Gaussian 09:  ES64L-G09RevD.01 24-Apr-2013

 -----------------------------
 # b3lyp 6-31G(2df,p) opt Freq
 -----------------------------

 -----
 titel
 -----
 Symbolic Z-matrix:
 Charge =  0 Multiplicity = 1

 SCF Done:  E(RB3LYP) =  -423.138620059     A.U. after   15 cycles
 SCF Done:  E(RB3LYP) =  -423.138619965     A.U. after    7 cycles
 Optimization completed.
    -- Stationary point found.
 Normal termination of Gaussian 09 at Tue Jan 28 08:17:33 2020.

 ----------------------------------------------------------------------
 #N Geom=AllCheck Guess=TCheck SCRF=Check GenChk RB3LYP/6-31G(2df,p) Fr
 eq
 ----------------------------------------------------------------------

 Structure from the checkpoint file:  "/scratch/puck/g09_479f9575-9dfe-4ead-b25e-94e5f0f669eb/Gau-186214.chk"
 -----
 titel
 -----
 Charge =  0 Multiplicity = 1

                         Standard orientation:
 ---------------------------------------------------------------------
 Center     Atomic      Atomic             Coordinates (Angstroms)
 Number     Number       Type             X           Y           Z
 ---------------------------------------------------------------------
      1          6           0       -0.739981    1.991999   -0.744127
      2          8           0        0.144615    0.903456   -0.952517
      3          6           0        0.619736    0.210897    0.207898
      4          6           0        1.453449    1.124241    1.127902
      5          6           0       -0.562605   -0.419539    0.995739
      6          6           0       -1.505096   -1.177012    0.082713
      7          8           0       -2.690112   -0.968598    0.021870
      8          6           0        1.485446   -0.856089   -0.317281
      9          6           0        2.209918   -1.732090   -0.705057
     10          1           0       -0.291349    2.790417   -0.139298
     11          1           0       -0.953709    2.392114   -1.737741
     12          1           0       -1.686951    1.681176   -0.285761
     13          1           0        2.246646    1.602688    0.548709
     14          1           0        0.829941    1.895454    1.587383
     15          1           0        1.910533    0.535454    1.926857
     16          1           0       -0.150600   -1.116893    1.735223
     17          1           0       -1.131124    0.346071    1.529589
     18          1           0       -1.021386   -1.956965   -0.542313
     19          1           0        2.846774   -2.502818   -1.064192
 ---------------------------------------------------------------------

 SCF Done:  E(RB3LYP) =  -423.138619965     A.U. after    1 cycles

 The electronic state is 1-A.
 Alpha  occ. eigenvalues --  -19.15080 -19.13978 -10.27951 -10.27163 -10.22827
 Alpha  occ. eigenvalues --  -10.20100 -10.19204 -10.18999 -10.18558  -1.04773
 Alpha  occ. eigenvalues --   -1.04012  -0.82448  -0.74679  -0.72856  -0.70021
 Alpha  occ. eigenvalues --   -0.61667  -0.58377  -0.53614  -0.51046  -0.49173
 Alpha  occ. eigenvalues --   -0.47506  -0.45687  -0.43367  -0.42563  -0.41480
 Alpha  occ. eigenvalues --   -0.39858  -0.39539  -0.38648  -0.36732  -0.31773
 Alpha  occ. eigenvalues --   -0.28624  -0.28407  -0.26712  -0.24718
 Alpha virt. eigenvalues --   -0.02215   0.03438   0.04413   0.07966   0.11282
 Alpha virt. eigenvalues --    0.11983   0.13068   0.13830   0.14940   0.15152
 Alpha virt. eigenvalues --    0.15605   0.17040   0.17909   0.20303   0.22031

 Mulliken charges:
               1
     1  C   -0.257629
     2  O   -0.273643
     3  C    0.150766
     4  C   -0.425076
     5  C   -0.324388
     6  C    0.170312
     7  O   -0.250848
     8  C    0.349221
     9  C   -0.463840
    10  H    0.110342
    11  H    0.137210
    12  H    0.131052
    13  H    0.138603
    14  H    0.121943
    15  H    0.131896
    16  H    0.133036
    17  H    0.121392
    18  H    0.097271
    19  H    0.202380
 Sum of Mulliken charges =   0.00000

 Dipole moment (field-independent basis, Debye):
    X=              2.1784    Y=              0.5886    Z=              1.5129  Tot=              2.7167
 Quadrupole moment (field-independent basis, Debye-Ang):
   XX=            -60.3411   YY=            -47.3833   ZZ=            -52.9538
   XY=             -5.4085   XZ=             -0.0798   YZ=              0.8027

  Exact polarizability:  86.143 -11.806  82.771  -1.458   6.220  64.712
 Approx polarizability: 126.867 -23.979 118.583  -6.138  11.542  96.819

                      1                      2                      3
                      A                      A                      A
 Frequencies --     62.8052                82.7991               105.7216
 Red. masses --      4.2118                 2.5576                 2.4350
 Frc consts  --      0.0098                 0.0103                 0.0160
 IR Inten    --      7.7223                 0.9791                 2.8357

                      4                      5                      6
                      A                      A                      A
 Frequencies --    144.3717               166.8678               211.8312
 Red. masses --      2.7905                 2.8287                 3.1788
 Frc consts  --      0.0343                 0.0464                 0.0840
 IR Inten    --      0.2478                 1.9198                 6.8226

                      7                      8                      9
                      A                      A                      A
 Frequencies --    217.7506               272.7063               313.1857
 Red. masses --      1.3639                 1.3055                 2.3460
 Frc consts  --      0.0381                 0.0572                 0.1356
 IR Inten    --      2.6757                 1.3648                 0.3652

                     10                     11                     12
                      A                      A                      A
 Frequencies --    351.4854               413.0479               459.2844
 Red. masses --      2.7004                 4.2743                 3.3354
 Frc consts  --      0.1966                 0.4297                 0.4145
 IR Inten    --      3.4136                 0.1711                 0.5994

                     13                     14                     15
                      A                      A                      A
 Frequencies --    475.9776               545.5592               595.0224
 Red. masses --      3.3914                 4.8540                 4.1514
 Frc consts  --      0.4527                 0.8512                 0.8660
 IR Inten    --     12.9843                 1.2256                 6.0708

                     16                     17                     18
                      A                      A                      A
 Frequencies --    636.2014               669.7620               714.8770
 Red. masses --      1.2243                 1.2605                 3.0461
 Frc consts  --      0.2920                 0.3332                 0.9172
 IR Inten    --     43.4856                34.7472                 3.8004

                     19                     20                     21
                      A                      A                      A
 Frequencies --    814.7348               866.4924               939.2893
 Red. masses --      1.9554                 2.3525                 1.6333
 Frc consts  --      0.7648                 1.0406                 0.8490
 IR Inten    --      0.4010                22.6740                 1.1160

                     22                     23                     24
                      A                      A                      A
 Frequencies --   1005.1192              1027.9806              1088.4907
 Red. masses --      1.8331                 2.3899                 4.8128
 Frc consts  --      1.0911                 1.4880                 3.3597
 IR Inten    --      7.2596                 9.2030                50.1293

                     25                     26                     27
                      A                      A                      A
 Frequencies --   1121.0139              1154.7198              1182.6201
 Red. masses --      3.7734                 2.0618                 1.2841
 Frc consts  --      2.7939                 1.6198                 1.0582
 IR Inten    --     69.8117                70.3430                 3.0543

                     28                     29                     30
                      A                      A                      A
 Frequencies --   1186.1353              1223.3009              1275.1237
 Red. masses --      1.9303                 1.5425                 1.9150
 Frc consts  --      1.6001                 1.3600                 1.8345
 IR Inten    --     13.4094                34.3442                62.6562

                     31                     32                     33
                      A                      A                      A
 Frequencies --   1308.1229              1399.2378              1424.6356
 Red. masses --      1.7428                 1.2239                 1.1951
 Frc consts  --      1.7571                 1.4118                 1.4291
 IR Inten    --     20.4163                 7.0417                 7.2254

                     34                     35                     36
                      A                      A                      A
 Frequencies --   1453.0091              1473.7674              1488.6009
 Red. masses --      1.0936                 1.0915                 1.0564
 Frc consts  --      1.3603                 1.3968                 1.3792
 IR Inten    --      7.8656                 0.7644                 0.6611

                     37                     38                     39
                      A                      A                      A
 Frequencies --   1497.3995              1503.3990              1510.4442
 Red. masses --      1.0787                 1.0500                 1.0548
 Frc consts  --      1.4251                 1.3983                 1.4179
 IR Inten    --      5.8594                 2.4239                 5.5687

                     40                     41                     42
                      A                      A                      A
 Frequencies --   1829.0347              2240.4910              2916.7106
 Red. masses --      9.8469                 5.8843                 1.0840
 Frc consts  --     19.4085                17.4034                 5.4334
 IR Inten    --    157.3449                 2.4508                66.5199

                     43                     44                     45
                      A                      A                      A
 Frequencies --   3009.7172              3042.9335              3052.2401
 Red. masses --      1.0343                 1.0596                 1.0373
 Frc consts  --      5.5200                 5.7807                 5.6939
 IR Inten    --     41.4303                 1.9640                 9.7084

                     46                     47                     48
                      A                      A                      A
 Frequencies --   3070.5562              3108.7417              3121.7495
 Red. masses --      1.1024                 1.1002                 1.0992
 Frc consts  --      6.1237                 6.2647                 6.3111
 IR Inten    --     40.4277                 9.9973                20.7371

                     49                     50                     51
                      A                      A                      A
 Frequencies --   3129.1961              3136.6912              3500.0974
 Red. masses --      1.1016                 1.1034                 1.1635
 Frc consts  --      6.3554                 6.3961                 8.3981
 IR Inten    --     21.0542                11.8975                65.3059

 - Thermochemistry -
 -------------------
 Temperature   298.150 Kelvin.  Pressure   1.00000 Atm.
 Atom     1 has atomic number  6 and mass  12.00000

 Molecular mass:   126.06808 amu.
 Principal axes and moments of inertia in atomic units:
                           1         2         3
     Eigenvalues --   933.576151304.320661720.46256
           X            0.99868  -0.04813   0.01767
           Y            0.04779   0.99867   0.01934
           Z           -0.01858  -0.01847   0.99966
 This molecule is an asymmetric top.
 Rotational symmetry number  1.
 Warning -- assumption of classical behavior for rotation
           may cause significant error
 Rotational temperatures (Kelvin)      0.09278     0.06641     0.05034
 Rotational constants (GHZ):           1.93315     1.38366     1.04899
 Zero-point vibrational energy     403985.2 (Joules/Mol)
                                   96.55478 (Kcal/Mol)
 Warning -- explicit consideration of  15 degrees of freedom as
           vibrations may cause significant error
 Vibrational temperatures:     90.36   119.13   152.11   207.72   240.09
          (Kelvin)            304.78   313.29   392.36   450.60   505.71
                              594.28   660.81   684.82   784.94   856.10
                              915.35   963.64  1028.55  1172.22  1246.69
                             1351.43  1446.14  1479.03  1566.09  1612.89
                             1661.38  1701.52  1706.58  1760.05  1834.62
                             1882.09  2013.19  2049.73  2090.55  2120.42
                             2141.76  2154.42  2163.05  2173.19  2631.57
                             3223.56  4196.49  4330.31  4378.10  4391.49
                             4417.84  4472.78  4491.50  4502.21  4512.99
                             5035.85

 Zero-point correction=                           0.153870 (Hartree/Particle)
 Thermal correction to Energy=                    0.164530
 Thermal correction to Enthalpy=                  0.165474
 Thermal correction to Gibbs Free Energy=         0.117991
 Sum of electronic and zero-point Energies=           -422.984750
 Sum of electronic and thermal Energies=              -422.974090
 Sum of electronic and thermal Enthalpies=            -422.973146
 Sum of electronic and thermal Free Energies=         -423.020629

                     E (Thermal)             CV                S
                      KCal/Mol        Cal/Mol-Kelvin    Cal/Mol-Kelvin
 Total                  103.244             37.894             99.937
 Electronic               0.000              0.000              0.000
 Translational            0.889              2.981             40.409
 Rotational               0.889              2.981             29.128
 Vibrational            101.467             31.932             30.400
 Vibration     1          0.597              1.972              4.367
 Vibration     2          0.600              1.961              3.823
 Vibration     3          0.605              1.945              3.346
 Vibration     4          0.616              1.909              2.745
 Vibration     5          0.624              1.883              2.470
 Vibration     6          0.643              1.823              2.028
 Vibration     7          0.646              1.814              1.978
 Vibration     8          0.676              1.724              1.579
 Vibration     9          0.701              1.649              1.345
 Vibration    10          0.728              1.572              1.160
 Vibration    11          0.777              1.442              0.916
 Vibration    12          0.817              1.340              0.768
 Vibration    13          0.833              1.303              0.721
 Vibration    14          0.901              1.149              0.553
 Vibration    15          0.953              1.042              0.458

 Optimization completed.
    -- Stationary point found.
 Normal termination of Gaussian 09 at Tue Jan 28 08:50:38 2020.
