 Gaussian 09, Revision D.01,
 Gaussian 09:  ES64L-G09RevD.01 24-Apr-2013

 -----------------------------
 # b3lyp 6-31G(2df,p) opt Freq
 -----------------------------

 -----
 titel
 -----
 Symbolic Z-matrix:
 Charge =  0 Multiplicity = 1

 SCF Done:  E(RB3LYP) =  -423.153379468     A.U. after   14 cycles
 Optimization completed.
    -- Stationary point found.
 Normal termination of Gaussian 09 at Mon Jan 27 17:28:02 2020.

 ----------------------------------------------------------------------
 #N Geom=AllCheck Guess=TCheck SCRF=Check GenChk RB3LYP/6-31G(2df,p) Fr
 eq
 ----------------------------------------------------------------------

 Structure from the checkpoint file:  "/scratch/puck/g09_fd070cf6-e48e-42ec-870d-4073275f6de2/Gau-39385.chk"
 -----
 titel
 -----
 Charge =  0 Multiplicity = 1

                         Standard orientation:
 ---------------------------------------------------------------------
 Center     Atomic      Atomic             Coordinates (Angstroms)
 Number     Number       Type             X           Y           Z
 ---------------------------------------------------------------------
      1          6           0       -2.262596   -1.457049   -0.403028
      2          6           0       -1.504330   -0.278416    0.130945
      3          6           0       -0.588859   -0.322840    1.344541
      4          6           0       -0.054296    0.154639    0.024493
      5          6           0        1.156527   -0.355840   -0.701388
      6          6           0        2.443251    0.200976   -0.113581
      7          8           0        3.405099   -0.466827    0.164951
      8          8           0       -0.402239    1.534639   -0.164747
      9          6           0       -1.814629    1.189508   -0.157213
     10          1           0       -2.502905   -1.332128   -1.464777
     11          1           0       -1.683515   -2.379946   -0.297014
     12          1           0       -3.205479   -1.600923    0.138081
     13          1           0       -0.705119    0.382966    2.163229
     14          1           0       -0.286983   -1.323792    1.639634
     15          1           0        1.204933   -1.447701   -0.671000
     16          1           0        1.101017   -0.036903   -1.751823
     17          1           0        2.437114    1.301638    0.044176
     18          1           0       -2.377972    1.751701    0.597132
     19          1           0       -2.254374    1.356716   -1.147876
 ---------------------------------------------------------------------

 SCF Done:  E(RB3LYP) =  -423.153379469     A.U. after    1 cycles

 The electronic state is 1-A.
 Alpha  occ. eigenvalues --  -19.14327 -19.13953 -10.27192 -10.25217 -10.23927
 Alpha  occ. eigenvalues --  -10.20946 -10.20251 -10.19310 -10.19307  -1.05758
 Alpha  occ. eigenvalues --   -1.04608  -0.84747  -0.77815  -0.72693  -0.68179
 Alpha  occ. eigenvalues --   -0.60657  -0.58012  -0.52455  -0.49955  -0.49133
 Alpha  occ. eigenvalues --   -0.46439  -0.46421  -0.43326  -0.42833  -0.41534
 Alpha  occ. eigenvalues --   -0.40734  -0.39650  -0.38677  -0.36914  -0.33750
 Alpha  occ. eigenvalues --   -0.31889  -0.28140  -0.25185  -0.23378
 Alpha virt. eigenvalues --   -0.02196   0.07324   0.08245   0.10393   0.11823
 Alpha virt. eigenvalues --    0.12876   0.13554   0.14276   0.14585   0.15868
 Alpha virt. eigenvalues --    0.16628   0.17324   0.18035   0.19267   0.22110

 Mulliken charges:
               1
     1  C   -0.494382
     2  C    0.186124
     3  C   -0.378361
     4  C    0.426916
     5  C   -0.387009
     6  C    0.162867
     7  O   -0.239680
     8  O   -0.329527
     9  C   -0.123730
    10  H    0.121973
    11  H    0.125156
    12  H    0.127611
    13  H    0.114612
    14  H    0.118958
    15  H    0.126456
    16  H    0.130285
    17  H    0.098740
    18  H    0.105992
    19  H    0.106997
 Sum of Mulliken charges =   0.00000

 Dipole moment (field-independent basis, Debye):
    X=             -3.2618    Y=             -0.5839    Z=             -0.6553  Tot=              3.3778
 Quadrupole moment (field-independent basis, Debye-Ang):
   XX=            -61.3815   YY=            -54.5321   ZZ=            -51.4595
   XY=              2.5548   XZ=             -1.6418   YZ=              0.4216

  Exact polarizability:  90.918  -2.549  73.087   3.281  -0.658  66.918
 Approx polarizability: 123.388  -7.048 109.009   5.691  -4.327 101.026

                      1                      2                      3
                      A                      A                      A
 Frequencies --     46.0797                58.6531               121.3278
 Red. masses --      4.7170                 3.6229                 2.6480
 Frc consts  --      0.0059                 0.0073                 0.0230
 IR Inten    --      2.8129                 4.6282                 1.9696

                      4                      5                      6
                      A                      A                      A
 Frequencies --    193.1573               218.1137               241.0454
 Red. masses --      1.0389                 2.8128                 2.8425
 Frc consts  --      0.0228                 0.0788                 0.0973
 IR Inten    --      0.0122                 2.5847                 1.2562

                      7                      8                      9
                      A                      A                      A
 Frequencies --    324.4383               366.8320               428.4805
 Red. masses --      2.4269                 2.5123                 2.8562
 Frc consts  --      0.1505                 0.1992                 0.3090
 IR Inten    --      0.3787                 4.0740                 8.3787

                     10                     11                     12
                      A                      A                      A
 Frequencies --    451.9066               508.1951               607.9092
 Red. masses --      2.5795                 2.6769                 3.1388
 Frc consts  --      0.3104                 0.4073                 0.6834
 IR Inten    --      0.1818                17.6960                 0.8906

                     13                     14                     15
                      A                      A                      A
 Frequencies --    707.0660               778.1802               823.6656
 Red. masses --      2.4160                 2.9961                 2.4529
 Frc consts  --      0.7117                 1.0690                 0.9805
 IR Inten    --      2.1502                 2.2189                 5.0699

                     16                     17                     18
                      A                      A                      A
 Frequencies --    853.7298               922.0770               947.0318
 Red. masses --      3.2941                 1.7953                 1.4477
 Frc consts  --      1.4146                 0.8993                 0.7650
 IR Inten    --      1.1095                17.7723                 4.4603

                     19                     20                     21
                      A                      A                      A
 Frequencies --    971.7700               984.2026               999.8043
 Red. masses --      1.9204                 3.2936                 1.9657
 Frc consts  --      1.0685                 1.8797                 1.1577
 IR Inten    --     10.7238                72.0792                 6.4037

                     22                     23                     24
                      A                      A                      A
 Frequencies --   1035.1298              1054.1466              1073.9874
 Red. masses --      1.5611                 1.6385                 2.0770
 Frc consts  --      0.9855                 1.0727                 1.4115
 IR Inten    --      5.2309                12.4937                18.7004

                     25                     26                     27
                      A                      A                      A
 Frequencies --   1116.7194              1145.6671              1158.0603
 Red. masses --      1.7861                 2.1560                 1.2116
 Frc consts  --      1.3124                 1.6673                 0.9573
 IR Inten    --      8.1628                24.4103                 1.9461

                     28                     29                     30
                      A                      A                      A
 Frequencies --   1229.3989              1241.1700              1292.3877
 Red. masses --      2.9147                 1.4486                 1.9101
 Frc consts  --      2.5955                 1.3148                 1.8797
 IR Inten    --      6.4176                15.3521                 6.0324

                     31                     32                     33
                      A                      A                      A
 Frequencies --   1298.1696              1350.3218              1407.2152
 Red. masses --      1.6329                 2.2657                 1.3052
 Frc consts  --      1.6213                 2.4340                 1.5228
 IR Inten    --     11.0567                11.6116                 0.1711

                     34                     35                     36
                      A                      A                      A
 Frequencies --   1424.2476              1429.0988              1444.8455
 Red. masses --      1.2869                 1.2882                 1.1567
 Frc consts  --      1.5380                 1.5501                 1.4227
 IR Inten    --      7.1338                 4.4210                 5.5225

                     37                     38                     39
                      A                      A                      A
 Frequencies --   1486.0371              1496.4093              1502.1753
 Red. masses --      1.0825                 1.3278                 1.2499
 Frc consts  --      1.4085                 1.7517                 1.6617
 IR Inten    --      1.3568                 8.2277                 7.7881

                     40                     41                     42
                      A                      A                      A
 Frequencies --   1522.2007              1833.8563              2898.9250
 Red. masses --      1.2868                 9.9506                 1.0838
 Frc consts  --      1.7568                19.7165                 5.3663
 IR Inten    --      0.6986               188.5619                78.0966

                     43                     44                     45
                      A                      A                      A
 Frequencies --   3017.4942              3018.0690              3024.4977
 Red. masses --      1.0548                 1.0619                 1.0386
 Frc consts  --      5.6586                 5.6987                 5.5974
 IR Inten    --     58.8493                13.7205                46.0135

                     46                     47                     48
                      A                      A                      A
 Frequencies --   3067.8335              3082.3499              3099.4351
 Red. masses --      1.1113                 1.1004                 1.0998
 Frc consts  --      6.1623                 6.1597                 6.2251
 IR Inten    --     33.0887                24.6598                16.2838

                     49                     50                     51
                      A                      A                      A
 Frequencies --   3105.3244              3109.0646              3200.8890
 Red. masses --      1.0911                 1.0594                 1.1158
 Frc consts  --      6.1991                 6.0334                 6.7359
 IR Inten    --      5.5969                13.1502                 7.5747

 - Thermochemistry -
 -------------------
 Temperature   298.150 Kelvin.  Pressure   1.00000 Atm.
 Atom     1 has atomic number  6 and mass  12.00000

 Molecular mass:   126.06808 amu.
 Principal axes and moments of inertia in atomic units:
                           1         2         3
     Eigenvalues --   552.177961761.245301985.15938
           X            0.99979   0.02034   0.00125
           Y           -0.02037   0.99943   0.02691
           Z           -0.00070  -0.02693   0.99964
 This molecule is an asymmetric top.
 Rotational symmetry number  1.
 Warning -- assumption of classical behavior for rotation
           may cause significant error
 Rotational temperatures (Kelvin)      0.15686     0.04918     0.04363
 Rotational constants (GHZ):           3.26840     1.02470     0.90912
 Zero-point vibrational energy     411029.7 (Joules/Mol)
                                   98.23845 (Kcal/Mol)
 Warning -- explicit consideration of  12 degrees of freedom as
           vibrations may cause significant error
 Vibrational temperatures:     66.30    84.39   174.56   277.91   313.82
          (Kelvin)            346.81   466.79   527.79   616.49   650.19
                              731.18   874.64  1017.31  1119.63  1185.07
                             1228.33  1326.66  1362.57  1398.16  1416.05
                             1438.49  1489.32  1516.68  1545.23  1606.71
                             1648.36  1666.19  1768.83  1785.76  1859.46
                             1867.77  1942.81  2024.67  2049.17  2056.15
                             2078.81  2138.07  2153.00  2161.29  2190.10
                             2638.51  4170.90  4341.50  4342.32  4351.57
                             4413.92  4434.81  4459.39  4467.86  4473.24
                             4605.36

 Zero-point correction=                           0.156553 (Hartree/Particle)
 Thermal correction to Energy=                    0.165801
 Thermal correction to Enthalpy=                  0.166745
 Thermal correction to Gibbs Free Energy=         0.121531
 Sum of electronic and zero-point Energies=           -422.996827
 Sum of electronic and thermal Energies=              -422.987579
 Sum of electronic and thermal Enthalpies=            -422.986635
 Sum of electronic and thermal Free Energies=         -423.031849

                     E (Thermal)             CV                S
                      KCal/Mol        Cal/Mol-Kelvin    Cal/Mol-Kelvin
 Total                  104.042             33.447             95.162
 Electronic               0.000              0.000              0.000
 Translational            0.889              2.981             40.409
 Rotational               0.889              2.981             29.047
 Vibrational            102.264             27.486             25.706
 Vibration     1          0.595              1.979              4.979
 Vibration     2          0.596              1.974              4.502
 Vibration     3          0.609              1.931              3.079
 Vibration     4          0.635              1.849              2.197
 Vibration     5          0.646              1.813              1.975
 Vibration     6          0.658              1.778              1.795
 Vibration     7          0.709              1.627              1.288
 Vibration     8          0.740              1.540              1.093
 Vibration     9          0.790              1.408              0.864
 Vibration    10          0.811              1.357              0.790
 Vibration    11          0.863              1.232              0.638
 Vibration    12          0.967              1.015              0.436

 Optimization completed.
    -- Stationary point found.
 Normal termination of Gaussian 09 at Mon Jan 27 18:29:15 2020.
