 Gaussian 09, Revision D.01,
 Gaussian 09:  ES64L-G09RevD.01 24-Apr-2013

 -----------------------------
 # b3lyp 6-31G(2df,p) opt Freq
 -----------------------------

 -----
 titel
 -----
 Symbolic Z-matrix:
 Charge =  0 Multiplicity = 1

 SCF Done:  E(RB3LYP) =  -423.151635289     A.U. after   14 cycles
 Optimization completed.
    -- Stationary point found.
 Normal termination of Gaussian 09 at Tue Jan 28 12:07:22 2020.

 ----------------------------------------------------------------------
 #N Geom=AllCheck Guess=TCheck SCRF=Check GenChk RB3LYP/6-31G(2df,p) Fr
 eq
 ----------------------------------------------------------------------

 Structure from the checkpoint file:  "/scratch/puck/g09_62bbb746-9f38-4a14-85ba-7012be920422/Gau-22516.chk"
 -----
 titel
 -----
 Charge =  0 Multiplicity = 1

                         Standard orientation:
 ---------------------------------------------------------------------
 Center     Atomic      Atomic             Coordinates (Angstroms)
 Number     Number       Type             X           Y           Z
 ---------------------------------------------------------------------
      1          8           0        2.886570   -1.504290    0.257687
      2          6           0        1.990801   -0.580759   -0.338741
      3          6           0        0.662164   -0.490368    0.414263
      4          6           0       -0.328079    0.520696   -0.209180
      5          6           0       -1.705462    0.469277    0.483637
      6          6           0       -2.520412   -0.762687    0.166273
      7          8           0       -2.192863   -1.630746   -0.603266
      8          6           0        0.199436    1.884015   -0.176980
      9          6           0        0.620562    3.009009   -0.123142
     10          1           0        2.491884   -2.379831    0.192732
     11          1           0        2.500176    0.387069   -0.318251
     12          1           0        1.803440   -0.828302   -1.396415
     13          1           0        0.182510   -1.475352    0.412247
     14          1           0        0.862334   -0.216786    1.456464
     15          1           0       -0.485363    0.229614   -1.256412
     16          1           0       -1.604898    0.546420    1.575124
     17          1           0       -2.318116    1.334898    0.194855
     18          1           0       -3.496810   -0.812516    0.699715
     19          1           0        1.001132    3.999974   -0.092196
 ---------------------------------------------------------------------

 SCF Done:  E(RB3LYP) =  -423.151635289     A.U. after    1 cycles

 The electronic state is 1-A.
 Alpha  occ. eigenvalues --  -19.15285 -19.13131 -10.28444 -10.22331 -10.22315
 Alpha  occ. eigenvalues --  -10.21034 -10.18734 -10.18543 -10.17644  -1.05938
 Alpha  occ. eigenvalues --   -1.01230  -0.83560  -0.75110  -0.73897  -0.67232
 Alpha  occ. eigenvalues --   -0.61355  -0.57400  -0.53468  -0.50745  -0.49830
 Alpha  occ. eigenvalues --   -0.47185  -0.45876  -0.45019  -0.42520  -0.40909
 Alpha  occ. eigenvalues --   -0.39442  -0.38360  -0.36138  -0.35691  -0.32079
 Alpha  occ. eigenvalues --   -0.27931  -0.27211  -0.26349  -0.25676
 Alpha virt. eigenvalues --   -0.03071   0.04853   0.05004   0.08404   0.09330
 Alpha virt. eigenvalues --    0.11069   0.12389   0.12798   0.14094   0.14543
 Alpha virt. eigenvalues --    0.16405   0.18307   0.19527   0.20556   0.22158

 Mulliken charges:
               1
     1  O   -0.417731
     2  C   -0.067483
     3  C   -0.212368
     4  C   -0.179759
     5  C   -0.304995
     6  C    0.150278
     7  O   -0.237058
     8  C    0.314679
     9  C   -0.445105
    10  H    0.281568
    11  H    0.125630
    12  H    0.089164
    13  H    0.108251
    14  H    0.108967
    15  H    0.123547
    16  H    0.135124
    17  H    0.141131
    18  H    0.089059
    19  H    0.197103
 Sum of Mulliken charges =   0.00000

 Dipole moment (field-independent basis, Debye):
    X=             -1.8716    Y=              1.0183    Z=              0.9099  Tot=              2.3168
 Quadrupole moment (field-independent basis, Debye-Ang):
   XX=            -57.7148   YY=            -50.4183   ZZ=            -53.8461
   XY=             -1.7518   XZ=             -4.7206   YZ=             -1.3004

  Exact polarizability:  80.311   7.470  94.949  -3.305   2.156  59.308
 Approx polarizability: 103.198  13.466 145.536  -2.299   9.428  94.544

                      1                      2                      3
                      A                      A                      A
 Frequencies --     66.2169                78.3917                92.4896
 Red. masses --      5.6468                 3.3459                 2.1982
 Frc consts  --      0.0146                 0.0121                 0.0111
 IR Inten    --      6.5667                 3.6956                 1.8244

                      4                      5                      6
                      A                      A                      A
 Frequencies --    132.7166               143.4519               187.7876
 Red. masses --      4.2010                 2.8790                 2.5848
 Frc consts  --      0.0436                 0.0349                 0.0537
 IR Inten    --      1.3525                 2.3434                 4.1543

                      7                      8                      9
                      A                      A                      A
 Frequencies --    218.7075               260.7497               317.2079
 Red. masses --      2.8909                 4.4791                 1.1196
 Frc consts  --      0.0815                 0.1794                 0.0664
 IR Inten    --      2.8360                 3.3603               103.3095

                     10                     11                     12
                      A                      A                      A
 Frequencies --    357.1698               404.5333               515.7401
 Red. masses --      3.6743                 4.3867                 4.2297
 Frc consts  --      0.2762                 0.4230                 0.6629
 IR Inten    --      2.9210                16.7220                 3.6820

                     13                     14                     15
                      A                      A                      A
 Frequencies --    554.4338               631.6383               645.2020
 Red. masses --      3.4932                 1.2122                 1.2425
 Frc consts  --      0.6327                 0.2850                 0.3048
 IR Inten    --      8.3418                40.6746                42.6294

                     16                     17                     18
                      A                      A                      A
 Frequencies --    688.8444               713.3401               784.5336
 Red. masses --      3.9914                 1.5493                 1.2713
 Frc consts  --      1.1159                 0.4645                 0.4610
 IR Inten    --      9.4223                 4.6456                 3.5120

                     19                     20                     21
                      A                      A                      A
 Frequencies --    889.2004               912.0830               971.7614
 Red. masses --      2.6695                 2.4364                 1.6046
 Frc consts  --      1.2436                 1.1942                 0.8928
 IR Inten    --      3.5648                13.6731                 4.2987

                     22                     23                     24
                      A                      A                      A
 Frequencies --   1019.7462              1068.4637              1084.9037
 Red. masses --      3.4479                 1.8424                 2.8803
 Frc consts  --      2.1125                 1.2392                 1.9974
 IR Inten    --     24.4157                58.4567                36.9237

                     25                     26                     27
                      A                      A                      A
 Frequencies --   1091.7960              1117.6326              1171.6694
 Red. masses --      3.0848                 2.6965                 1.2172
 Frc consts  --      2.1665                 1.9845                 0.9845
 IR Inten    --     23.0519                 2.9170                16.4179

                     28                     29                     30
                      A                      A                      A
 Frequencies --   1222.3659              1283.9498              1299.9932
 Red. masses --      1.3069                 1.3254                 1.3187
 Frc consts  --      1.1506                 1.2874                 1.3131
 IR Inten    --      6.2975                 3.9739                 4.2806

                     31                     32                     33
                      A                      A                      A
 Frequencies --   1330.1812              1349.4297              1376.7288
 Red. masses --      1.1930                 1.3335                 1.6125
 Frc consts  --      1.2437                 1.4307                 1.8007
 IR Inten    --      2.3607                 0.4340                23.0074

                     34                     35                     36
                      A                      A                      A
 Frequencies --   1399.8673              1419.0691              1423.5085
 Red. masses --      1.2782                 1.1619                 1.2846
 Frc consts  --      1.4758                 1.3786                 1.5337
 IR Inten    --      9.1996                17.5974                33.3017

                     37                     38                     39
                      A                      A                      A
 Frequencies --   1442.7924              1482.6566              1513.8428
 Red. masses --      1.1129                 1.0835                 1.0910
 Frc consts  --      1.3650                 1.4034                 1.4731
 IR Inten    --     16.2541                 1.1686                 0.3388

                     40                     41                     42
                      A                      A                      A
 Frequencies --   1825.5081              2233.6785              2876.2545
 Red. masses --      9.9835                 5.9343                 1.0832
 Frc consts  --     19.6020                17.4447                 5.2799
 IR Inten    --    133.6190                 1.9754               143.1084

                     43                     44                     45
                      A                      A                      A
 Frequencies --   2972.9843              3019.5652              3023.9584
 Red. masses --      1.0713                 1.0696                 1.0715
 Frc consts  --      5.5789                 5.7460                 5.7729
 IR Inten    --     49.9209                 8.6321                 9.8938

                     46                     47                     48
                      A                      A                      A
 Frequencies --   3038.9063              3052.3390              3079.3248
 Red. masses --      1.0603                 1.0972                 1.0955
 Frc consts  --      5.7690                 6.0228                 6.1205
 IR Inten    --     22.2734                11.6444                 5.4114

                     49                     50                     51
                      A                      A                      A
 Frequencies --   3099.2724              3503.3673              3813.6156
 Red. masses --      1.1000                 1.1618                 1.0661
 Frc consts  --      6.2254                 8.4014                 9.1356
 IR Inten    --     35.5722                70.4179                16.9007

 - Thermochemistry -
 -------------------
 Temperature   298.150 Kelvin.  Pressure   1.00000 Atm.
 Atom     1 has atomic number  8 and mass  15.99491

 Molecular mass:   126.06808 amu.
 Principal axes and moments of inertia in atomic units:
                           1         2         3
     Eigenvalues --  1074.385651579.895322486.67320
           X            0.99945  -0.02915  -0.01602
           Y            0.02913   0.99957  -0.00147
           Z            0.01606   0.00100   0.99987
 This molecule is an asymmetric top.
 Rotational symmetry number  1.
 Warning -- assumption of classical behavior for rotation
           may cause significant error
 Rotational temperatures (Kelvin)      0.08062     0.05482     0.03483
 Rotational constants (GHZ):           1.67979     1.14232     0.72577
 Zero-point vibrational energy     407947.9 (Joules/Mol)
                                   97.50190 (Kcal/Mol)
 Warning -- explicit consideration of  13 degrees of freedom as
           vibrations may cause significant error
 Vibrational temperatures:     95.27   112.79   133.07   190.95   206.40
          (Kelvin)            270.18   314.67   375.16   456.39   513.89
                              582.03   742.03   797.71   908.79   928.30
                              991.09  1026.34  1128.77  1279.36  1312.28
                             1398.15  1467.19  1537.28  1560.93  1570.85
                             1608.02  1685.77  1758.71  1847.32  1870.40
                             1913.83  1941.53  1980.80  2014.09  2041.72
                             2048.11  2075.85  2133.21  2178.08  2626.50
                             3213.76  4138.28  4277.46  4344.48  4350.80
                             4372.30  4391.63  4430.46  4459.16  5040.56
                             5486.94

 Zero-point correction=                           0.155379 (Hartree/Particle)
 Thermal correction to Energy=                    0.165906
 Thermal correction to Enthalpy=                  0.166850
 Thermal correction to Gibbs Free Energy=         0.118971
 Sum of electronic and zero-point Energies=           -422.996256
 Sum of electronic and thermal Energies=              -422.985729
 Sum of electronic and thermal Enthalpies=            -422.984785
 Sum of electronic and thermal Free Energies=         -423.032664

                     E (Thermal)             CV                S
                      KCal/Mol        Cal/Mol-Kelvin    Cal/Mol-Kelvin
 Total                  104.108             36.920            100.769
 Electronic               0.000              0.000              0.000
 Translational            0.889              2.981             40.409
 Rotational               0.889              2.981             29.824
 Vibrational            102.330             30.959             30.536
 Vibration     1          0.598              1.970              4.263
 Vibration     2          0.600              1.964              3.931
 Vibration     3          0.602              1.955              3.607
 Vibration     4          0.613              1.921              2.906
 Vibration     5          0.616              1.910              2.757
 Vibration     6          0.632              1.857              2.250
 Vibration     7          0.646              1.813              1.970
 Vibration     8          0.669              1.745              1.657
 Vibration     9          0.704              1.641              1.324
 Vibration    10          0.732              1.561              1.134
 Vibration    11          0.770              1.460              0.946
 Vibration    12          0.871              1.215              0.620
 Vibration    13          0.910              1.130              0.535

 Normal termination of Gaussian 09 at Tue Jan 28 12:46:28 2020.
