 Gaussian 09, Revision D.01,
 Gaussian 09:  ES64L-G09RevD.01 24-Apr-2013

 -----------------------------
 # b3lyp 6-31G(2df,p) opt Freq
 -----------------------------

 -----
 titel
 -----
 Symbolic Z-matrix:
 Charge =  0 Multiplicity = 1

 SCF Done:  E(RB3LYP) =  -423.198965915     A.U. after   13 cycles
 Optimization completed.
    -- Stationary point found.
 Normal termination of Gaussian 09 at Mon Jan 27 18:30:05 2020.

 ----------------------------------------------------------------------
 #N Geom=AllCheck Guess=TCheck SCRF=Check GenChk RB3LYP/6-31G(2df,p) Fr
 eq
 ----------------------------------------------------------------------

 Structure from the checkpoint file:  "/scratch/puck/g09_ebc96f0f-1cca-4949-ae50-d1b3f5935759/Gau-81819.chk"
 -----
 titel
 -----
 Charge =  0 Multiplicity = 1

                         Standard orientation:
 ---------------------------------------------------------------------
 Center     Atomic      Atomic             Coordinates (Angstroms)
 Number     Number       Type             X           Y           Z
 ---------------------------------------------------------------------
      1          6           0       -2.396961   -0.027897    0.000042
      2          6           0       -0.887116    0.048758    0.000001
      3          8           0       -0.420933   -0.643006   -1.162508
      4          6           0        1.004744   -0.678021   -1.230658
      5          6           0        1.592142    0.047377   -0.000032
      6          6           0        1.004799   -0.677512    1.230912
      7          8           0       -0.420878   -0.642697    1.162675
      8          6           0        1.032669    1.446964   -0.000274
      9          6           0       -0.299698    1.446791   -0.000225
     10          1           0       -2.708432   -1.073980    0.001540
     11          1           0       -2.794851    0.464727    0.890359
     12          1           0       -2.794642    0.462148   -0.891787
     13          1           0        1.327973   -1.727841   -1.239777
     14          1           0        1.333338   -0.203567   -2.164251
     15          1           0        2.682899    0.001394   -0.000054
     16          1           0        1.328115   -1.727299    1.240533
     17          1           0        1.333327   -0.202588    2.164293
     18          1           0        1.660305    2.330623   -0.000433
     19          1           0       -0.937018    2.323240   -0.000358
 ---------------------------------------------------------------------

 SCF Done:  E(RB3LYP) =  -423.198965916     A.U. after    1 cycles

 The electronic state is 1-A.
 Alpha  occ. eigenvalues --  -19.13461 -19.13461 -10.27897 -10.22970 -10.22969
 Alpha  occ. eigenvalues --  -10.19998 -10.18686 -10.18026 -10.17167  -1.06572
 Alpha  occ. eigenvalues --   -0.99167  -0.81922  -0.78786  -0.70625  -0.66957
 Alpha  occ. eigenvalues --   -0.62135  -0.60265  -0.51914  -0.50129  -0.49642
 Alpha  occ. eigenvalues --   -0.48374  -0.43714  -0.43633  -0.40770  -0.39379
 Alpha  occ. eigenvalues --   -0.39155  -0.38019  -0.37140  -0.35406  -0.32480
 Alpha  occ. eigenvalues --   -0.32114  -0.27097  -0.25090  -0.23613
 Alpha virt. eigenvalues --    0.00886   0.09104   0.10983   0.12781   0.13328
 Alpha virt. eigenvalues --    0.14229   0.15156   0.15966   0.16803   0.17592
 Alpha virt. eigenvalues --    0.18376   0.18779   0.19633   0.21143   0.21358

 Mulliken charges:
               1
     1  C   -0.464374
     2  C    0.438761
     3  O   -0.294378
     4  C   -0.058581
     5  C   -0.133851
     6  C   -0.058583
     7  O   -0.294377
     8  C   -0.109864
     9  C   -0.079845
    10  H    0.134280
    11  H    0.125955
    12  H    0.126002
    13  H    0.099891
    14  H    0.097569
    15  H    0.074541
    16  H    0.099893
    17  H    0.097564
    18  H    0.097852
    19  H    0.101546
 Sum of Mulliken charges =   0.00000

 Dipole moment (field-independent basis, Debye):
    X=              1.6200    Y=              1.0385    Z=             -0.0001  Tot=              1.9242
 Quadrupole moment (field-independent basis, Debye-Ang):
   XX=            -48.1979   YY=            -52.0540   ZZ=            -56.0738
   XY=             -2.1235   XZ=              0.0002   YZ=             -0.0006

  Exact polarizability:  87.412  -2.928  72.724   0.000  -0.001  64.460
 Approx polarizability: 129.344  -2.832 106.301   0.000  -0.002  96.840

                      1                      2                      3
                      A                      A                      A
 Frequencies --    173.4451               200.5260               284.1389
 Red. masses --      2.9590                 1.0266                 2.8567
 Frc consts  --      0.0524                 0.0243                 0.1359
 IR Inten    --      2.3737                 0.0115                 4.9711

                      4                      5                      6
                      A                      A                      A
 Frequencies --    294.9525               342.9143               389.1021
 Red. masses --      2.6052                 1.9435                 2.4812
 Frc consts  --      0.1335                 0.1346                 0.2213
 IR Inten    --      1.2191                 0.8090                 2.1103

                      7                      8                      9
                      A                      A                      A
 Frequencies --    462.1235               491.9768               580.5757
 Red. masses --      3.8866                 5.3164                 4.5147
 Frc consts  --      0.4890                 0.7582                 0.8966
 IR Inten    --      0.6660                 4.4574                 1.4882

                     10                     11                     12
                      A                      A                      A
 Frequencies --    629.7682               655.3028               718.9141
 Red. masses --      5.8267                 3.3122                 1.8368
 Frc consts  --      1.3615                 0.8380                 0.5593
 IR Inten    --      1.9901                 2.2846                 4.8229

                     13                     14                     15
                      A                      A                      A
 Frequencies --    747.3892               837.5439               842.8550
 Red. masses --      5.5780                 3.0209                 2.2762
 Frc consts  --      1.8358                 1.2485                 0.9527
 IR Inten    --      3.6977                 2.8417                78.4858

                     16                     17                     18
                      A                      A                      A
 Frequencies --    891.6431               935.3237               951.4325
 Red. masses --      2.7249                 2.0073                 2.3846
 Frc consts  --      1.2764                 1.0346                 1.2718
 IR Inten    --     21.4201                22.5427                12.5409

                     19                     20                     21
                      A                      A                      A
 Frequencies --    955.7899               964.2449               983.7617
 Red. masses --      1.3730                 2.5114                 2.1035
 Frc consts  --      0.7390                 1.3758                 1.1994
 IR Inten    --      2.6691                 6.5944                11.9394

                     22                     23                     24
                      A                      A                      A
 Frequencies --   1060.6675              1074.8794              1125.1652
 Red. masses --      2.1332                 2.6878                 1.6182
 Frc consts  --      1.4140                 1.8297                 1.2070
 IR Inten    --     54.4586                27.8218                25.6914

                     25                     26                     27
                      A                      A                      A
 Frequencies --   1129.7612              1130.4768              1195.6144
 Red. masses --      2.0565                 1.8293                 2.0252
 Frc consts  --      1.5465                 1.3774                 1.7057
 IR Inten    --     31.4051                16.5623                21.9361

                     28                     29                     30
                      A                      A                      A
 Frequencies --   1220.6520              1223.7395              1273.4864
 Red. masses --      1.1165                 1.1272                 2.8335
 Frc consts  --      0.9802                 0.9945                 2.7075
 IR Inten    --      3.1830                 7.9641                44.5072

                     31                     32                     33
                      A                      A                      A
 Frequencies --   1281.3001              1333.0929              1380.1015
 Red. masses --      1.6646                 1.5890                 1.2871
 Frc consts  --      1.6101                 1.6638                 1.4444
 IR Inten    --     12.8695                 3.9646                 4.6713

                     34                     35                     36
                      A                      A                      A
 Frequencies --   1382.0147              1410.0149              1414.6175
 Red. masses --      1.6312                 1.5178                 1.4826
 Frc consts  --      1.8356                 1.7779                 1.7481
 IR Inten    --     18.3750                 3.7200                28.6358

                     37                     38                     39
                      A                      A                      A
 Frequencies --   1481.2305              1487.2186              1513.9372
 Red. masses --      1.0601                 1.0458                 1.0828
 Frc consts  --      1.3704                 1.3629                 1.4622
 IR Inten    --      1.5910                 1.8679                 0.0640

                     40                     41                     42
                      A                      A                      A
 Frequencies --   1525.4778              1681.2920              3001.3785
 Red. masses --      1.0932                 6.4027                 1.0559
 Frc consts  --      1.4989                10.6634                 5.6042
 IR Inten    --      0.6946                 8.1062                61.7912

                     43                     44                     45
                      A                      A                      A
 Frequencies --   3003.9507              3040.0892              3043.7192
 Red. masses --      1.0567                 1.1089                 1.1095
 Frc consts  --      5.6181                 6.0383                 6.0558
 IR Inten    --     74.5183                36.9713                48.5465

                     46                     47                     48
                      A                      A                      A
 Frequencies --   3059.0837              3096.4006              3137.4709
 Red. masses --      1.0347                 1.0870                 1.1024
 Frc consts  --      5.7047                 6.1402                 6.3939
 IR Inten    --      9.2613                28.5527                12.6392

                     49                     50                     51
                      A                      A                      A
 Frequencies --   3146.2361              3183.2744              3207.4441
 Red. masses --      1.1024                 1.0855                 1.1041
 Frc consts  --      6.4295                 6.4810                 6.6926
 IR Inten    --     10.3880                 6.1757                15.1313

 - Thermochemistry -
 -------------------
 Temperature   298.150 Kelvin.  Pressure   1.00000 Atm.
 Atom     1 has atomic number  6 and mass  12.00000

 Molecular mass:   126.06808 amu.
 Principal axes and moments of inertia in atomic units:
                           1         2         3
     Eigenvalues --   667.071111024.637231027.04046
           X            0.99953  -0.00001  -0.03063
           Y            0.03063   0.00058   0.99953
           Z            0.00000   1.00000  -0.00058
 This molecule is an asymmetric top.
 Rotational symmetry number  1.
 Warning -- assumption of classical behavior for rotation
           may cause significant error
 Rotational temperatures (Kelvin)      0.12984     0.08453     0.08433
 Rotational constants (GHZ):           2.70547     1.76135     1.75723
 Zero-point vibrational energy     422147.3 (Joules/Mol)
                                  100.89562 (Kcal/Mol)
 Warning -- explicit consideration of   9 degrees of freedom as
           vibrations may cause significant error
 Vibrational temperatures:    249.55   288.51   408.81   424.37   493.38
          (Kelvin)            559.83   664.89   707.84   835.32   906.09
                              942.83  1034.36  1075.32  1205.04  1212.68
                             1282.87  1345.72  1368.90  1375.17  1387.33
                             1415.41  1526.06  1546.51  1618.86  1625.47
                             1626.50  1720.22  1756.24  1760.69  1832.26
                             1843.50  1918.02  1985.66  1988.41  2028.69
                             2035.32  2131.16  2139.77  2178.22  2194.82
                             2419.00  4318.31  4322.01  4374.00  4379.23
                             4401.33  4455.02  4514.12  4526.73  4580.02
                             4614.79

 Zero-point correction=                           0.160787 (Hartree/Particle)
 Thermal correction to Energy=                    0.168136
 Thermal correction to Enthalpy=                  0.169080
 Thermal correction to Gibbs Free Energy=         0.129622
 Sum of electronic and zero-point Energies=           -423.038179
 Sum of electronic and thermal Energies=              -423.030830
 Sum of electronic and thermal Enthalpies=            -423.029886
 Sum of electronic and thermal Free Energies=         -423.069344

                     E (Thermal)             CV                S
                      KCal/Mol        Cal/Mol-Kelvin    Cal/Mol-Kelvin
 Total                  105.507             30.251             83.048
 Electronic               0.000              0.000              0.000
 Translational            0.889              2.981             40.409
 Rotational               0.889              2.981             28.042
 Vibrational            103.730             24.289             14.597
 Vibration     1          0.627              1.875              2.398
 Vibration     2          0.638              1.839              2.128
 Vibration     3          0.683              1.703              1.509
 Vibration     4          0.689              1.683              1.445
 Vibration     5          0.722              1.590              1.199
 Vibration     6          0.757              1.493              1.004
 Vibration     7          0.820              1.334              0.760
 Vibration     8          0.848              1.268              0.678
 Vibration     9          0.937              1.073              0.484

 Normal termination of Gaussian 09 at Mon Jan 27 19:24:36 2020.
