 Gaussian 09, Revision D.01,
 Gaussian 09:  ES64L-G09RevD.01 24-Apr-2013

 -----------------------------
 # b3lyp 6-31G(2df,p) opt Freq
 -----------------------------

 -----
 titel
 -----
 Symbolic Z-matrix:
 Charge =  0 Multiplicity = 1

 SCF Done:  E(RB3LYP) =  -423.120205738     A.U. after   14 cycles
 Optimization completed.
    -- Stationary point found.
 Normal termination of Gaussian 09 at Mon Jan 27 15:43:57 2020.

 ----------------------------------------------------------------------
 #N Geom=AllCheck Guess=TCheck SCRF=Check GenChk RB3LYP/6-31G(2df,p) Fr
 eq
 ----------------------------------------------------------------------

 Structure from the checkpoint file:  "/scratch/puck/g09_cfd0adb9-ea2e-45fd-b87b-79f8c6e68c50/Gau-81981.chk"
 -----
 titel
 -----
 Charge =  0 Multiplicity = 1

                         Standard orientation:
 ---------------------------------------------------------------------
 Center     Atomic      Atomic             Coordinates (Angstroms)
 Number     Number       Type             X           Y           Z
 ---------------------------------------------------------------------
      1          8           0       -0.253758    2.287117   -0.129919
      2          6           0        0.189741    0.942685   -0.263238
      3          6           0        1.615504    0.791887    0.318548
      4          6           0        2.278876   -0.467592    0.010422
      5          6           0        2.852157   -1.485606   -0.269055
      6          6           0       -0.860432    0.122565    0.479494
      7          6           0       -2.263677    0.063618   -0.158133
      8          6           0       -2.013294   -1.456820   -0.214267
      9          8           0       -0.685226   -1.300346    0.332919
     10          1           0        0.311579    2.848516   -0.669291
     11          1           0        0.200324    0.627853   -1.317776
     12          1           0        2.222904    1.617253   -0.079264
     13          1           0        1.567409    0.948620    1.403618
     14          1           0        3.338275   -2.400454   -0.500435
     15          1           0       -0.854372    0.422146    1.537392
     16          1           0       -3.087498    0.391576    0.476057
     17          1           0       -2.336199    0.563185   -1.125427
     18          1           0       -2.651206   -2.064334    0.439514
     19          1           0       -1.992593   -1.912950   -1.211012
 ---------------------------------------------------------------------

 SCF Done:  E(RB3LYP) =  -423.120205738     A.U. after    1 cycles

 The electronic state is 1-A.
 Alpha  occ. eigenvalues --  -19.14664 -19.12825 -10.24002 -10.23159 -10.22771
 Alpha  occ. eigenvalues --  -10.20748 -10.18528 -10.17468 -10.16310  -1.03833
 Alpha  occ. eigenvalues --   -1.02557  -0.79503  -0.74603  -0.72274  -0.68760
 Alpha  occ. eigenvalues --   -0.62163  -0.55443  -0.52534  -0.51723  -0.48715
 Alpha  occ. eigenvalues --   -0.48410  -0.46044  -0.43473  -0.42663  -0.41258
 Alpha  occ. eigenvalues --   -0.38872  -0.37136  -0.34712  -0.32067  -0.30362
 Alpha  occ. eigenvalues --   -0.28770  -0.25689  -0.25608  -0.24079
 Alpha virt. eigenvalues --    0.05340   0.06122   0.06480   0.09339   0.10343
 Alpha virt. eigenvalues --    0.11064   0.13593   0.14038   0.14650   0.15878
 Alpha virt. eigenvalues --    0.16950   0.18284   0.19090   0.21905   0.22102

 Mulliken charges:
               1
     1  O   -0.431413
     2  C    0.081643
     3  C   -0.383961
     4  C    0.326028
     5  C   -0.454580
     6  C    0.180477
     7  C   -0.290154
     8  C   -0.063859
     9  O   -0.285497
    10  H    0.287403
    11  H    0.077975
    12  H    0.114744
    13  H    0.136152
    14  H    0.193421
    15  H    0.077955
    16  H    0.112977
    17  H    0.114251
    18  H    0.102047
    19  H    0.104388
 Sum of Mulliken charges =   0.00000

 Dipole moment (field-independent basis, Debye):
    X=             -0.5485    Y=              1.2009    Z=             -1.1139  Tot=              1.7274
 Quadrupole moment (field-independent basis, Debye-Ang):
   XX=            -50.5852   YY=            -50.5686   ZZ=            -51.8155
   XY=              3.2227   XZ=             -0.7277   YZ=             -0.6726

  Exact polarizability:  83.091  -6.339  86.500  -2.078   4.331  60.499
 Approx polarizability: 106.322 -16.989 131.093  -5.083   9.890  93.219

                      1                      2                      3
                      A                      A                      A
 Frequencies --     35.9190                69.8051                86.5170
 Red. masses --      3.6646                 2.4348                 3.5749
 Frc consts  --      0.0028                 0.0070                 0.0158
 IR Inten    --      1.6361                 0.9667                 0.3325

                      4                      5                      6
                      A                      A                      A
 Frequencies --    149.7496               184.3305               264.6013
 Red. masses --      4.1737                 3.6781                 1.0800
 Frc consts  --      0.0551                 0.0736                 0.0446
 IR Inten    --      1.3955                 3.6158                95.9966

                      7                      8                      9
                      A                      A                      A
 Frequencies --    313.1386               341.1027               357.8241
 Red. masses --      4.8094                 2.2447                 3.4237
 Frc consts  --      0.2779                 0.1539                 0.2583
 IR Inten    --      5.2303                 0.7265                17.5964

                     10                     11                     12
                      A                      A                      A
 Frequencies --    411.2691               472.1898               549.6866
 Red. masses --      5.3410                 4.8206                 4.7923
 Frc consts  --      0.5323                 0.6333                 0.8531
 IR Inten    --      0.2887                 7.2048                 1.6230

                     13                     14                     15
                      A                      A                      A
 Frequencies --    623.4628               644.3565               760.6401
 Red. masses --      1.2176                 1.2263                 1.5509
 Frc consts  --      0.2789                 0.3000                 0.5287
 IR Inten    --     44.7747                44.1515                 1.2962

                     16                     17                     18
                      A                      A                      A
 Frequencies --    805.8262               861.0618               937.3843
 Red. masses --      1.4493                 3.5245                 1.5945
 Frc consts  --      0.5545                 1.5396                 0.8255
 IR Inten    --      0.8403                 6.7408                 7.2086

                     19                     20                     21
                      A                      A                      A
 Frequencies --    951.9070               974.4051               994.3347
 Red. masses --      2.4540                 3.9795                 3.1016
 Frc consts  --      1.3101                 2.2262                 1.8068
 IR Inten    --     13.7479                10.6165                28.6141

                     22                     23                     24
                      A                      A                      A
 Frequencies --   1040.9993              1043.3876              1081.2876
 Red. masses --      4.5800                 5.7797                 4.5852
 Frc consts  --      2.9243                 3.7072                 3.1586
 IR Inten    --    111.6645                35.3185                46.2241

                     25                     26                     27
                      A                      A                      A
 Frequencies --   1104.9225              1117.3781              1162.7664
 Red. masses --      2.3692                 1.9180                 1.1710
 Frc consts  --      1.7042                 1.4109                 0.9328
 IR Inten    --     16.9314                13.5652                 1.1025

                     28                     29                     30
                      A                      A                      A
 Frequencies --   1204.6383              1211.0169              1251.7998
 Red. masses --      1.2341                 1.1427                 1.2994
 Frc consts  --      1.0552                 0.9874                 1.1997
 IR Inten    --      9.4914                23.2943                10.9329

                     31                     32                     33
                      A                      A                      A
 Frequencies --   1255.1128              1283.0010              1303.4780
 Red. masses --      1.4992                 1.2825                 1.2939
 Frc consts  --      1.3914                 1.2438                 1.2953
 IR Inten    --      6.0744                 5.2462                 4.2804

                     34                     35                     36
                      A                      A                      A
 Frequencies --   1357.4269              1363.7948              1378.5939
 Red. masses --      1.3809                 1.3188                 1.3199
 Frc consts  --      1.4991                 1.4452                 1.4779
 IR Inten    --     11.0819                12.2982                 2.0523

                     37                     38                     39
                      A                      A                      A
 Frequencies --   1442.4409              1469.4707              1493.5664
 Red. masses --      1.5198                 1.1640                 1.1036
 Frc consts  --      1.8631                 1.4809                 1.4505
 IR Inten    --     16.1761                 7.2922                 4.3682

                     40                     41                     42
                      A                      A                      A
 Frequencies --   1531.2269              2242.5236              2987.3461
 Red. masses --      1.1147                 5.9314                 1.0814
 Frc consts  --      1.5399                17.5744                 5.6858
 IR Inten    --      0.9750                 1.7363                 2.1050

                     43                     44                     45
                      A                      A                      A
 Frequencies --   3004.4519              3006.2470              3018.2028
 Red. masses --      1.0744                 1.0731                 1.0582
 Frc consts  --      5.7142                 5.7142                 5.6794
 IR Inten    --     33.8938                90.8660                60.3069

                     46                     47                     48
                      A                      A                      A
 Frequencies --   3050.4232              3057.3706              3087.4932
 Red. masses --      1.0962                 1.1109                 1.0598
 Frc consts  --      6.0097                 6.1179                 5.9522
 IR Inten    --     17.6099                38.0039                22.2699

                     49                     50                     51
                      A                      A                      A
 Frequencies --   3142.2138              3508.7780              3823.2737
 Red. masses --      1.1086                 1.1623                 1.0664
 Frc consts  --      6.4494                 8.4307                 9.1841
 IR Inten    --     22.9687                61.2818                22.9864

 - Thermochemistry -
 -------------------
 Temperature   298.150 Kelvin.  Pressure   1.00000 Atm.
 Atom     1 has atomic number  8 and mass  15.99491

 Molecular mass:   126.06808 amu.
 Principal axes and moments of inertia in atomic units:
                           1         2         3
     Eigenvalues --   816.704051369.857342054.02019
           X            0.99959   0.02851   0.00295
           Y           -0.02853   0.99957   0.00664
           Z           -0.00276  -0.00672   0.99997
 This molecule is an asymmetric top.
 Rotational symmetry number  1.
 Warning -- assumption of classical behavior for rotation
           may cause significant error
 Rotational temperatures (Kelvin)      0.10605     0.06323     0.04217
 Rotational constants (GHZ):           2.20979     1.31747     0.87864
 Zero-point vibrational energy     411600.0 (Joules/Mol)
                                   98.37476 (Kcal/Mol)
 Warning -- explicit consideration of  12 degrees of freedom as
           vibrations may cause significant error
 Vibrational temperatures:     51.68   100.43   124.48   215.46   265.21
          (Kelvin)            380.70   450.54   490.77   514.83   591.72
                              679.37   790.88   897.02   927.08  1094.39
                             1159.40  1238.87  1348.69  1369.58  1401.95
                             1430.62  1497.76  1501.20  1555.73  1589.73
                             1607.66  1672.96  1733.20  1742.38  1801.06
                             1805.83  1845.95  1875.41  1953.03  1962.19
                             1983.49  2075.35  2114.24  2148.91  2203.09
                             3226.49  4298.12  4322.73  4325.31  4342.52
                             4388.87  4398.87  4442.21  4520.94  5048.34
                             5500.83

 Zero-point correction=                           0.156770 (Hartree/Particle)
 Thermal correction to Energy=                    0.166550
 Thermal correction to Enthalpy=                  0.167494
 Thermal correction to Gibbs Free Energy=         0.120926
 Sum of electronic and zero-point Energies=           -422.963436
 Sum of electronic and thermal Energies=              -422.953656
 Sum of electronic and thermal Enthalpies=            -422.952712
 Sum of electronic and thermal Free Energies=         -422.999279

                     E (Thermal)             CV                S
                      KCal/Mol        Cal/Mol-Kelvin    Cal/Mol-Kelvin
 Total                  104.512             35.044             98.010
 Electronic               0.000              0.000              0.000
 Translational            0.889              2.981             40.409
 Rotational               0.889              2.981             29.220
 Vibrational            102.734             29.082             28.381
 Vibration     1          0.594              1.982              5.472
 Vibration     2          0.598              1.969              4.159
 Vibration     3          0.601              1.959              3.737
 Vibration     4          0.618              1.903              2.675
 Vibration     5          0.631              1.861              2.284
 Vibration     6          0.671              1.738              1.631
 Vibration     7          0.701              1.649              1.346
 Vibration     8          0.721              1.593              1.207
 Vibration     9          0.733              1.559              1.132
 Vibration    10          0.775              1.446              0.922
 Vibration    11          0.829              1.312              0.731
 Vibration    12          0.905              1.140              0.545

 Normal termination of Gaussian 09 at Mon Jan 27 16:22:53 2020.
