 Gaussian 09, Revision D.01,
 Gaussian 09:  ES64L-G09RevD.01 24-Apr-2013

 -----------------------------
 # b3lyp 6-31G(2df,p) opt Freq
 -----------------------------

 -----
 titel
 -----
 Symbolic Z-matrix:
 Charge =  0 Multiplicity = 1

 SCF Done:  E(RB3LYP) =  -423.221281559     A.U. after   14 cycles
 Optimization completed.
    -- Stationary point found.
 Normal termination of Gaussian 09 at Tue Jan 28 12:01:13 2020.

 ----------------------------------------------------------------------
 #N Geom=AllCheck Guess=TCheck SCRF=Check GenChk RB3LYP/6-31G(2df,p) Fr
 eq
 ----------------------------------------------------------------------

 Structure from the checkpoint file:  "/scratch/puck/g09_4bde2b3f-0c81-48c7-91f4-52fdde360f80/Gau-102644.chk"
 -----
 titel
 -----
 Charge =  0 Multiplicity = 1

                         Standard orientation:
 ---------------------------------------------------------------------
 Center     Atomic      Atomic             Coordinates (Angstroms)
 Number     Number       Type             X           Y           Z
 ---------------------------------------------------------------------
      1          8           0       -2.872424   -0.712290   -0.096153
      2          6           0       -1.944320    0.327195    0.186377
      3          6           0       -0.520102   -0.022930   -0.262679
      4          6           0        0.013878   -1.303073    0.396701
      5          6           0        1.424746   -1.644392   -0.094542
      6          6           0        2.331312   -0.446740   -0.063518
      7          6           0        1.881942    0.814176   -0.015254
      8          6           0        0.441762    1.147792   -0.043612
      9          8           0        0.051621    2.295353    0.063960
     10          1           0       -3.027556   -0.718685   -1.045884
     11          1           0       -2.247316    1.281551   -0.258286
     12          1           0       -1.964036    0.458035    1.273777
     13          1           0       -0.538716   -0.184739   -1.355135
     14          1           0        0.042059   -1.152761    1.484210
     15          1           0       -0.681702   -2.124972    0.209264
     16          1           0        1.860167   -2.452209    0.505293
     17          1           0        1.388913   -2.033972   -1.124322
     18          1           0        3.403313   -0.633010   -0.082398
     19          1           0        2.555989    1.664088    0.030190
 ---------------------------------------------------------------------

 SCF Done:  E(RB3LYP) =  -423.221281559     A.U. after    1 cycles

 The electronic state is 1-A.
 Alpha  occ. eigenvalues --  -19.13641 -19.12307 -10.26311 -10.22376 -10.21336
 Alpha  occ. eigenvalues --  -10.20216 -10.19370 -10.19091 -10.19056  -1.03217
 Alpha  occ. eigenvalues --   -1.01588  -0.84363  -0.77276  -0.73510  -0.66716
 Alpha  occ. eigenvalues --   -0.61276  -0.58926  -0.52217  -0.50150  -0.48718
 Alpha  occ. eigenvalues --   -0.45037  -0.44833  -0.44162  -0.42293  -0.40712
 Alpha  occ. eigenvalues --   -0.39411  -0.38470  -0.35495  -0.34896  -0.33905
 Alpha  occ. eigenvalues --   -0.31954  -0.27305  -0.27190  -0.23697
 Alpha virt. eigenvalues --   -0.05039   0.05227   0.07903   0.09210   0.11821
 Alpha virt. eigenvalues --    0.12574   0.13831   0.15548   0.16208   0.17297
 Alpha virt. eigenvalues --    0.18227   0.19040   0.19804   0.22031   0.22818

 Mulliken charges:
               1
     1  O   -0.421737
     2  C   -0.084094
     3  C   -0.136364
     4  C   -0.207367
     5  C   -0.278181
     6  C   -0.039512
     7  C   -0.137596
     8  C    0.377096
     9  O   -0.343211
    10  H    0.281524
    11  H    0.114101
    12  H    0.115960
    13  H    0.086846
    14  H    0.106614
    15  H    0.116108
    16  H    0.114600
    17  H    0.120784
    18  H    0.107723
    19  H    0.106702
 Sum of Mulliken charges =   0.00000

 Dipole moment (field-independent basis, Debye):
    X=              1.7108    Y=             -2.5517    Z=             -1.3917  Tot=              3.3727
 Quadrupole moment (field-independent basis, Debye-Ang):
   XX=            -51.7276   YY=            -59.8474   ZZ=            -50.4962
   XY=             -2.6059   XZ=              3.9452   YZ=              0.7600

  Exact polarizability:  88.273  -7.033  89.824   0.780   1.905  56.474
 Approx polarizability: 117.022 -19.353 150.172   0.553   5.309  90.858

                      1                      2                      3
                      A                      A                      A
 Frequencies --     74.3066               105.0050               170.0475
 Red. masses --      3.9133                 2.7058                 3.4295
 Frc consts  --      0.0127                 0.0176                 0.0584
 IR Inten    --      0.9331                 6.0648                 1.3627

                      4                      5                      6
                      A                      A                      A
 Frequencies --    214.0141               284.8677               314.1437
 Red. masses --      2.6645                 1.2114                 2.1554
 Frc consts  --      0.0719                 0.0579                 0.1253
 IR Inten    --      8.2850                91.4210                 7.7418

                      7                      8                      9
                      A                      A                      A
 Frequencies --    326.0476               369.0768               469.8768
 Red. masses --      6.9067                 2.0892                 6.1388
 Frc consts  --      0.4326                 0.1677                 0.7985
 IR Inten    --      2.0498                10.7359                 4.8942

                     10                     11                     12
                      A                      A                      A
 Frequencies --    496.5061               539.3527               637.1185
 Red. masses --      3.6583                 5.0564                 2.0553
 Frc consts  --      0.5313                 0.8666                 0.4915
 IR Inten    --      9.5180                10.0549                 6.0437

                     13                     14                     15
                      A                      A                      A
 Frequencies --    724.2377               759.9724               826.6758
 Red. masses --      2.3238                 1.9798                 2.9214
 Frc consts  --      0.7182                 0.6737                 1.1763
 IR Inten    --      3.9153                 4.4864                11.0122

                     16                     17                     18
                      A                      A                      A
 Frequencies --    848.5542               904.2802               937.2655
 Red. masses --      2.0484                 2.4144                 1.4430
 Frc consts  --      0.8690                 1.1632                 0.7469
 IR Inten    --      2.5269                 6.2986                12.7680

                     19                     20                     21
                      A                      A                      A
 Frequencies --   1005.4140              1027.0796              1045.9225
 Red. masses --      2.1942                 1.2696                 2.7990
 Frc consts  --      1.3068                 0.7891                 1.8040
 IR Inten    --     23.2742                 6.7552                50.0751

                     22                     23                     24
                      A                      A                      A
 Frequencies --   1053.7363              1092.7754              1113.9049
 Red. masses --      1.9877                 2.5157                 2.1168
 Frc consts  --      1.3003                 1.7700                 1.5475
 IR Inten    --     11.5128                32.9459                 2.6125

                     25                     26                     27
                      A                      A                      A
 Frequencies --   1136.5171              1167.7387              1191.1319
 Red. masses --      1.4122                 1.3234                 1.5627
 Frc consts  --      1.0747                 1.0632                 1.3063
 IR Inten    --     11.9491                23.6250                10.6601

                     28                     29                     30
                      A                      A                      A
 Frequencies --   1238.5624              1259.5532              1316.7426
 Red. masses --      1.3988                 1.2837                 1.3139
 Frc consts  --      1.2643                 1.1999                 1.3422
 IR Inten    --     35.4429                12.4396                 1.4238

                     31                     32                     33
                      A                      A                      A
 Frequencies --   1331.4093              1365.2656              1383.7995
 Red. masses --      1.5459                 1.5109                 1.5202
 Frc consts  --      1.6145                 1.6593                 1.7151
 IR Inten    --      8.8097                 0.0683                 9.0342

                     34                     35                     36
                      A                      A                      A
 Frequencies --   1390.8465              1407.5234              1410.8186
 Red. masses --      1.4084                 1.6778                 1.2426
 Frc consts  --      1.6052                 1.9584                 1.4572
 IR Inten    --      1.4719                 9.7977                49.3880

                     37                     38                     39
                      A                      A                      A
 Frequencies --   1467.3407              1497.2927              1501.5687
 Red. masses --      1.0890                 1.0923                 1.0870
 Frc consts  --      1.3815                 1.4428                 1.4441
 IR Inten    --      6.2647                 2.9929                 1.4677

                     40                     41                     42
                      A                      A                      A
 Frequencies --   1682.5852              1765.5008              2955.3816
 Red. masses --      6.5866                11.9673                 1.0794
 Frc consts  --     10.9867                21.9777                 5.5547
 IR Inten    --     15.0550               208.7595                15.1510

                     43                     44                     45
                      A                      A                      A
 Frequencies --   2991.1507              3026.0433              3039.0162
 Red. masses --      1.0709                 1.0673                 1.0581
 Frc consts  --      5.6450                 5.7581                 5.7576
 IR Inten    --     15.3017                20.5614                28.5362

                     46                     47                     48
                      A                      A                      A
 Frequencies --   3053.8891              3085.4939              3098.5977
 Red. masses --      1.0889                 1.1069                 1.0954
 Frc consts  --      5.9831                 6.2087                 6.1966
 IR Inten    --     27.7172                26.8459                18.3383

                     49                     50                     51
                      A                      A                      A
 Frequencies --   3148.3756              3186.6979              3817.8768
 Red. masses --      1.0868                 1.0951                 1.0663
 Frc consts  --      6.3474                 6.5524                 9.1571
 IR Inten    --     13.7336                12.6027                19.3543

 - Thermochemistry -
 -------------------
 Temperature   298.150 Kelvin.  Pressure   1.00000 Atm.
 Atom     1 has atomic number  8 and mass  15.99491

 Molecular mass:   126.06808 amu.
 Principal axes and moments of inertia in atomic units:
                           1         2         3
     Eigenvalues --   735.397131320.837381970.65590
           X            0.99946  -0.03281   0.00305
           Y            0.03280   0.99946   0.00136
           Z           -0.00309  -0.00126   0.99999
 This molecule is an asymmetric top.
 Rotational symmetry number  1.
 Warning -- assumption of classical behavior for rotation
           may cause significant error
 Rotational temperatures (Kelvin)      0.11778     0.06557     0.04395
 Rotational constants (GHZ):           2.45410     1.36636     0.91581
 Zero-point vibrational energy     420229.6 (Joules/Mol)
                                  100.43728 (Kcal/Mol)
 Warning -- explicit consideration of  11 degrees of freedom as
           vibrations may cause significant error
 Vibrational temperatures:    106.91   151.08   244.66   307.92   409.86
          (Kelvin)            451.98   469.11   531.02   676.05   714.36
                              776.01   916.67  1042.02  1093.43  1189.40
                             1220.88  1301.06  1348.51  1446.56  1477.74
                             1504.85  1516.09  1572.26  1602.66  1635.19
                             1680.11  1713.77  1782.01  1812.21  1894.50
                             1915.60  1964.31  1990.98  2001.12  2025.11
                             2029.85  2111.17  2154.27  2160.42  2420.86
                             2540.16  4252.13  4303.59  4353.80  4372.46
                             4393.86  4439.33  4458.19  4529.80  4584.94
                             5493.07

 Zero-point correction=                           0.160057 (Hartree/Particle)
 Thermal correction to Energy=                    0.168704
 Thermal correction to Enthalpy=                  0.169649
 Thermal correction to Gibbs Free Energy=         0.126485
 Sum of electronic and zero-point Energies=           -423.061225
 Sum of electronic and thermal Energies=              -423.052577
 Sum of electronic and thermal Enthalpies=            -423.051633
 Sum of electronic and thermal Free Energies=         -423.094796

                     E (Thermal)             CV                S
                      KCal/Mol        Cal/Mol-Kelvin    Cal/Mol-Kelvin
 Total                  105.864             32.487             90.845
 Electronic               0.000              0.000              0.000
 Translational            0.889              2.981             40.409
 Rotational               0.889              2.981             29.039
 Vibrational            104.086             26.525             21.397
 Vibration     1          0.599              1.966              4.036
 Vibration     2          0.605              1.945              3.359
 Vibration     3          0.625              1.879              2.435
 Vibration     4          0.644              1.820              2.009
 Vibration     5          0.683              1.702              1.504
 Vibration     6          0.702              1.647              1.340
 Vibration     7          0.710              1.623              1.280
 Vibration     8          0.741              1.536              1.084
 Vibration     9          0.827              1.317              0.738
 Vibration    10          0.852              1.258              0.667
 Vibration    11          0.894              1.163              0.567

 Optimization completed.
    -- Stationary point found.
 Normal termination of Gaussian 09 at Tue Jan 28 12:40:51 2020.
