 Gaussian 09, Revision D.01,
 Gaussian 09:  ES64L-G09RevD.01 24-Apr-2013

 -----------------------------
 # b3lyp 6-31G(2df,p) opt Freq
 -----------------------------

 -----
 titel
 -----
 Symbolic Z-matrix:
 Charge =  0 Multiplicity = 1

 SCF Done:  E(RB3LYP) =  -423.148013724     A.U. after   13 cycles
 SCF Done:  E(RB3LYP) =  -423.148014432     A.U. after    6 cycles
 SCF Done:  E(RB3LYP) =  -423.148014807     A.U. after    6 cycles
 Optimization completed.
    -- Stationary point found.
 Normal termination of Gaussian 09 at Mon Jan 27 22:17:22 2020.

 ----------------------------------------------------------------------
 #N Geom=AllCheck Guess=TCheck SCRF=Check GenChk RB3LYP/6-31G(2df,p) Fr
 eq
 ----------------------------------------------------------------------

 Structure from the checkpoint file:  "/scratch/puck/g09_7666c8bc-ccbf-4ee3-9915-9b79041ca409/Gau-46862.chk"
 -----
 titel
 -----
 Charge =  0 Multiplicity = 1

                         Standard orientation:
 ---------------------------------------------------------------------
 Center     Atomic      Atomic             Coordinates (Angstroms)
 Number     Number       Type             X           Y           Z
 ---------------------------------------------------------------------
      1          8           0        2.063833   -1.100810   -0.119224
      2          6           0        0.980071   -0.592021    0.626569
      3          6           0       -0.335062   -1.236434    0.173380
      4          6           0       -1.550761   -0.333174    0.664280
      5          6           0       -1.921671   -0.113314   -0.828127
      6          6           0       -0.409468   -0.262319   -1.045349
      7          6           0        0.360558    0.678635    0.002995
      8          8           0        1.272345    1.666562   -0.363545
      9          6           0       -0.787601    0.975029    0.983503
     10          1           0        2.641515   -0.352163   -0.310046
     11          1           0        1.217086   -0.552951    1.700442
     12          1           0       -0.475065   -2.312236    0.094823
     13          1           0       -2.278884   -0.689515    1.392247
     14          1           0       -2.466172   -0.960059   -1.256598
     15          1           0       -2.428961    0.820824   -1.095569
     16          1           0        0.075208   -0.452447   -1.999454
     17          1           0        0.817462    2.342328   -0.876652
     18          1           0       -0.437631    1.063667    2.015951
     19          1           0       -1.370379    1.868128    0.733503
 ---------------------------------------------------------------------

 SCF Done:  E(RB3LYP) =  -423.148014807     A.U. after    1 cycles

 The electronic state is 1-A.
 Alpha  occ. eigenvalues --  -19.15063 -19.12876 -10.23597 -10.22130 -10.19496
 Alpha  occ. eigenvalues --  -10.18553 -10.18400 -10.18128 -10.18082  -1.03893
 Alpha  occ. eigenvalues --   -1.00956  -0.90430  -0.73939  -0.71488  -0.65327
 Alpha  occ. eigenvalues --   -0.60371  -0.57212  -0.53311  -0.51797  -0.49225
 Alpha  occ. eigenvalues --   -0.47391  -0.44961  -0.43428  -0.41117  -0.37772
 Alpha  occ. eigenvalues --   -0.37566  -0.35246  -0.33695  -0.32908  -0.31031
 Alpha  occ. eigenvalues --   -0.30460  -0.28209  -0.25313  -0.25169
 Alpha virt. eigenvalues --    0.06522   0.09722   0.11290   0.11895   0.12942
 Alpha virt. eigenvalues --    0.13735   0.14982   0.15437   0.17023   0.17746
 Alpha virt. eigenvalues --    0.18265   0.18820   0.20529   0.21197   0.23967

 Mulliken charges:
               1
     1  O   -0.459664
     2  C    0.110271
     3  C   -0.040257
     4  C   -0.050800
     5  C   -0.245780
     6  C   -0.099646
     7  C    0.361363
     8  O   -0.503941
     9  C   -0.282392
    10  H    0.290527
    11  H    0.054946
    12  H    0.076395
    13  H    0.065193
    14  H    0.099329
    15  H    0.081690
    16  H    0.075637
    17  H    0.282897
    18  H    0.098537
    19  H    0.085695
 Sum of Mulliken charges =   0.00000

 Dipole moment (field-independent basis, Debye):
    X=             -1.4331    Y=              1.5883    Z=             -0.2897  Tot=              2.1588
 Quadrupole moment (field-independent basis, Debye-Ang):
   XX=            -54.5455   YY=            -52.1788   ZZ=            -51.7660
   XY=              2.0706   XZ=             -0.3332   YZ=             -2.3461

  Exact polarizability:  79.670   0.120  72.558   0.709  -0.053  69.458
 Approx polarizability: 112.038   0.360 109.971  -0.496  -1.581 105.920

                      1                      2                      3
                      A                      A                      A
 Frequencies --    170.6929               218.1373               230.6875
 Red. masses --      1.5689                 3.6778                 1.9988
 Frc consts  --      0.0269                 0.1031                 0.0627
 IR Inten    --     54.8663                 2.4582                48.6214

                      4                      5                      6
                      A                      A                      A
 Frequencies --    296.7381               350.4102               388.9146
 Red. masses --      2.1050                 1.5880                 3.1460
 Frc consts  --      0.1092                 0.1149                 0.2804
 IR Inten    --     19.4582                73.7595                 3.9689

                      7                      8                      9
                      A                      A                      A
 Frequencies --    457.2532               469.5993               526.4462
 Red. masses --      2.2172                 1.9843                 4.3368
 Frc consts  --      0.2731                 0.2578                 0.7081
 IR Inten    --      5.7960                 2.8033                 2.4631

                     10                     11                     12
                      A                      A                      A
 Frequencies --    635.6060               664.9648               736.4631
 Red. masses --      5.7340                 3.8269                 3.8415
 Frc consts  --      1.3649                 0.9970                 1.2276
 IR Inten    --     12.8313                 4.8115                 6.1008

                     13                     14                     15
                      A                      A                      A
 Frequencies --    827.8874               835.4786               854.0563
 Red. masses --      2.3664                 2.8745                 1.8840
 Frc consts  --      0.9556                 1.1822                 0.8097
 IR Inten    --      1.1677                 4.5063                 6.5453

                     16                     17                     18
                      A                      A                      A
 Frequencies --    885.1177               926.3746               948.5676
 Red. masses --      2.0572                 2.3124                 2.0771
 Frc consts  --      0.9496                 1.1692                 1.1012
 IR Inten    --      3.6692                 1.7038                 2.2797

                     19                     20                     21
                      A                      A                      A
 Frequencies --    971.5744               989.9906              1003.9412
 Red. masses --      1.8203                 1.5970                 1.9685
 Frc consts  --      1.0124                 0.9222                 1.1690
 IR Inten    --      0.8624                 3.8766                 3.4762

                     22                     23                     24
                      A                      A                      A
 Frequencies --   1029.6982              1055.0524              1068.7032
 Red. masses --      1.6784                 1.5205                 2.7832
 Frc consts  --      1.0485                 0.9972                 1.8729
 IR Inten    --      9.0431                 1.8088                10.8672

                     25                     26                     27
                      A                      A                      A
 Frequencies --   1104.2491              1128.1601              1143.6467
 Red. masses --      1.3615                 1.8701                 1.7762
 Frc consts  --      0.9782                 1.4023                 1.3688
 IR Inten    --     31.0665                62.5311                10.6861

                     28                     29                     30
                      A                      A                      A
 Frequencies --   1176.0411              1187.7550              1209.5980
 Red. masses --      1.7206                 1.6715                 1.4347
 Frc consts  --      1.4021                 1.3894                 1.2368
 IR Inten    --     29.2224                18.4906                31.2710

                     31                     32                     33
                      A                      A                      A
 Frequencies --   1217.6876              1245.7230              1252.7963
 Red. masses --      1.6090                 2.0240                 1.6914
 Frc consts  --      1.4057                 1.8506                 1.5641
 IR Inten    --      6.3946                58.1052                11.6216

                     34                     35                     36
                      A                      A                      A
 Frequencies --   1271.4632              1283.4816              1328.4564
 Red. masses --      1.7644                 1.6347                 1.9668
 Frc consts  --      1.6805                 1.5866                 2.0451
 IR Inten    --      0.9976                11.8256                59.4827

                     37                     38                     39
                      A                      A                      A
 Frequencies --   1347.6149              1384.1249              1408.9386
 Red. masses --      1.2750                 1.9173                 1.6514
 Frc consts  --      1.3643                 2.1641                 1.9314
 IR Inten    --     39.8963                41.5944                 1.6340

                     40                     41                     42
                      A                      A                      A
 Frequencies --   1492.2215              1512.7333              2985.2924
 Red. masses --      1.1167                 1.1134                 1.0844
 Frc consts  --      1.4651                 1.5012                 5.6938
 IR Inten    --      1.2454                 2.6177                75.5877

                     43                     44                     45
                      A                      A                      A
 Frequencies --   3030.3005              3042.2858              3089.8013
 Red. masses --      1.0600                 1.0598                 1.1035
 Frc consts  --      5.7351                 5.7792                 6.2069
 IR Inten    --     48.3429                44.7163                29.3343

                     46                     47                     48
                      A                      A                      A
 Frequencies --   3092.4898              3115.9798              3142.3503
 Red. masses --      1.1056                 1.0901                 1.0893
 Frc consts  --      6.2299                 6.2361                 6.3373
 IR Inten    --     29.3571                44.3553                33.3677

                     49                     50                     51
                      A                      A                      A
 Frequencies --   3153.2968              3787.2406              3814.3435
 Red. masses --      1.0924                 1.0659                 1.0660
 Frc consts  --      6.3996                 9.0079                 9.1376
 IR Inten    --     21.9330                31.9370                26.1196

 - Thermochemistry -
 -------------------
 Temperature   298.150 Kelvin.  Pressure   1.00000 Atm.
 Atom     1 has atomic number  8 and mass  15.99491

 Molecular mass:   126.06808 amu.
 Principal axes and moments of inertia in atomic units:
                           1         2         3
     Eigenvalues --   666.960861009.205871227.21321
           X            0.99998   0.00264   0.00647
           Y           -0.00271   0.99994   0.01080
           Z           -0.00644  -0.01082   0.99992
 This molecule is an asymmetric top.
 Rotational symmetry number  1.
 Warning -- assumption of classical behavior for rotation
           may cause significant error
 Rotational temperatures (Kelvin)      0.12986     0.08582     0.07058
 Rotational constants (GHZ):           2.70592     1.78828     1.47060
 Zero-point vibrational energy     421626.4 (Joules/Mol)
                                  100.77112 (Kcal/Mol)
 Warning -- explicit consideration of   9 degrees of freedom as
           vibrations may cause significant error
 Vibrational temperatures:    245.59   313.85   331.91   426.94   504.16
          (Kelvin)            559.56   657.88   675.65   757.44   914.49
                              956.73  1059.60  1191.14  1202.07  1228.79
                             1273.49  1332.84  1364.78  1397.88  1424.37
                             1444.45  1481.50  1517.98  1537.62  1588.77
                             1623.17  1645.45  1692.06  1708.91  1740.34
                             1751.98  1792.32  1802.49  1829.35  1846.64
                             1911.35  1938.91  1991.44  2027.15  2146.97
                             2176.48  4295.16  4359.92  4377.17  4445.53
                             4449.40  4483.19  4521.14  4536.89  5448.99
                             5487.98

 Zero-point correction=                           0.160589 (Hartree/Particle)
 Thermal correction to Energy=                    0.168053
 Thermal correction to Enthalpy=                  0.168997
 Thermal correction to Gibbs Free Energy=         0.129265
 Sum of electronic and zero-point Energies=           -422.987426
 Sum of electronic and thermal Energies=              -422.979962
 Sum of electronic and thermal Enthalpies=            -422.979018
 Sum of electronic and thermal Free Energies=         -423.018750

                     E (Thermal)             CV                S
                      KCal/Mol        Cal/Mol-Kelvin    Cal/Mol-Kelvin
 Total                  105.455             30.897             83.624
 Electronic               0.000              0.000              0.000
 Translational            0.889              2.981             40.409
 Rotational               0.889              2.981             28.204
 Vibrational            103.677             24.936             15.012
 Vibration     1          0.626              1.879              2.428
 Vibration     2          0.646              1.813              1.975
 Vibration     3          0.652              1.794              1.874
 Vibration     4          0.690              1.680              1.435
 Vibration     5          0.727              1.574              1.164
 Vibration     6          0.757              1.494              1.004
 Vibration     7          0.815              1.345              0.774
 Vibration     8          0.827              1.317              0.739
 Vibration     9          0.881              1.191              0.595

 Normal termination of Gaussian 09 at Mon Jan 27 23:09:30 2020.
