 Gaussian 09, Revision D.01,
 Gaussian 09:  ES64L-G09RevD.01 24-Apr-2013

 -----------------------------
 # b3lyp 6-31G(2df,p) opt Freq
 -----------------------------

 -----
 titel
 -----
 Symbolic Z-matrix:
 Charge =  0 Multiplicity = 1

 SCF Done:  E(RB3LYP) =  -423.168374184     A.U. after   14 cycles
 Optimization completed.
    -- Stationary point found.
 Normal termination of Gaussian 09 at Tue Jan 28 08:10:06 2020.

 ----------------------------------------------------------------------
 #N Geom=AllCheck Guess=TCheck SCRF=Check GenChk RB3LYP/6-31G(2df,p) Fr
 eq
 ----------------------------------------------------------------------

 Structure from the checkpoint file:  "/scratch/puck/g09_d195ebad-2767-473c-b8d7-a3c7b45cb287/Gau-127725.chk"
 -----
 titel
 -----
 Charge =  0 Multiplicity = 1

                         Standard orientation:
 ---------------------------------------------------------------------
 Center     Atomic      Atomic             Coordinates (Angstroms)
 Number     Number       Type             X           Y           Z
 ---------------------------------------------------------------------
      1          8           0        2.492367   -0.672857    0.725642
      2          6           0        1.669056   -0.354974   -0.401678
      3          6           0        1.305857    1.152300   -0.438047
      4          6           0        0.039597    1.514455    0.373174
      5          6           0       -1.085607    0.741778   -0.292125
      6          8           0       -2.295779    0.406327    0.448230
      7          6           0       -2.165033   -0.999185    0.085906
      8          6           0       -0.757864   -0.719887   -0.378846
      9          6           0        0.451958   -1.257724   -0.385045
     10          1           0        1.931943   -0.640549    1.509012
     11          1           0        2.310615   -0.576706   -1.262413
     12          1           0        2.176226    1.704328   -0.074128
     13          1           0        1.149201    1.454956   -1.481747
     14          1           0        0.132523    1.191667    1.416773
     15          1           0       -0.126705    2.595744    0.371089
     16          1           0       -1.357086    1.211802   -1.250370
     17          1           0       -2.287114   -1.669012    0.944623
     18          1           0       -2.883628   -1.280272   -0.696868
     19          1           0        0.633524   -2.320297   -0.246976
 ---------------------------------------------------------------------

 SCF Done:  E(RB3LYP) =  -423.168374184     A.U. after    1 cycles

 The electronic state is 1-A.
 Alpha  occ. eigenvalues --  -19.13783 -19.13572 -10.23994 -10.23877 -10.23441
 Alpha  occ. eigenvalues --  -10.19535 -10.18884 -10.18769 -10.18600  -1.03973
 Alpha  occ. eigenvalues --   -1.01694  -0.82447  -0.76273  -0.71770  -0.68443
 Alpha  occ. eigenvalues --   -0.62133  -0.59463  -0.53382  -0.50860  -0.48189
 Alpha  occ. eigenvalues --   -0.46614  -0.46084  -0.45069  -0.41667  -0.40632
 Alpha  occ. eigenvalues --   -0.38664  -0.36945  -0.35165  -0.34584  -0.31415
 Alpha  occ. eigenvalues --   -0.31099  -0.27511  -0.26258  -0.24469
 Alpha virt. eigenvalues --    0.00241   0.07551   0.08351   0.10401   0.11786
 Alpha virt. eigenvalues --    0.13426   0.14328   0.15151   0.15848   0.16996
 Alpha virt. eigenvalues --    0.17587   0.18436   0.19806   0.20553   0.22273

 Mulliken charges:
               1
     1  O   -0.432703
     2  C    0.108421
     3  C   -0.236227
     4  C   -0.259183
     5  C    0.110504
     6  O   -0.310292
     7  C   -0.163672
     8  C    0.253466
     9  C   -0.266534
    10  H    0.278035
    11  H    0.093445
    12  H    0.113035
    13  H    0.101771
    14  H    0.097398
    15  H    0.103331
    16  H    0.081955
    17  H    0.119985
    18  H    0.109497
    19  H    0.097769
 Sum of Mulliken charges =   0.00000

 Dipole moment (field-independent basis, Debye):
    X=             -0.2358    Y=             -0.2951    Z=             -0.5400  Tot=              0.6590
 Quadrupole moment (field-independent basis, Debye-Ang):
   XX=            -61.9881   YY=            -50.9272   ZZ=            -51.1654
   XY=              4.8336   XZ=              0.8747   YZ=             -1.4247

  Exact polarizability:  93.565   0.928  77.511  -0.428  -1.992  62.178
 Approx polarizability: 136.371  -7.386 110.981  -0.293  -2.530  98.457

                      1                      2                      3
                      A                      A                      A
 Frequencies --     94.8439               182.6418               216.9854
 Red. masses --      5.0497                 2.5747                 3.0223
 Frc consts  --      0.0268                 0.0506                 0.0838
 IR Inten    --      3.8805                 1.2433                 1.2906

                      4                      5                      6
                      A                      A                      A
 Frequencies --    288.1941               326.4273               350.1257
 Red. masses --      1.4096                 1.6735                 3.1619
 Frc consts  --      0.0690                 0.1051                 0.2284
 IR Inten    --     44.8669                32.2995                12.5605

                      7                      8                      9
                      A                      A                      A
 Frequencies --    439.7319               443.9874               466.7107
 Red. masses --      3.5573                 3.2927                 3.3829
 Frc consts  --      0.4053                 0.3824                 0.4341
 IR Inten    --      2.5704                 4.2978                 3.5572

                     10                     11                     12
                      A                      A                      A
 Frequencies --    539.2845               694.1052               749.3934
 Red. masses --      3.2384                 2.1238                 3.5204
 Frc consts  --      0.5549                 0.6028                 1.1648
 IR Inten    --      5.3485                 1.3225                 2.5365

                     13                     14                     15
                      A                      A                      A
 Frequencies --    795.0078               838.1462               875.8113
 Red. masses --      2.9805                 2.8891                 1.7470
 Frc consts  --      1.1099                 1.1958                 0.7895
 IR Inten    --      6.8038                21.2406                 4.6200

                     16                     17                     18
                      A                      A                      A
 Frequencies --    878.0448               956.5732               967.4937
 Red. masses --      1.9051                 2.6064                 3.1203
 Frc consts  --      0.8654                 1.4052                 1.7209
 IR Inten    --     18.2609                18.2234                31.5065

                     19                     20                     21
                      A                      A                      A
 Frequencies --    979.3137               986.3471              1037.1745
 Red. masses --      3.4250                 2.3025                 1.9941
 Frc consts  --      1.9353                 1.3198                 1.2638
 IR Inten    --     48.9731                34.5341                20.7181

                     22                     23                     24
                      A                      A                      A
 Frequencies --   1067.3744              1086.5200              1111.6373
 Red. masses --      2.5470                 2.5721                 1.8917
 Frc consts  --      1.7097                 1.7890                 1.3773
 IR Inten    --     38.1450                23.8640                14.6637

                     25                     26                     27
                      A                      A                      A
 Frequencies --   1115.9137              1140.9493              1167.6886
 Red. masses --      1.7749                 1.1616                 1.5489
 Frc consts  --      1.3023                 0.8909                 1.2443
 IR Inten    --      4.8090                 0.6426                10.3602

                     28                     29                     30
                      A                      A                      A
 Frequencies --   1200.7499              1257.6504              1280.5262
 Red. masses --      1.3168                 1.2899                 1.4669
 Frc consts  --      1.1186                 1.2020                 1.4172
 IR Inten    --     15.8847                12.8530                 2.8646

                     31                     32                     33
                      A                      A                      A
 Frequencies --   1301.7017              1323.5378              1332.9228
 Red. masses --      1.4554                 1.4896                 1.4116
 Frc consts  --      1.4530                 1.5374                 1.4777
 IR Inten    --      1.4897                 7.6066                 5.3029

                     34                     35                     36
                      A                      A                      A
 Frequencies --   1365.1036              1370.7156              1387.0500
 Red. masses --      1.4558                 1.4235                 1.6091
 Frc consts  --      1.5983                 1.5759                 1.8240
 IR Inten    --      3.6866                 0.8377                 7.9283

                     37                     38                     39
                      A                      A                      A
 Frequencies --   1420.9667              1478.1319              1494.6896
 Red. masses --      1.2021                 1.0868                 1.1007
 Frc consts  --      1.4301                 1.3990                 1.4489
 IR Inten    --     70.2152                 7.3068                 4.5656

                     40                     41                     42
                      A                      A                      A
 Frequencies --   1509.4193              1785.5318              2976.1439
 Red. masses --      1.1109                 9.1827                 1.0812
 Frc consts  --      1.4912                17.2487                 5.6426
 IR Inten    --      0.1873                 5.8372                42.1280

                     43                     44                     45
                      A                      A                      A
 Frequencies --   3001.8291              3023.6586              3040.3850
 Red. masses --      1.0631                 1.0702                 1.0607
 Frc consts  --      5.6443                 5.7646                 5.7767
 IR Inten    --     75.0900                10.5637                17.9630

                     46                     47                     48
                      A                      A                      A
 Frequencies --   3044.5051              3061.5801              3090.6514
 Red. masses --      1.0815                 1.1016                 1.1032
 Frc consts  --      5.9060                 6.0838                 6.2085
 IR Inten    --     55.6454                31.5058                37.8566

                     49                     50                     51
                      A                      A                      A
 Frequencies --   3098.0815              3166.0488              3798.8020
 Red. masses --      1.0959                 1.0914                 1.0660
 Frc consts  --      6.1975                 6.4459                 9.0637
 IR Inten    --     19.8040                12.1424                10.5776

 - Thermochemistry -
 -------------------
 Temperature   298.150 Kelvin.  Pressure   1.00000 Atm.
 Atom     1 has atomic number  8 and mass  15.99491

 Molecular mass:   126.06808 amu.
 Principal axes and moments of inertia in atomic units:
                           1         2         3
     Eigenvalues --   561.566321364.618581687.37566
           X            0.99952   0.03106  -0.00144
           Y           -0.03108   0.99938  -0.01662
           Z            0.00093   0.01666   0.99986
 This molecule is an asymmetric top.
 Rotational symmetry number  1.
 Warning -- assumption of classical behavior for rotation
           may cause significant error
 Rotational temperatures (Kelvin)      0.15424     0.06347     0.05133
 Rotational constants (GHZ):           3.21376     1.32252     1.06956
 Zero-point vibrational energy     422322.5 (Joules/Mol)
                                  100.93750 (Kcal/Mol)
 Warning -- explicit consideration of  10 degrees of freedom as
           vibrations may cause significant error
 Vibrational temperatures:    136.46   262.78   312.19   414.65   469.66
          (Kelvin)            503.75   632.68   638.80   671.49   775.91
                              998.66  1078.21  1143.84  1205.90  1260.10
                             1263.31  1376.29  1392.01  1409.01  1419.13
                             1492.26  1535.71  1563.26  1599.40  1605.55
                             1641.57  1680.04  1727.61  1809.48  1842.39
                             1872.86  1904.27  1917.78  1964.08  1972.15
                             1995.65  2044.45  2126.70  2150.52  2171.71
                             2568.98  4282.00  4318.96  4350.36  4374.43
                             4380.36  4404.93  4446.75  4457.44  4555.23
                             5465.62

 Zero-point correction=                           0.160854 (Hartree/Particle)
 Thermal correction to Energy=                    0.168662
 Thermal correction to Enthalpy=                  0.169606
 Thermal correction to Gibbs Free Energy=         0.128652
 Sum of electronic and zero-point Energies=           -423.007520
 Sum of electronic and thermal Energies=              -422.999713
 Sum of electronic and thermal Enthalpies=            -422.998768
 Sum of electronic and thermal Free Energies=         -423.039722

                     E (Thermal)             CV                S
                      KCal/Mol        Cal/Mol-Kelvin    Cal/Mol-Kelvin
 Total                  105.837             30.859             86.195
 Electronic               0.000              0.000              0.000
 Translational            0.889              2.981             40.409
 Rotational               0.889              2.981             28.649
 Vibrational            104.059             24.897             17.137
 Vibration     1          0.603              1.953              3.558
 Vibration     2          0.630              1.863              2.301
 Vibration     3          0.646              1.815              1.984
 Vibration     4          0.685              1.696              1.485
 Vibration     5          0.710              1.623              1.278
 Vibration     6          0.727              1.575              1.166
 Vibration     7          0.800              1.384              0.827
 Vibration     8          0.803              1.374              0.814
 Vibration     9          0.824              1.324              0.747
 Vibration    10          0.894              1.163              0.567

 Optimization completed.
    -- Stationary point found.
 Normal termination of Gaussian 09 at Tue Jan 28 08:51:45 2020.
