 Gaussian 09, Revision D.01,
 Gaussian 09:  ES64L-G09RevD.01 24-Apr-2013

 -----------------------------
 # b3lyp 6-31G(2df,p) opt Freq
 -----------------------------

 -----
 titel
 -----
 Symbolic Z-matrix:
 Charge =  0 Multiplicity = 1

 SCF Done:  E(RB3LYP) =  -423.158978211     A.U. after   14 cycles
 Optimization completed.
    -- Stationary point found.
 Normal termination of Gaussian 09 at Tue Jan 28 08:13:09 2020.

 ----------------------------------------------------------------------
 #N Geom=AllCheck Guess=TCheck SCRF=Check GenChk RB3LYP/6-31G(2df,p) Fr
 eq
 ----------------------------------------------------------------------

 Structure from the checkpoint file:  "/scratch/puck/g09_b8b20bb3-ce4c-4048-b98c-35251a8fbb20/Gau-14261.chk"
 -----
 titel
 -----
 Charge =  0 Multiplicity = 1

                         Standard orientation:
 ---------------------------------------------------------------------
 Center     Atomic      Atomic             Coordinates (Angstroms)
 Number     Number       Type             X           Y           Z
 ---------------------------------------------------------------------
      1          6           0        2.265735   -1.586916   -0.172519
      2          6           0        1.324950   -0.503830    0.305906
      3          8           0        1.681715    0.706275   -0.318664
      4          6           0        0.831469    1.772361    0.075815
      5          6           0       -0.630640    1.436734   -0.222818
      6          6           0       -0.955259    0.070961    0.411285
      7          8           0        0.005831   -0.894158   -0.018249
      8          6           0       -2.289517   -0.406863    0.069680
      9          6           0       -3.403185   -0.760755   -0.207134
     10          1           0        3.295869   -1.318375    0.071820
     11          1           0        2.015621   -2.536377    0.305516
     12          1           0        2.172868   -1.697113   -1.255524
     13          1           0        1.388899   -0.367108    1.404689
     14          1           0        0.959566    1.976050    1.153103
     15          1           0        1.160813    2.656626   -0.475620
     16          1           0       -1.298152    2.207816    0.174506
     17          1           0       -0.785547    1.365675   -1.303169
     18          1           0       -0.887430    0.172089    1.509911
     19          1           0       -4.384187   -1.086376   -0.451215
 ---------------------------------------------------------------------

 SCF Done:  E(RB3LYP) =  -423.158978211     A.U. after    1 cycles

 The electronic state is 1-A.
 Alpha  occ. eigenvalues --  -19.14650 -19.14456 -10.27827 -10.26158 -10.23566
 Alpha  occ. eigenvalues --  -10.19173 -10.18435 -10.17951 -10.17492  -1.07593
 Alpha  occ. eigenvalues --   -1.00808  -0.81689  -0.75157  -0.73096  -0.68451
 Alpha  occ. eigenvalues --   -0.63518  -0.58586  -0.54000  -0.50871  -0.49808
 Alpha  occ. eigenvalues --   -0.49110  -0.46369  -0.44992  -0.41527  -0.39890
 Alpha  occ. eigenvalues --   -0.38715  -0.38154  -0.36220  -0.32810  -0.32702
 Alpha  occ. eigenvalues --   -0.28226  -0.27800  -0.27118  -0.25682
 Alpha virt. eigenvalues --    0.03448   0.05055   0.09547   0.11413   0.12411
 Alpha virt. eigenvalues --    0.12816   0.13582   0.14326   0.15047   0.16145
 Alpha virt. eigenvalues --    0.17471   0.18373   0.18614   0.21948   0.22432

 Mulliken charges:
               1
     1  C   -0.409032
     2  C    0.230891
     3  O   -0.245871
     4  C   -0.097493
     5  C   -0.209461
     6  C   -0.067413
     7  O   -0.263290
     8  C    0.299509
     9  C   -0.412288
    10  H    0.126363
    11  H    0.128089
    12  H    0.137671
    13  H    0.052375
    14  H    0.089425
    15  H    0.114717
    16  H    0.109228
    17  H    0.124629
    18  H    0.094015
    19  H    0.197936
 Sum of Mulliken charges =   0.00000

 Dipole moment (field-independent basis, Debye):
    X=             -0.3864    Y=              1.0954    Z=              0.9988  Tot=              1.5319
 Quadrupole moment (field-independent basis, Debye-Ang):
   XX=            -49.9616   YY=            -51.3934   ZZ=            -52.9961
   XY=             -1.0835   XZ=              2.1547   YZ=              0.3377

  Exact polarizability: 100.420   4.105  74.423   4.384   1.358  60.548
 Approx polarizability: 137.108  11.059 101.487   8.209   3.799  94.789

                      1                      2                      3
                      A                      A                      A
 Frequencies --    112.2271               134.4055               168.7709
 Red. masses --      3.9073                 3.6645                 2.8720
 Frc consts  --      0.0290                 0.0390                 0.0482
 IR Inten    --      0.4658                 0.6125                 3.2481

                      4                      5                      6
                      A                      A                      A
 Frequencies --    198.0026               272.4347               312.2171
 Red. masses --      1.0763                 3.4001                 2.9453
 Frc consts  --      0.0249                 0.1487                 0.1692
 IR Inten    --      0.1784                 2.7706                 2.5127

                      7                      8                      9
                      A                      A                      A
 Frequencies --    324.5126               411.7665               464.5250
 Red. masses --      2.3191                 6.1271                 3.2414
 Frc consts  --      0.1439                 0.6121                 0.4121
 IR Inten    --      0.8777                 1.2253                 0.1446

                     10                     11                     12
                      A                      A                      A
 Frequencies --    496.7165               551.1752               569.8687
 Red. masses --      4.3797                 4.7458                 2.5559
 Frc consts  --      0.6367                 0.8494                 0.4890
 IR Inten    --      2.8725                 5.0085                 0.3755

                     13                     14                     15
                      A                      A                      A
 Frequencies --    623.4121               646.8472               675.1406
 Red. masses --      1.2152                 3.4937                 1.2556
 Frc consts  --      0.2783                 0.8613                 0.3372
 IR Inten    --     43.1627                 6.6103                33.4843

                     16                     17                     18
                      A                      A                      A
 Frequencies --    838.0252               864.4413               901.0812
 Red. masses --      2.3440                 2.2989                 2.2903
 Frc consts  --      0.9699                 1.0121                 1.0956
 IR Inten    --     12.4288                 6.1457                27.9642

                     19                     20                     21
                      A                      A                      A
 Frequencies --    912.0222               967.8312              1036.6691
 Red. masses --      2.3810                 2.5116                 2.8346
 Frc consts  --      1.1668                 1.3861                 1.7948
 IR Inten    --      9.5292                43.5657                20.0876

                     22                     23                     24
                      A                      A                      A
 Frequencies --   1056.9414              1085.6109              1106.9689
 Red. masses --      4.7726                 2.2576                 2.2912
 Frc consts  --      3.1413                 1.5676                 1.6542
 IR Inten    --     32.7632                20.6915                11.9627

                     25                     26                     27
                      A                      A                      A
 Frequencies --   1145.4049              1158.4226              1179.5458
 Red. masses --      2.3543                 3.2827                 2.4253
 Frc consts  --      1.8198                 2.5955                 1.9881
 IR Inten    --     93.7913               137.4484                83.9661

                     28                     29                     30
                      A                      A                      A
 Frequencies --   1233.7744              1269.7091              1325.6355
 Red. masses --      1.3245                 1.3117                 1.2330
 Frc consts  --      1.1879                 1.2459                 1.2766
 IR Inten    --      6.2683                14.9053                13.0568

                     31                     32                     33
                      A                      A                      A
 Frequencies --   1340.7121              1379.7393              1387.7723
 Red. masses --      1.1502                 1.4654                 1.2264
 Frc consts  --      1.2182                 1.6436                 1.3916
 IR Inten    --     43.0464                15.8151                13.8679

                     34                     35                     36
                      A                      A                      A
 Frequencies --   1399.5318              1417.8554              1436.8661
 Red. masses --      1.2810                 1.2400                 1.6725
 Frc consts  --      1.4783                 1.4687                 2.0344
 IR Inten    --     18.3752                14.0406                41.0610

                     37                     38                     39
                      A                      A                      A
 Frequencies --   1468.5725              1480.9370              1488.7452
 Red. masses --      1.0995                 1.0495                 1.0523
 Frc consts  --      1.3972                 1.3561                 1.3742
 IR Inten    --      3.4914                 4.5076                 1.0254

                     40                     41                     42
                      A                      A                      A
 Frequencies --   1502.6678              2246.6594              2895.9474
 Red. masses --      1.1050                 5.9056                 1.0807
 Frc consts  --      1.4700                17.5625                 5.3401
 IR Inten    --      4.4421                 1.3976                57.7926

                     43                     44                     45
                      A                      A                      A
 Frequencies --   2934.9378              2961.2462              3056.5024
 Red. masses --      1.0797                 1.0714                 1.0594
 Frc consts  --      5.4794                 5.5357                 5.8312
 IR Inten    --     26.5953                73.0653                13.3805

                     46                     47                     48
                      A                      A                      A
 Frequencies --   3059.5650              3094.4953              3111.0307
 Red. masses --      1.0343                 1.0915                 1.1053
 Frc consts  --      5.7046                 6.1585                 6.3027
 IR Inten    --      8.4901                33.4299                19.5916

                     49                     50                     51
                      A                      A                      A
 Frequencies --   3141.2842              3143.2940              3504.3801
 Red. masses --      1.1025                 1.1027                 1.1636
 Frc consts  --      6.4100                 6.4193                 8.4194
 IR Inten    --     14.3505                12.7287                65.4099

 - Thermochemistry -
 -------------------
 Temperature   298.150 Kelvin.  Pressure   1.00000 Atm.
 Atom     1 has atomic number  6 and mass  12.00000

 Molecular mass:   126.06808 amu.
 Principal axes and moments of inertia in atomic units:
                           1         2         3
     Eigenvalues --   612.078901486.716971985.68228
           X            0.99946  -0.03232   0.00525
           Y            0.03228   0.99945   0.00769
           Z           -0.00550  -0.00752   0.99996
 This molecule is an asymmetric top.
 Rotational symmetry number  1.
 Warning -- assumption of classical behavior for rotation
           may cause significant error
 Rotational temperatures (Kelvin)      0.14151     0.05826     0.04362
 Rotational constants (GHZ):           2.94854     1.21391     0.90888
 Zero-point vibrational energy     415683.5 (Joules/Mol)
                                   99.35073 (Kcal/Mol)
 Warning -- explicit consideration of  12 degrees of freedom as
           vibrations may cause significant error
 Vibrational temperatures:    161.47   193.38   242.82   284.88   391.97
          (Kelvin)            449.21   466.90   592.44   668.35   714.66
                              793.02   819.91   896.95   930.67   971.38
                             1205.73  1243.74  1296.45  1312.19  1392.49
                             1491.53  1520.70  1561.95  1592.68  1647.98
                             1666.71  1697.10  1775.12  1826.83  1907.29
                             1928.98  1985.13  1996.69  2013.61  2039.98
                             2067.33  2112.95  2130.74  2141.97  2162.00
                             3232.44  4166.62  4222.72  4260.57  4397.62
                             4402.03  4452.28  4476.07  4519.60  4522.49
                             5042.02

 Zero-point correction=                           0.158325 (Hartree/Particle)
 Thermal correction to Energy=                    0.167068
 Thermal correction to Enthalpy=                  0.168013
 Thermal correction to Gibbs Free Energy=         0.125141
 Sum of electronic and zero-point Energies=           -423.000653
 Sum of electronic and thermal Energies=              -422.991910
 Sum of electronic and thermal Enthalpies=            -422.990966
 Sum of electronic and thermal Free Energies=         -423.033837

                     E (Thermal)             CV                S
                      KCal/Mol        Cal/Mol-Kelvin    Cal/Mol-Kelvin
 Total                  104.837             33.517             90.230
 Electronic               0.000              0.000              0.000
 Translational            0.889              2.981             40.409
 Rotational               0.889              2.981             28.981
 Vibrational            103.060             27.555             20.840
 Vibration     1          0.607              1.939              3.230
 Vibration     2          0.613              1.919              2.882
 Vibration     3          0.625              1.881              2.449
 Vibration     4          0.637              1.843              2.152
 Vibration     5          0.675              1.724              1.581
 Vibration     6          0.701              1.650              1.351
 Vibration     7          0.709              1.626              1.287
 Vibration     8          0.776              1.445              0.920
 Vibration     9          0.822              1.329              0.753
 Vibration    10          0.852              1.257              0.666
 Vibration    11          0.906              1.137              0.542
 Vibration    12          0.926              1.096              0.504

 Optimization completed.
    -- Stationary point found.
 Normal termination of Gaussian 09 at Tue Jan 28 08:52:33 2020.
