 Gaussian 09, Revision D.01,
 Gaussian 09:  ES64L-G09RevD.01 24-Apr-2013

 -----------------------------
 # b3lyp 6-31G(2df,p) opt Freq
 -----------------------------

 -----
 titel
 -----
 Symbolic Z-matrix:
 Charge =  0 Multiplicity = 1

 SCF Done:  E(RB3LYP) =  -423.166177036     A.U. after   13 cycles
 Optimization completed.
    -- Stationary point found.
 Normal termination of Gaussian 09 at Mon Jan 27 17:02:47 2020.

 ----------------------------------------------------------------------
 #N Geom=AllCheck Guess=TCheck SCRF=Check GenChk RB3LYP/6-31G(2df,p) Fr
 eq
 ----------------------------------------------------------------------

 Structure from the checkpoint file:  "/scratch/puck/g09_e48de4c3-e12b-45f4-ac68-6b24914e8812/Gau-167327.chk"
 -----
 titel
 -----
 Charge =  0 Multiplicity = 1

                         Standard orientation:
 ---------------------------------------------------------------------
 Center     Atomic      Atomic             Coordinates (Angstroms)
 Number     Number       Type             X           Y           Z
 ---------------------------------------------------------------------
      1          8           0        1.527839   -1.352651   -0.919721
      2          6           0        0.655414   -0.486095   -0.277191
      3          6           0       -0.062236    0.688225   -1.038762
      4          6           0        0.663640    1.694288   -0.081951
      5          6           0        1.110844    0.520262    0.805165
      6          8           0        0.043677    0.078730    1.678220
      7          6           0       -0.406461   -0.946800    0.746265
      8          6           0       -1.784940   -0.654008    0.170999
      9          6           0       -1.587083    0.528542   -0.823261
     10          1           0        1.096142   -1.695720   -1.709835
     11          1           0        0.214964    0.800324   -2.089004
     12          1           0        1.514826    2.177630   -0.570940
     13          1           0        0.044812    2.452371    0.405140
     14          1           0        2.083117    0.533870    1.301409
     15          1           0       -0.289215   -1.947511    1.176414
     16          1           0       -2.146465   -1.547124   -0.353641
     17          1           0       -2.508295   -0.431138    0.960365
     18          1           0       -2.102185    0.328105   -1.767516
     19          1           0       -2.014903    1.454083   -0.427966
 ---------------------------------------------------------------------

 SCF Done:  E(RB3LYP) =  -423.166177036     A.U. after    1 cycles

 The electronic state is 1-A.
 Alpha  occ. eigenvalues --  -19.15138 -19.12774 -10.23294 -10.22368 -10.22198
 Alpha  occ. eigenvalues --  -10.18820 -10.18278 -10.18072 -10.17982  -1.04698
 Alpha  occ. eigenvalues --   -1.02156  -0.83083  -0.77652  -0.69508  -0.65228
 Alpha  occ. eigenvalues --   -0.62728  -0.56077  -0.54674  -0.52184  -0.48252
 Alpha  occ. eigenvalues --   -0.45599  -0.44513  -0.43105  -0.42179  -0.38820
 Alpha  occ. eigenvalues --   -0.38057  -0.35558  -0.35206  -0.33170  -0.32474
 Alpha  occ. eigenvalues --   -0.31395  -0.27628  -0.25457  -0.23963
 Alpha virt. eigenvalues --    0.06020   0.07484   0.10039   0.11903   0.12855
 Alpha virt. eigenvalues --    0.13010   0.13902   0.15256   0.16692   0.17082
 Alpha virt. eigenvalues --    0.18377   0.19479   0.19929   0.22302   0.23326

 Mulliken charges:
               1
     1  O   -0.487435
     2  C    0.344524
     3  C   -0.099712
     4  C   -0.241444
     5  C    0.076080
     6  O   -0.321116
     7  C    0.066908
     8  C   -0.231587
     9  C   -0.228255
    10  H    0.281937
    11  H    0.068320
    12  H    0.102622
    13  H    0.103108
    14  H    0.079558
    15  H    0.073456
    16  H    0.094535
    17  H    0.113304
    18  H    0.096052
    19  H    0.109147
 Sum of Mulliken charges =   0.00000

 Dipole moment (field-independent basis, Debye):
    X=             -0.8975    Y=             -0.2106    Z=             -2.2775  Tot=              2.4570
 Quadrupole moment (field-independent basis, Debye-Ang):
   XX=            -54.3144   YY=            -51.1704   ZZ=            -53.6180
   XY=              2.7095   XZ=              0.6772   YZ=              1.4345

  Exact polarizability:  76.240   4.126  74.454   1.662  -0.245  69.359
 Approx polarizability: 106.601   3.522 107.143   0.596   2.925 105.925

                      1                      2                      3
                      A                      A                      A
 Frequencies --     82.0959               169.4222               229.6383
 Red. masses --      2.0267                 1.2767                 2.3237
 Frc consts  --      0.0080                 0.0216                 0.0722
 IR Inten    --      0.6264                68.5861                 8.6335

                      4                      5                      6
                      A                      A                      A
 Frequencies --    282.4607               364.8796               397.4047
 Red. masses --      3.1304                 3.7001                 2.8695
 Frc consts  --      0.1472                 0.2902                 0.2670
 IR Inten    --     19.6314                 2.3312                 5.5816

                      7                      8                      9
                      A                      A                      A
 Frequencies --    405.6080               588.8125               631.0358
 Red. masses --      2.3132                 3.8226                 3.9850
 Frc consts  --      0.2242                 0.7809                 0.9350
 IR Inten    --      4.2375                 3.7795                 4.5654

                     10                     11                     12
                      A                      A                      A
 Frequencies --    661.8104               700.9575               787.8698
 Red. masses --      3.6518                 3.4222                 1.8728
 Frc consts  --      0.9424                 0.9907                 0.6849
 IR Inten    --      2.5379                 1.9652                 0.6301

                     13                     14                     15
                      A                      A                      A
 Frequencies --    803.5652               848.1220               880.3038
 Red. masses --      2.3125                 2.7053                 2.9412
 Frc consts  --      0.8798                 1.1465                 1.3429
 IR Inten    --      2.1411                 9.8398                 4.8869

                     16                     17                     18
                      A                      A                      A
 Frequencies --    893.8807               945.2113               969.1919
 Red. masses --      2.3092                 2.3004                 2.0609
 Frc consts  --      1.0871                 1.2109                 1.1406
 IR Inten    --      3.8289                27.8298                 4.6535

                     19                     20                     21
                      A                      A                      A
 Frequencies --    980.9904              1006.8037              1034.8069
 Red. masses --      2.0323                 2.4632                 2.1053
 Frc consts  --      1.1523                 1.4711                 1.3283
 IR Inten    --     25.3091                17.5314                31.5538

                     22                     23                     24
                      A                      A                      A
 Frequencies --   1065.1886              1083.3853              1122.7759
 Red. masses --      2.1818                 2.3936                 2.1737
 Frc consts  --      1.4585                 1.6552                 1.6145
 IR Inten    --      4.8209                26.3493                13.1017

                     25                     26                     27
                      A                      A                      A
 Frequencies --   1133.1784              1145.1971              1184.9750
 Red. masses --      1.7669                 1.5151                 2.2168
 Frc consts  --      1.3368                 1.1707                 1.8340
 IR Inten    --      2.0188                13.7758                35.0968

                     28                     29                     30
                      A                      A                      A
 Frequencies --   1189.8583              1220.8706              1257.2779
 Red. masses --      1.6026                 1.5098                 1.5044
 Frc consts  --      1.3368                 1.3259                 1.4011
 IR Inten    --      8.1259                15.3088                41.3642

                     31                     32                     33
                      A                      A                      A
 Frequencies --   1260.2359              1286.9637              1292.2139
 Red. masses --      1.5770                 1.2058                 1.3734
 Frc consts  --      1.4756                 1.1767                 1.3512
 IR Inten    --      4.5956                 4.6267                 9.3736

                     34                     35                     36
                      A                      A                      A
 Frequencies --   1312.1295              1330.9635              1339.9259
 Red. masses --      1.5090                 1.5908                 1.4867
 Frc consts  --      1.5307                 1.6604                 1.5727
 IR Inten    --     41.7878                20.7812                 8.2553

                     37                     38                     39
                      A                      A                      A
 Frequencies --   1357.9083              1410.8342              1462.1741
 Red. masses --      1.4384                 2.4558                 1.1315
 Frc consts  --      1.5626                 2.8801                 1.4253
 IR Inten    --     11.3854                14.4553                 3.7783

                     40                     41                     42
                      A                      A                      A
 Frequencies --   1473.6598              1503.0866              3030.2665
 Red. masses --      1.0848                 1.0897                 1.0680
 Frc consts  --      1.3881                 1.4506                 5.7783
 IR Inten    --      2.6235                 3.5405                 9.4426

                     43                     44                     45
                      A                      A                      A
 Frequencies --   3049.7948              3050.8179              3055.2317
 Red. masses --      1.0682                 1.0657                 1.0726
 Frc consts  --      5.8536                 5.8440                 5.8988
 IR Inten    --     83.0554                12.0828                40.8689

                     46                     47                     48
                      A                      A                      A
 Frequencies --   3078.5699              3087.4262              3094.0574
 Red. masses --      1.0937                 1.0926                 1.0912
 Frc consts  --      6.1073                 6.1364                 6.1546
 IR Inten    --     18.1052                21.0563                44.5746

                     49                     50                     51
                      A                      A                      A
 Frequencies --   3100.2363              3112.2037              3800.0656
 Red. masses --      1.1021                 1.1063                 1.0660
 Frc consts  --      6.2410                 6.3131                 9.0694
 IR Inten    --     31.5974                33.8916                18.4444

 - Thermochemistry -
 -------------------
 Temperature   298.150 Kelvin.  Pressure   1.00000 Atm.
 Atom     1 has atomic number  8 and mass  15.99491

 Molecular mass:   126.06808 amu.
 Principal axes and moments of inertia in atomic units:
                           1         2         3
     Eigenvalues --   815.46135 968.98811 996.55193
           X            0.99426   0.10360   0.02662
           Y           -0.09616   0.97471  -0.20174
           Z           -0.04685   0.19802   0.97908
 This molecule is an asymmetric top.
 Rotational symmetry number  1.
 Warning -- assumption of classical behavior for rotation
           may cause significant error
 Rotational temperatures (Kelvin)      0.10621     0.08939     0.08691
 Rotational constants (GHZ):           2.21315     1.86250     1.81099
 Zero-point vibrational energy     422020.7 (Joules/Mol)
                                  100.86536 (Kcal/Mol)
 Warning -- explicit consideration of   8 degrees of freedom as
           vibrations may cause significant error
 Vibrational temperatures:    118.12   243.76   330.40   406.40   524.98
          (Kelvin)            571.78   583.58   847.17   907.92   952.20
                             1008.52  1133.57  1156.15  1220.26  1266.56
                             1286.09  1359.95  1394.45  1411.42  1448.56
                             1488.85  1532.57  1558.75  1615.42  1630.39
                             1647.68  1704.91  1711.94  1756.56  1808.94
                             1813.20  1851.65  1859.21  1887.86  1914.96
                             1927.85  1953.72  2029.87  2103.74  2120.27
                             2162.60  4359.87  4387.97  4389.44  4395.79
                             4429.37  4442.11  4451.65  4460.54  4477.76
                             5467.44

 Zero-point correction=                           0.160739 (Hartree/Particle)
 Thermal correction to Energy=                    0.168238
 Thermal correction to Enthalpy=                  0.169182
 Thermal correction to Gibbs Free Energy=         0.128856
 Sum of electronic and zero-point Energies=           -423.005438
 Sum of electronic and thermal Energies=              -422.997939
 Sum of electronic and thermal Enthalpies=            -422.996995
 Sum of electronic and thermal Free Energies=         -423.037321

                     E (Thermal)             CV                S
                      KCal/Mol        Cal/Mol-Kelvin    Cal/Mol-Kelvin
 Total                  105.571             29.925             84.873
 Electronic               0.000              0.000              0.000
 Translational            0.889              2.981             40.409
 Rotational               0.889              2.981             28.156
 Vibrational            103.794             23.963             16.309
 Vibration     1          0.600              1.961              3.840
 Vibration     2          0.625              1.880              2.442
 Vibration     3          0.652              1.796              1.882
 Vibration     4          0.681              1.706              1.519
 Vibration     5          0.738              1.545              1.101
 Vibration     6          0.764              1.476              0.972
 Vibration     7          0.771              1.458              0.942
 Vibration     8          0.946              1.056              0.469

 Optimization completed.
    -- Stationary point found.
 Normal termination of Gaussian 09 at Mon Jan 27 17:50:27 2020.
