 Gaussian 09, Revision D.01,
 Gaussian 09:  ES64L-G09RevD.01 24-Apr-2013

 -----------------------------
 # b3lyp 6-31G(2df,p) opt Freq
 -----------------------------

 -----
 titel
 -----
 Symbolic Z-matrix:
 Charge =  0 Multiplicity = 1

 SCF Done:  E(RB3LYP) =  -423.194534347     A.U. after   14 cycles
 Optimization completed.
    -- Stationary point found.
 Normal termination of Gaussian 09 at Tue Jan 28 14:09:07 2020.

 ----------------------------------------------------------------------
 #N Geom=AllCheck Guess=TCheck SCRF=Check GenChk RB3LYP/6-31G(2df,p) Fr
 eq
 ----------------------------------------------------------------------

 Structure from the checkpoint file:  "/scratch/puck/g09_7bc8d4e2-a396-481e-9aec-59ee17ce75a8/Gau-3927.chk"
 -----
 titel
 -----
 Charge =  0 Multiplicity = 1

                         Standard orientation:
 ---------------------------------------------------------------------
 Center     Atomic      Atomic             Coordinates (Angstroms)
 Number     Number       Type             X           Y           Z
 ---------------------------------------------------------------------
      1          6           0       -3.629671   -0.432864    0.148713
      2          6           0       -2.244222   -0.190600   -0.453816
      3          6           0       -1.190065    0.150799    0.611830
      4          6           0        0.170650    0.357592    0.033213
      5          6           0        0.779838    1.565511   -0.576667
      6          6           0        1.485033    0.854509    0.594615
      7          6           0        2.033885   -0.441141    0.067300
      8          8           0        3.044095   -1.063399    0.112119
      9          8           0        0.840162   -0.816068   -0.540490
     10          1           0       -4.360072   -0.680228   -0.627202
     11          1           0       -3.610611   -1.261961    0.864573
     12          1           0       -3.994169    0.454041    0.679255
     13          1           0       -1.914203   -1.079568   -1.003076
     14          1           0       -2.291788    0.624848   -1.185870
     15          1           0       -1.479078    1.063477    1.147735
     16          1           0       -1.140358   -0.653814    1.355788
     17          1           0        1.204461    1.519820   -1.574199
     18          1           0        0.338611    2.519636   -0.302734
     19          1           0        1.740467    1.346653    1.521571
 ---------------------------------------------------------------------

 SCF Done:  E(RB3LYP) =  -423.194534347     A.U. after    1 cycles

 The electronic state is 1-A.
 Alpha  occ. eigenvalues --  -19.17359 -19.13358 -10.30928 -10.26801 -10.21890
 Alpha  occ. eigenvalues --  -10.21713 -10.20490 -10.19250 -10.18256  -1.10573
 Alpha  occ. eigenvalues --   -1.03394  -0.86376  -0.80295  -0.72070  -0.66549
 Alpha  occ. eigenvalues --   -0.61498  -0.58595  -0.54553  -0.52299  -0.49091
 Alpha  occ. eigenvalues --   -0.47435  -0.45843  -0.43398  -0.41956  -0.41341
 Alpha  occ. eigenvalues --   -0.40183  -0.38160  -0.36540  -0.35768  -0.34915
 Alpha  occ. eigenvalues --   -0.33853  -0.30257  -0.27736  -0.27138
 Alpha virt. eigenvalues --    0.00491   0.07463   0.09094   0.10174   0.11724
 Alpha virt. eigenvalues --    0.12442   0.13766   0.13963   0.14959   0.16067
 Alpha virt. eigenvalues --    0.16537   0.17759   0.18482   0.19068   0.20927

 Mulliken charges:
               1
     1  C   -0.386308
     2  C   -0.163591
     3  C   -0.300277
     4  C    0.485789
     5  C   -0.327234
     6  C   -0.347585
     7  C    0.465316
     8  O   -0.326328
     9  O   -0.299868
    10  H    0.118454
    11  H    0.119935
    12  H    0.114305
    13  H    0.123862
    14  H    0.101523
    15  H    0.108009
    16  H    0.117241
    17  H    0.137862
    18  H    0.130523
    19  H    0.128371
 Sum of Mulliken charges =   0.00000

 Dipole moment (field-independent basis, Debye):
    X=             -3.1685    Y=              3.0087    Z=              0.7887  Tot=              4.4400
 Quadrupole moment (field-independent basis, Debye-Ang):
   XX=            -62.0044   YY=            -53.3569   ZZ=            -51.7213
   XY=              5.7153   XZ=              0.2270   YZ=             -0.4220

  Exact polarizability:  94.617  -3.361  72.093   2.061  -0.720  63.564
 Approx polarizability: 124.823 -10.006 111.048   6.104  -0.017  97.465

                      1                      2                      3
                      A                      A                      A
 Frequencies --     63.3595                87.4435               109.5845
 Red. masses --      3.7409                 1.7818                 4.4581
 Frc consts  --      0.0088                 0.0080                 0.0315
 IR Inten    --      1.6767                 0.5792                 0.2989

                      4                      5                      6
                      A                      A                      A
 Frequencies --    183.3985               250.2304               310.3779
 Red. masses --      3.7606                 1.1090                 3.0224
 Frc consts  --      0.0745                 0.0409                 0.1715
 IR Inten    --      0.9030                 0.0245                 0.0714

                      7                      8                      9
                      A                      A                      A
 Frequencies --    336.4132               367.8302               464.8467
 Red. masses --      2.7350                 3.1694                 3.3230
 Frc consts  --      0.1824                 0.2527                 0.4231
 IR Inten    --      0.4880                 2.2357                 3.2657

                     10                     11                     12
                      A                      A                      A
 Frequencies --    490.8334               660.2320               719.1721
 Red. masses --      4.1285                 4.7610                 4.0148
 Frc consts  --      0.5860                 1.2228                 1.2234
 IR Inten    --      1.0077                 0.8753                 1.6387

                     13                     14                     15
                      A                      A                      A
 Frequencies --    745.5457               775.8913               837.4305
 Red. masses --      1.1525                 3.5034                 4.3226
 Frc consts  --      0.3774                 1.2426                 1.7861
 IR Inten    --      2.0659                17.0202                33.8023

                     16                     17                     18
                      A                      A                      A
 Frequencies --    862.5210               887.2231               913.2988
 Red. masses --      1.4376                 2.0276                 2.2782
 Frc consts  --      0.6301                 0.9404                 1.1196
 IR Inten    --     19.9371                16.1229                10.5914

                     19                     20                     21
                      A                      A                      A
 Frequencies --    948.9596               965.4492               995.9218
 Red. masses --      1.8614                 1.4966                 2.1899
 Frc consts  --      0.9876                 0.8219                 1.2797
 IR Inten    --     41.4707                 4.3185                 8.5257

                     22                     23                     24
                      A                      A                      A
 Frequencies --   1016.1307              1047.7020              1051.8020
 Red. masses --      2.0084                 2.6576                 2.2809
 Frc consts  --      1.2218                 1.7188                 1.4867
 IR Inten    --     37.2884                 3.1301                30.2945

                     25                     26                     27
                      A                      A                      A
 Frequencies --   1090.7497              1112.3390              1137.9109
 Red. masses --      1.4373                 2.0633                 2.2620
 Frc consts  --      1.0075                 1.5041                 1.7257
 IR Inten    --      7.9230                 0.5053                26.0875

                     28                     29                     30
                      A                      A                      A
 Frequencies --   1210.0558              1231.5768              1282.7105
 Red. masses --      1.9637                 1.9561                 1.5366
 Frc consts  --      1.6941                 1.7481                 1.4896
 IR Inten    --      7.8460                15.3943                15.5809

                     31                     32                     33
                      A                      A                      A
 Frequencies --   1306.4050              1335.2165              1382.4061
 Red. masses --      1.3507                 1.1584                 1.5170
 Frc consts  --      1.3582                 1.2168                 1.7080
 IR Inten    --      4.9698                 3.5068                 0.8999

                     34                     35                     36
                      A                      A                      A
 Frequencies --   1414.9728              1421.1605              1471.1236
 Red. masses --      1.2613                 1.7379                 1.1030
 Frc consts  --      1.4879                 2.0681                 1.4065
 IR Inten    --      1.2153                 6.1276                 2.2269

                     37                     38                     39
                      A                      A                      A
 Frequencies --   1492.6768              1498.4536              1501.0592
 Red. masses --      1.0949                 1.6351                 1.0732
 Frc consts  --      1.4373                 2.1631                 1.4247
 IR Inten    --      0.2710                14.3440                 8.0016

                     40                     41                     42
                      A                      A                      A
 Frequencies --   1509.9243              1943.2375              3023.8746
 Red. masses --      1.0970                12.7257                 1.0582
 Frc consts  --      1.4736                28.3128                 5.7007
 IR Inten    --      4.4315               519.9340                 2.3858

                     43                     44                     45
                      A                      A                      A
 Frequencies --   3030.4442              3035.7607              3057.6705
 Red. masses --      1.0403                 1.0581                 1.0986
 Frc consts  --      5.6288                 5.7451                 6.0515
 IR Inten    --     15.3275                45.7895                 3.0029

                     46                     47                     48
                      A                      A                      A
 Frequencies --   3077.0585              3100.6074              3107.8788
 Red. masses --      1.1030                 1.1028                 1.1007
 Frc consts  --      6.1530                 6.2468                 6.2640
 IR Inten    --      6.5573                52.6191                30.4102

                     49                     50                     51
                      A                      A                      A
 Frequencies --   3123.8632              3215.4227              3229.9914
 Red. masses --      1.0537                 1.1178                 1.0957
 Frc consts  --      6.0585                 6.8094                 6.7351
 IR Inten    --      8.7830                 2.9287                 1.5556

 - Thermochemistry -
 -------------------
 Temperature   298.150 Kelvin.  Pressure   1.00000 Atm.
 Atom     1 has atomic number  6 and mass  12.00000

 Molecular mass:   126.06808 amu.
 Principal axes and moments of inertia in atomic units:
                           1         2         3
     Eigenvalues --   435.382432053.995882257.01860
           X            0.99976   0.02198  -0.00253
           Y           -0.02201   0.99966  -0.01362
           Z            0.00223   0.01368   0.99990
 This molecule is an asymmetric top.
 Rotational symmetry number  1.
 Warning -- assumption of classical behavior for rotation
           may cause significant error
 Rotational temperatures (Kelvin)      0.19894     0.04217     0.03838
 Rotational constants (GHZ):           4.14519     0.87865     0.79961
 Zero-point vibrational energy     415320.4 (Joules/Mol)
                                   99.26396 (Kcal/Mol)
 Warning -- explicit consideration of  10 degrees of freedom as
           vibrations may cause significant error
 Vibrational temperatures:     91.16   125.81   157.67   263.87   360.03
          (Kelvin)            446.56   484.02   529.22   668.81   706.20
                              949.93  1034.73  1072.67  1116.33  1204.87
                             1240.97  1276.51  1314.03  1365.34  1389.06
                             1432.91  1461.98  1507.41  1513.31  1569.34
                             1600.41  1637.20  1741.00  1771.96  1845.53
                             1879.62  1921.08  1988.97  2035.83  2044.73
                             2116.62  2147.63  2155.94  2159.69  2172.44
                             2795.88  4350.68  4360.13  4367.78  4399.30
                             4427.20  4461.08  4471.54  4494.54  4626.27
                             4647.23

 Zero-point correction=                           0.158187 (Hartree/Particle)
 Thermal correction to Energy=                    0.167041
 Thermal correction to Enthalpy=                  0.167985
 Thermal correction to Gibbs Free Energy=         0.123927
 Sum of electronic and zero-point Energies=           -423.036347
 Sum of electronic and thermal Energies=              -423.027494
 Sum of electronic and thermal Enthalpies=            -423.026550
 Sum of electronic and thermal Free Energies=         -423.070608

                     E (Thermal)             CV                S
                      KCal/Mol        Cal/Mol-Kelvin    Cal/Mol-Kelvin
 Total                  104.820             32.711             92.728
 Electronic               0.000              0.000              0.000
 Translational            0.889              2.981             40.409
 Rotational               0.889              2.981             29.091
 Vibrational            103.042             26.749             23.228
 Vibration     1          0.597              1.972              4.350
 Vibration     2          0.601              1.958              3.716
 Vibration     3          0.606              1.942              3.276
 Vibration     4          0.631              1.862              2.294
 Vibration     5          0.663              1.762              1.729
 Vibration     6          0.699              1.654              1.360
 Vibration     7          0.717              1.603              1.229
 Vibration     8          0.740              1.538              1.089
 Vibration     9          0.822              1.328              0.752
 Vibration    10          0.847              1.270              0.681

 Optimization completed.
    -- Stationary point found.
 Normal termination of Gaussian 09 at Tue Jan 28 14:53:39 2020.
