 Gaussian 09, Revision D.01,
 Gaussian 09:  ES64L-G09RevD.01 24-Apr-2013

 -----------------------------
 # b3lyp 6-31G(2df,p) opt Freq
 -----------------------------

 -----
 titel
 -----
 Symbolic Z-matrix:
 Charge =  0 Multiplicity = 1

 SCF Done:  E(RB3LYP) =  -423.174030255     A.U. after   14 cycles
 Optimization completed.
    -- Stationary point found.
 Normal termination of Gaussian 09 at Mon Jan 27 22:04:29 2020.

 ----------------------------------------------------------------------
 #N Geom=AllCheck Guess=TCheck SCRF=Check GenChk RB3LYP/6-31G(2df,p) Fr
 eq
 ----------------------------------------------------------------------

 Structure from the checkpoint file:  "/scratch/puck/g09_c86e079d-0b26-48e0-bee1-de8daf02e28e/Gau-189574.chk"
 -----
 titel
 -----
 Charge =  0 Multiplicity = 1

                         Standard orientation:
 ---------------------------------------------------------------------
 Center     Atomic      Atomic             Coordinates (Angstroms)
 Number     Number       Type             X           Y           Z
 ---------------------------------------------------------------------
      1          6           0        2.448468   -0.983134   -0.110269
      2          6           0        1.016674   -0.635288   -0.496142
      3          6           0        0.627274    0.885627   -0.371052
      4          8           0        1.580414    1.715374    0.259998
      5          6           0       -0.479156    0.516285    0.651342
      6          6           0       -0.068759   -1.000497    0.560995
      7          6           0       -1.465046   -1.362926   -0.017015
      8          6           0       -1.816845    0.138931   -0.003952
      9          8           0       -2.770077    0.770680   -0.356003
     10          1           0        3.166643   -0.608304   -0.848560
     11          1           0        2.710401   -0.551345    0.859146
     12          1           0        2.574604   -2.069222   -0.050580
     13          1           0        0.791565   -1.041759   -1.488726
     14          1           0        0.263547    1.349582   -1.297824
     15          1           0        2.279999    1.906629   -0.373642
     16          1           0       -0.503606    1.126579    1.554382
     17          1           0        0.267304   -1.571088    1.426178
     18          1           0       -1.509637   -1.872023   -0.984636
     19          1           0       -2.099175   -1.911481    0.688849
 ---------------------------------------------------------------------

 SCF Done:  E(RB3LYP) =  -423.174030255     A.U. after    1 cycles

 The electronic state is 1-A.
 Alpha  occ. eigenvalues --  -19.14732 -19.13594 -10.26824 -10.24215 -10.19599
 Alpha  occ. eigenvalues --  -10.19342 -10.19207 -10.18971 -10.18146  -1.04454
 Alpha  occ. eigenvalues --   -1.02970  -0.87509  -0.76591  -0.71643  -0.64580
 Alpha  occ. eigenvalues --   -0.62372  -0.57312  -0.51497  -0.49780  -0.49128
 Alpha  occ. eigenvalues --   -0.46929  -0.45934  -0.42244  -0.41438  -0.41078
 Alpha  occ. eigenvalues --   -0.38641  -0.38142  -0.35860  -0.34504  -0.32671
 Alpha  occ. eigenvalues --   -0.31171  -0.29980  -0.26493  -0.23942
 Alpha virt. eigenvalues --   -0.02252   0.05779   0.09544   0.10530   0.11222
 Alpha virt. eigenvalues --    0.13092   0.14091   0.14458   0.16301   0.16620
 Alpha virt. eigenvalues --    0.16811   0.17838   0.19361   0.20107   0.21684

 Mulliken charges:
               1
     1  C   -0.414152
     2  C   -0.014375
     3  C    0.100213
     4  O   -0.425391
     5  C   -0.163138
     6  C   -0.036064
     7  C   -0.372096
     8  C    0.396573
     9  O   -0.293811
    10  H    0.105656
    11  H    0.132983
    12  H    0.116628
    13  H    0.067873
    14  H    0.078826
    15  H    0.286203
    16  H    0.102471
    17  H    0.074653
    18  H    0.123600
    19  H    0.133347
 Sum of Mulliken charges =   0.00000

 Dipole moment (field-independent basis, Debye):
    X=              2.6709    Y=             -1.7321    Z=             -0.4873  Tot=              3.2204
 Quadrupole moment (field-independent basis, Debye-Ang):
   XX=            -58.8377   YY=            -53.6929   ZZ=            -51.3895
   XY=              5.2371   XZ=             -4.9737   YZ=             -1.9709

  Exact polarizability:  88.831   0.220  75.723   0.159  -0.618  63.099
 Approx polarizability: 119.681  -2.731 111.656   3.393  -1.061  99.910

                      1                      2                      3
                      A                      A                      A
 Frequencies --     34.6571               126.4707               225.1801
 Red. masses --      3.6820                 4.3368                 1.2180
 Frc consts  --      0.0026                 0.0409                 0.0364
 IR Inten    --      1.9364                 5.0932                 0.1305

                      4                      5                      6
                      A                      A                      A
 Frequencies --    249.0373               259.8124               287.9144
 Red. masses --      2.1520                 1.9587                 2.4447
 Frc consts  --      0.0786                 0.0779                 0.1194
 IR Inten    --      7.4923                 1.2064                60.4512

                      7                      8                      9
                      A                      A                      A
 Frequencies --    296.1188               374.8427               440.2895
 Red. masses --      1.6700                 3.5689                 3.8958
 Frc consts  --      0.0863                 0.2955                 0.4450
 IR Inten    --     50.2614                12.1076                 9.0682

                     10                     11                     12
                      A                      A                      A
 Frequencies --    512.6469               522.7809               661.7500
 Red. masses --      2.7879                 2.8912                 3.7829
 Frc consts  --      0.4317                 0.4655                 0.9760
 IR Inten    --      4.5435                 0.6221                 1.4197

                     13                     14                     15
                      A                      A                      A
 Frequencies --    757.9186               784.3676               820.5213
 Red. masses --      2.1684                 3.0629                 2.0328
 Frc consts  --      0.7339                 1.1102                 0.8063
 IR Inten    --      2.1672                 2.3699                 2.1757

                     16                     17                     18
                      A                      A                      A
 Frequencies --    853.2909               886.7242               901.9482
 Red. masses --      2.3826                 2.6774                 2.5123
 Frc consts  --      1.0221                 1.2403                 1.2042
 IR Inten    --      2.3289                 4.6653                 4.9289

                     19                     20                     21
                      A                      A                      A
 Frequencies --    978.2281               994.6244              1011.4078
 Red. masses --      1.7621                 2.5371                 1.7087
 Frc consts  --      0.9935                 1.4788                 1.0298
 IR Inten    --     25.2026                 8.4119                26.2503

                     22                     23                     24
                      A                      A                      A
 Frequencies --   1044.8381              1058.8250              1101.4952
 Red. masses --      1.3930                 2.9965                 2.3006
 Frc consts  --      0.8960                 1.9793                 1.6446
 IR Inten    --      1.0460                48.0085                27.5043

                     25                     26                     27
                      A                      A                      A
 Frequencies --   1118.7719              1131.4664              1163.7447
 Red. masses --      2.0858                 2.4468                 1.5185
 Frc consts  --      1.5381                 1.8456                 1.2117
 IR Inten    --      2.7924                 7.5257                 0.8798

                     28                     29                     30
                      A                      A                      A
 Frequencies --   1200.3923              1212.9426              1226.9359
 Red. masses --      1.7705                 1.3543                 1.6987
 Frc consts  --      1.5031                 1.1739                 1.5066
 IR Inten    --     21.1831                27.6862                17.7061

                     31                     32                     33
                      A                      A                      A
 Frequencies --   1238.1066              1267.4360              1282.7911
 Red. masses --      1.6199                 1.4883                 1.4043
 Frc consts  --      1.4631                 1.4086                 1.3615
 IR Inten    --     12.7295                 3.3977                14.1809

                     34                     35                     36
                      A                      A                      A
 Frequencies --   1317.8708              1361.7466              1403.0767
 Red. masses --      1.3936                 1.5630                 1.2449
 Frc consts  --      1.4261                 1.7077                 1.4439
 IR Inten    --     39.1613                 1.1175                 1.7027

                     37                     38                     39
                      A                      A                      A
 Frequencies --   1426.9649              1433.5906              1493.8984
 Red. masses --      1.3536                 1.1010                 1.0464
 Frc consts  --      1.6239                 1.3332                 1.3759
 IR Inten    --      7.5672                 7.4093                 4.6225

                     40                     41                     42
                      A                      A                      A
 Frequencies --   1501.2546              1886.1549              3002.2188
 Red. masses --      1.0473                12.7608                 1.0854
 Frc consts  --      1.3907                26.7475                 5.7640
 IR Inten    --      4.7706               284.6738                41.9408

                     43                     44                     45
                      A                      A                      A
 Frequencies --   3030.3357              3038.8986              3044.7383
 Red. masses --      1.0431                 1.0782                 1.0601
 Frc consts  --      5.6435                 5.8665                 5.7903
 IR Inten    --     28.7147                30.8547                15.2772

                     46                     47                     48
                      A                      A                      A
 Frequencies --   3091.7993              3096.9285              3113.4019
 Red. masses --      1.0999                 1.1039                 1.0885
 Frc consts  --      6.1946                 6.2378                 6.2168
 IR Inten    --     22.4202                 9.1023                22.6459

                     49                     50                     51
                      A                      A                      A
 Frequencies --   3119.9616              3122.8565              3810.1168
 Red. masses --      1.0989                 1.0911                 1.0660
 Frc consts  --      6.3023                 6.2693                 9.1180
 IR Inten    --     10.1378                21.1201                20.2347

 - Thermochemistry -
 -------------------
 Temperature   298.150 Kelvin.  Pressure   1.00000 Atm.
 Atom     1 has atomic number  6 and mass  12.00000

 Molecular mass:   126.06808 amu.
 Principal axes and moments of inertia in atomic units:
                           1         2         3
     Eigenvalues --   609.534951374.306951782.59258
           X            0.99995   0.00295  -0.00982
           Y           -0.00301   0.99998  -0.00619
           Z            0.00980   0.00622   0.99993
 This molecule is an asymmetric top.
 Rotational symmetry number  1.
 Warning -- assumption of classical behavior for rotation
           may cause significant error
 Rotational temperatures (Kelvin)      0.14210     0.06302     0.04859
 Rotational constants (GHZ):           2.96085     1.31320     1.01242
 Zero-point vibrational energy     414650.1 (Joules/Mol)
                                   99.10376 (Kcal/Mol)
 Warning -- explicit consideration of  11 degrees of freedom as
           vibrations may cause significant error
 Vibrational temperatures:     49.86   181.96   323.98   358.31   373.81
          (Kelvin)            414.24   426.05   539.31   633.48   737.58
                              752.16   952.11  1090.47  1128.53  1180.55
                             1227.69  1275.80  1297.70  1407.45  1431.04
                             1455.19  1503.29  1523.41  1584.80  1609.66
                             1627.93  1674.37  1727.09  1745.15  1765.28
                             1781.36  1823.56  1845.65  1896.12  1959.25
                             2018.71  2053.08  2062.61  2149.38  2159.97
                             2713.75  4319.52  4359.97  4372.29  4380.69
                             4448.40  4455.78  4479.49  4488.92  4493.09
                             5481.90

 Zero-point correction=                           0.157932 (Hartree/Particle)
 Thermal correction to Energy=                    0.166641
 Thermal correction to Enthalpy=                  0.167585
 Thermal correction to Gibbs Free Energy=         0.124081
 Sum of electronic and zero-point Energies=           -423.016098
 Sum of electronic and thermal Energies=              -423.007389
 Sum of electronic and thermal Enthalpies=            -423.006445
 Sum of electronic and thermal Free Energies=         -423.049950

                     E (Thermal)             CV                S
                      KCal/Mol        Cal/Mol-Kelvin    Cal/Mol-Kelvin
 Total                  104.569             33.035             91.563
 Electronic               0.000              0.000              0.000
 Translational            0.889              2.981             40.409
 Rotational               0.889              2.981             28.792
 Vibrational            102.791             27.074             22.362
 Vibration     1          0.594              1.983              5.543
 Vibration     2          0.611              1.927              2.999
 Vibration     3          0.650              1.803              1.917
 Vibration     4          0.662              1.764              1.737
 Vibration     5          0.668              1.746              1.663
 Vibration     6          0.685              1.696              1.486
 Vibration     7          0.690              1.681              1.439
 Vibration     8          0.746              1.524              1.060
 Vibration     9          0.800              1.382              0.826
 Vibration    10          0.868              1.222              0.627
 Vibration    11          0.878              1.200              0.604

 Normal termination of Gaussian 09 at Mon Jan 27 22:48:53 2020.
