 Gaussian 09, Revision D.01,
 Gaussian 09:  ES64L-G09RevD.01 24-Apr-2013

 -----------------------------
 # b3lyp 6-31G(2df,p) opt Freq
 -----------------------------

 -----
 titel
 -----
 Symbolic Z-matrix:
 Charge =  0 Multiplicity = 1

 SCF Done:  E(RB3LYP) =  -423.178132876     A.U. after   13 cycles
 Optimization completed.
    -- Stationary point found.
 Normal termination of Gaussian 09 at Tue Jan 28 12:49:27 2020.

 ----------------------------------------------------------------------
 #N Geom=AllCheck Guess=TCheck SCRF=Check GenChk RB3LYP/6-31G(2df,p) Fr
 eq
 ----------------------------------------------------------------------

 Structure from the checkpoint file:  "/scratch/puck/g09_6b1b7f01-337c-499f-8dc0-6bc8ee2da022/Gau-10921.chk"
 -----
 titel
 -----
 Charge =  0 Multiplicity = 1

                         Standard orientation:
 ---------------------------------------------------------------------
 Center     Atomic      Atomic             Coordinates (Angstroms)
 Number     Number       Type             X           Y           Z
 ---------------------------------------------------------------------
      1          8           0       -2.884531    0.425352   -0.087157
      2          6           0       -1.876098   -0.536159    0.197646
      3          6           0       -0.572593   -0.259136   -0.546714
      4          6           0        0.070266    1.082641   -0.206598
      5          6           0        1.577708    0.924483   -0.430135
      6          6           0        1.804319   -0.509630   -0.896183
      7          6           0        0.638231   -1.110720   -0.079578
      8          8           0        0.889264   -0.615570    1.246869
      9          6           0        0.988152    0.767574    0.951647
     10          1           0       -3.094854    0.361757   -1.024325
     11          1           0       -1.700016   -0.477603    1.274659
     12          1           0       -2.226661   -1.556633   -0.026665
     13          1           0       -0.726091   -0.379925   -1.627196
     14          1           0       -0.451752    2.023402   -0.304826
     15          1           0        2.219569    1.750912   -0.703023
     16          1           0        1.680316   -0.650512   -1.973464
     17          1           0        2.772403   -0.911451   -0.584251
     18          1           0        0.528605   -2.193300   -0.054422
     19          1           0        1.180706    1.400790    1.805307
 ---------------------------------------------------------------------

 SCF Done:  E(RB3LYP) =  -423.178132876     A.U. after    1 cycles

 The electronic state is 1-A.
 Alpha  occ. eigenvalues --  -19.14098 -19.13227 -10.23394 -10.22817 -10.22075
 Alpha  occ. eigenvalues --  -10.18880 -10.18840 -10.18546 -10.18534  -1.05360
 Alpha  occ. eigenvalues --   -1.01175  -0.85634  -0.76837  -0.73590  -0.64908
 Alpha  occ. eigenvalues --   -0.59024  -0.56640  -0.55113  -0.53723  -0.48790
 Alpha  occ. eigenvalues --   -0.46888  -0.46004  -0.42624  -0.40264  -0.39830
 Alpha  occ. eigenvalues --   -0.38851  -0.37258  -0.35444  -0.33274  -0.32171
 Alpha  occ. eigenvalues --   -0.30531  -0.28014  -0.26138  -0.23223
 Alpha virt. eigenvalues --    0.07576   0.09483   0.11824   0.13010   0.13700
 Alpha virt. eigenvalues --    0.14061   0.14760   0.15495   0.16316   0.16868
 Alpha virt. eigenvalues --    0.17876   0.19379   0.19913   0.20794   0.22669

 Mulliken charges:
               1
     1  O   -0.419426
     2  C   -0.085545
     3  C   -0.021943
     4  C   -0.101136
     5  C   -0.126398
     6  C   -0.229989
     7  C    0.029458
     8  O   -0.260464
     9  C    0.091786
    10  H    0.279201
    11  H    0.127767
    12  H    0.080733
    13  H    0.062214
    14  H    0.096402
    15  H    0.089162
    16  H    0.099703
    17  H    0.105802
    18  H    0.079336
    19  H    0.103337
 Sum of Mulliken charges =   0.00000

 Dipole moment (field-independent basis, Debye):
    X=              0.5712    Y=             -0.1096    Z=             -2.2526  Tot=              2.3265
 Quadrupole moment (field-independent basis, Debye-Ang):
   XX=            -55.5346   YY=            -50.7749   ZZ=            -52.4649
   XY=              3.1710   XZ=              2.9552   YZ=              2.0085

  Exact polarizability:  80.412   0.888  70.931  -0.048   2.038  67.102
 Approx polarizability: 107.994  -1.281 106.139   1.894   0.832 108.472

                      1                      2                      3
                      A                      A                      A
 Frequencies --     97.0407               170.8155               212.2205
 Red. masses --      3.5905                 4.0998                 2.3104
 Frc consts  --      0.0199                 0.0705                 0.0613
 IR Inten    --      1.4794                 0.6957                 9.1398

                      4                      5                      6
                      A                      A                      A
 Frequencies --    313.5661               374.5468               446.2084
 Red. masses --      1.1933                 3.6093                 2.0688
 Frc consts  --      0.0691                 0.2983                 0.2427
 IR Inten    --    103.3236                 9.3626                 2.7351

                      7                      8                      9
                      A                      A                      A
 Frequencies --    530.7738               584.9325               705.1650
 Red. masses --      3.4776                 4.7511                 3.9788
 Frc consts  --      0.5772                 0.9578                 1.1657
 IR Inten    --      7.0855                14.6411                 0.6936

                     10                     11                     12
                      A                      A                      A
 Frequencies --    710.0158               804.4046               809.5706
 Red. masses --      4.5541                 1.5690                 1.7942
 Frc consts  --      1.3526                 0.5981                 0.6928
 IR Inten    --      1.0861                18.5106                12.3346

                     13                     14                     15
                      A                      A                      A
 Frequencies --    829.5741               873.2658               914.6214
 Red. masses --      3.5391                 2.3043                 2.4895
 Frc consts  --      1.4350                 1.0354                 1.2270
 IR Inten    --     11.1579                 1.5474                16.2496

                     16                     17                     18
                      A                      A                      A
 Frequencies --    919.7724               952.0931               968.1190
 Red. masses --      2.1666                 2.0461                 3.0229
 Frc consts  --      1.0799                 1.0928                 1.6693
 IR Inten    --     15.3745                 1.8637                14.3772

                     19                     20                     21
                      A                      A                      A
 Frequencies --    985.2364               998.4567              1027.8493
 Red. masses --      2.8254                 1.6234                 2.0085
 Frc consts  --      1.6159                 0.9535                 1.2502
 IR Inten    --     25.9674                 6.9816                19.9472

                     22                     23                     24
                      A                      A                      A
 Frequencies --   1048.6249              1050.6180              1056.9961
 Red. masses --      1.6080                 1.7517                 1.7467
 Frc consts  --      1.0418                 1.1392                 1.1498
 IR Inten    --     15.3930                11.0166                31.6123

                     25                     26                     27
                      A                      A                      A
 Frequencies --   1084.5006              1088.7462              1108.4391
 Red. masses --      2.0410                 2.2539                 2.3370
 Frc consts  --      1.4143                 1.5741                 1.6917
 IR Inten    --     20.4755                18.5231                 9.5436

                     28                     29                     30
                      A                      A                      A
 Frequencies --   1157.6446              1193.8521              1222.1967
 Red. masses --      1.1899                 1.3809                 1.7067
 Frc consts  --      0.9396                 1.1596                 1.5020
 IR Inten    --      3.2645                15.2428                20.8906

                     31                     32                     33
                      A                      A                      A
 Frequencies --   1233.4315              1254.2400              1274.8077
 Red. masses --      1.6313                 1.3373                 1.5866
 Frc consts  --      1.4623                 1.2395                 1.5191
 IR Inten    --      4.0205                 3.9307                 6.3505

                     34                     35                     36
                      A                      A                      A
 Frequencies --   1298.3683              1335.5883              1371.3311
 Red. masses --      1.5711                 1.6675                 1.5485
 Frc consts  --      1.5605                 1.7525                 1.7158
 IR Inten    --      3.0360                 2.0763                 8.0921

                     37                     38                     39
                      A                      A                      A
 Frequencies --   1384.3189              1396.0368              1414.2605
 Red. masses --      1.8635                 1.4236                 1.3256
 Frc consts  --      2.1041                 1.6347                 1.5621
 IR Inten    --      4.4301                10.5323                34.5525

                     40                     41                     42
                      A                      A                      A
 Frequencies --   1487.9016              1508.4485              2972.7303
 Red. masses --      1.1106                 1.0833                 1.0720
 Frc consts  --      1.4486                 1.4523                 5.5816
 IR Inten    --      1.8004                 1.0986                65.1809

                     43                     44                     45
                      A                      A                      A
 Frequencies --   3021.6428              3059.2740              3103.3598
 Red. masses --      1.0828                 1.0579                 1.0915
 Frc consts  --      5.8249                 5.8335                 6.1938
 IR Inten    --     28.3663                32.4141                14.0121

                     46                     47                     48
                      A                      A                      A
 Frequencies --   3109.6504              3144.5620              3208.0554
 Red. masses --      1.1072                 1.0906                 1.0916
 Frc consts  --      6.3081                 6.3538                 6.6188
 IR Inten    --     25.4407                27.2871                 8.3505

                     49                     50                     51
                      A                      A                      A
 Frequencies --   3221.8436              3232.8659              3812.4136
 Red. masses --      1.0910                 1.0980                 1.0662
 Frc consts  --      6.6724                 6.7613                 9.1300
 IR Inten    --      4.1300                11.0916                15.6579

 - Thermochemistry -
 -------------------
 Temperature   298.150 Kelvin.  Pressure   1.00000 Atm.
 Atom     1 has atomic number  8 and mass  15.99491

 Molecular mass:   126.06808 amu.
 Principal axes and moments of inertia in atomic units:
                           1         2         3
     Eigenvalues --   523.168031351.827841407.62757
           X            0.99987   0.01510  -0.00604
           Y           -0.01405   0.98911   0.14649
           Z            0.00819  -0.14639   0.98919
 This molecule is an asymmetric top.
 Rotational symmetry number  1.
 Warning -- assumption of classical behavior for rotation
           may cause significant error
 Rotational temperatures (Kelvin)      0.16556     0.06407     0.06153
 Rotational constants (GHZ):           3.44964     1.33504     1.28212
 Zero-point vibrational energy     425182.7 (Joules/Mol)
                                  101.62110 (Kcal/Mol)
 Warning -- explicit consideration of   8 degrees of freedom as
           vibrations may cause significant error
 Vibrational temperatures:    139.62   245.77   305.34   451.15   538.89
          (Kelvin)            641.99   763.66   841.59  1014.57  1021.55
                             1157.36  1164.79  1193.57  1256.43  1315.93
                             1323.35  1369.85  1392.91  1417.53  1436.55
                             1478.84  1508.74  1511.60  1520.78  1560.35
                             1566.46  1594.79  1665.59  1717.68  1758.47
                             1774.63  1804.57  1834.16  1868.06  1921.61
                             1973.04  1991.72  2008.58  2034.80  2140.76
                             2170.32  4277.09  4347.46  4401.61  4465.04
                             4474.09  4524.32  4615.67  4635.51  4651.37
                             5485.21

 Zero-point correction=                           0.161944 (Hartree/Particle)
 Thermal correction to Energy=                    0.169162
 Thermal correction to Enthalpy=                  0.170107
 Thermal correction to Gibbs Free Energy=         0.130230
 Sum of electronic and zero-point Energies=           -423.016189
 Sum of electronic and thermal Energies=              -423.008970
 Sum of electronic and thermal Enthalpies=            -423.008026
 Sum of electronic and thermal Free Energies=         -423.047903

                     E (Thermal)             CV                S
                      KCal/Mol        Cal/Mol-Kelvin    Cal/Mol-Kelvin
 Total                  106.151             29.217             83.928
 Electronic               0.000              0.000              0.000
 Translational            0.889              2.981             40.409
 Rotational               0.889              2.981             28.389
 Vibrational            104.374             23.255             15.130
 Vibration     1          0.603              1.951              3.513
 Vibration     2          0.626              1.878              2.426
 Vibration     3          0.643              1.822              2.024
 Vibration     4          0.701              1.648              1.343
 Vibration     5          0.746              1.524              1.061
 Vibration     6          0.805              1.369              0.807
 Vibration     7          0.886              1.182              0.585
 Vibration     8          0.942              1.064              0.476

 Optimization completed.
    -- Stationary point found.
 Normal termination of Gaussian 09 at Tue Jan 28 14:49:07 2020.
