 Gaussian 09, Revision D.01,
 Gaussian 09:  ES64L-G09RevD.01 24-Apr-2013

 -----------------------------
 # b3lyp 6-31G(2df,p) opt Freq
 -----------------------------

 -----
 titel
 -----
 Symbolic Z-matrix:
 Charge =  0 Multiplicity = 1

 SCF Done:  E(RB3LYP) =  -423.223084586     A.U. after   14 cycles
 Optimization completed.
    -- Stationary point found.
 Normal termination of Gaussian 09 at Mon Jan 27 22:57:38 2020.

 ----------------------------------------------------------------------
 #N Geom=AllCheck Guess=TCheck SCRF=Check GenChk RB3LYP/6-31G(2df,p) Fr
 eq
 ----------------------------------------------------------------------

 Structure from the checkpoint file:  "/scratch/puck/g09_67912f33-26e2-4228-956c-93be5bf590f4/Gau-191713.chk"
 -----
 titel
 -----
 Charge =  0 Multiplicity = 1

                         Standard orientation:
 ---------------------------------------------------------------------
 Center     Atomic      Atomic             Coordinates (Angstroms)
 Number     Number       Type             X           Y           Z
 ---------------------------------------------------------------------
      1          6           0       -1.780914    1.491687    0.260747
      2          6           0       -0.738916    0.649112   -0.486424
      3          6           0        0.705228    1.137740   -0.310944
      4          6           0        1.255413    0.621970    1.052784
      5          6           0        1.493594   -0.708785    0.306244
      6          6           0        1.655452    0.111094   -0.992285
      7          8           0        0.275461   -1.478162    0.265078
      8          6           0       -0.867889   -0.831922   -0.086872
      9          8           0       -1.910944   -1.425820   -0.082618
     10          1           0       -1.798638    2.511769   -0.134591
     11          1           0       -2.772398    1.050001    0.144353
     12          1           0       -1.557635    1.547824    1.331126
     13          1           0       -0.991529    0.673968   -1.555380
     14          1           0        0.808322    2.197284   -0.555298
     15          1           0        2.198274    1.101988    1.324166
     16          1           0        0.590286    0.596381    1.919544
     17          1           0        2.266388   -1.405005    0.630196
     18          1           0        2.673618    0.492771   -1.098009
     19          1           0        1.335367   -0.360496   -1.925292
 ---------------------------------------------------------------------

 SCF Done:  E(RB3LYP) =  -423.223084586     A.U. after    1 cycles

 The electronic state is 1-A.
 Alpha  occ. eigenvalues --  -19.17682 -19.11570 -10.29992 -10.25458 -10.20788
 Alpha  occ. eigenvalues --  -10.20755 -10.19802 -10.19762 -10.18342  -1.09378
 Alpha  occ. eigenvalues --   -1.01373  -0.86922  -0.78595  -0.69309  -0.68052
 Alpha  occ. eigenvalues --   -0.63217  -0.60570  -0.53318  -0.50868  -0.48218
 Alpha  occ. eigenvalues --   -0.47164  -0.45366  -0.43018  -0.42290  -0.40552
 Alpha  occ. eigenvalues --   -0.39519  -0.39081  -0.36910  -0.35000  -0.33632
 Alpha  occ. eigenvalues --   -0.32617  -0.30891  -0.28223  -0.25818
 Alpha virt. eigenvalues --    0.00982   0.07684   0.09173   0.10946   0.11600
 Alpha virt. eigenvalues --    0.13267   0.14526   0.14692   0.16615   0.16904
 Alpha virt. eigenvalues --    0.17347   0.18192   0.19157   0.20102   0.21131

 Mulliken charges:
               1
     1  C   -0.407469
     2  C   -0.123413
     3  C   -0.025787
     4  C   -0.251677
     5  C    0.126361
     6  C   -0.257810
     7  O   -0.239257
     8  C    0.417804
     9  O   -0.339448
    10  H    0.114529
    11  H    0.148212
    12  H    0.121580
    13  H    0.111280
    14  H    0.070948
    15  H    0.111117
    16  H    0.112464
    17  H    0.091663
    18  H    0.109784
    19  H    0.109119
 Sum of Mulliken charges =   0.00000

 Dipole moment (field-independent basis, Debye):
    X=              2.9982    Y=              3.0574    Z=             -0.2855  Tot=              4.2917
 Quadrupole moment (field-independent basis, Debye-Ang):
   XX=            -54.5809   YY=            -57.6562   ZZ=            -51.3987
   XY=             -4.7928   XZ=              0.4279   YZ=              0.2061

  Exact polarizability:  86.292   0.000  71.919   0.731   0.161  65.088
 Approx polarizability: 123.635   4.784 106.213   2.339  -0.870  99.172

                      1                      2                      3
                      A                      A                      A
 Frequencies --     93.5339               212.6695               227.2521
 Red. masses --      4.8114                 2.5420                 1.1945
 Frc consts  --      0.0248                 0.0677                 0.0363
 IR Inten    --      0.9114                 0.2772                 0.2276

                      4                      5                      6
                      A                      A                      A
 Frequencies --    273.6960               383.5556               395.3559
 Red. masses --      2.4480                 3.6301                 2.4062
 Frc consts  --      0.1080                 0.3146                 0.2216
 IR Inten    --      4.3821                 3.4594                 1.1984

                      7                      8                      9
                      A                      A                      A
 Frequencies --    442.0055               477.1368               518.2839
 Red. masses --      3.9004                 3.1240                 3.9678
 Frc consts  --      0.4490                 0.4190                 0.6280
 IR Inten    --      1.9728                 1.0843                 1.6659

                     10                     11                     12
                      A                      A                      A
 Frequencies --    595.8632               682.8579               766.5986
 Red. masses --      3.3953                 5.1994                 3.0819
 Frc consts  --      0.7103                 1.4284                 1.0671
 IR Inten    --      3.9604                 2.5848                 4.8631

                     13                     14                     15
                      A                      A                      A
 Frequencies --    817.4270               840.6991               891.9371
 Red. masses --      1.8751                 2.2252                 2.7855
 Frc consts  --      0.7382                 0.9266                 1.3056
 IR Inten    --      0.6087                 2.6200                 4.0720

                     16                     17                     18
                      A                      A                      A
 Frequencies --    896.9750               921.1053               962.5984
 Red. masses --      2.2916                 2.5826                 2.3727
 Frc consts  --      1.0863                 1.2910                 1.2953
 IR Inten    --      0.9727                 9.2998                16.1910

                     19                     20                     21
                      A                      A                      A
 Frequencies --    977.5815              1029.2669              1058.4137
 Red. masses --      1.7320                 1.7962                 1.3668
 Frc consts  --      0.9752                 1.1212                 0.9021
 IR Inten    --      6.7593                20.4003                16.0231

                     22                     23                     24
                      A                      A                      A
 Frequencies --   1074.4912              1096.3595              1112.5405
 Red. masses --      1.6789                 2.1572                 1.4072
 Frc consts  --      1.1421                 1.5277                 1.0262
 IR Inten    --     40.2656                45.6662                27.1515

                     25                     26                     27
                      A                      A                      A
 Frequencies --   1124.0972              1151.0449              1168.9439
 Red. masses --      2.4367                 1.8627                 1.9643
 Frc consts  --      1.8141                 1.4540                 1.5814
 IR Inten    --      0.3170                15.2618                21.5967

                     28                     29                     30
                      A                      A                      A
 Frequencies --   1209.2900              1246.1412              1269.3846
 Red. masses --      1.8844                 1.3666                 1.7457
 Frc consts  --      1.6236                 1.2504                 1.6574
 IR Inten    --    112.2634                 1.6527                 8.3000

                     31                     32                     33
                      A                      A                      A
 Frequencies --   1282.8178              1306.4345              1335.1074
 Red. masses --      1.6365                 1.4859                 1.5740
 Frc consts  --      1.5867                 1.4943                 1.6531
 IR Inten    --      4.3739                 1.1932                 6.3918

                     34                     35                     36
                      A                      A                      A
 Frequencies --   1362.4543              1389.7127              1405.8513
 Red. masses --      1.6206                 1.4529                 1.2306
 Frc consts  --      1.7725                 1.6532                 1.4330
 IR Inten    --      7.1140                39.9682                14.1580

                     37                     38                     39
                      A                      A                      A
 Frequencies --   1470.1420              1495.5997              1498.5517
 Red. masses --      1.0930                 1.0581                 1.0998
 Frc consts  --      1.3918                 1.3945                 1.4552
 IR Inten    --      4.5082                 3.8051                 2.9353

                     40                     41                     42
                      A                      A                      A
 Frequencies --   1504.0634              1846.7100              3017.4546
 Red. masses --      1.0660                12.7703                 1.0820
 Frc consts  --      1.4208                25.6594                 5.8043
 IR Inten    --      5.3167               308.5347                 9.8796

                     43                     44                     45
                      A                      A                      A
 Frequencies --   3042.1823              3060.4325              3065.4069
 Red. masses --      1.0363                 1.0574                 1.0598
 Frc consts  --      5.6510                 5.8350                 5.8672
 IR Inten    --     17.6211                35.6563                 9.6882

                     46                     47                     48
                      A                      A                      A
 Frequencies --   3083.7657              3107.8350              3119.8386
 Red. masses --      1.0872                 1.1016                 1.0993
 Frc consts  --      6.0916                 6.2688                 6.3041
 IR Inten    --     36.8609                25.3586                23.3100

                     49                     50                     51
                      A                      A                      A
 Frequencies --   3122.2219              3126.7540              3137.9453
 Red. masses --      1.1054                 1.1029                 1.1005
 Frc consts  --      6.3486                 6.3530                 6.3847
 IR Inten    --     16.7441                48.2955                 8.7616

 - Thermochemistry -
 -------------------
 Temperature   298.150 Kelvin.  Pressure   1.00000 Atm.
 Atom     1 has atomic number  6 and mass  12.00000

 Molecular mass:   126.06808 amu.
 Principal axes and moments of inertia in atomic units:
                           1         2         3
     Eigenvalues --   712.291371002.818991374.02808
           X            0.99504  -0.09921  -0.00692
           Y            0.09930   0.99495   0.01456
           Z            0.00544  -0.01518   0.99987
 This molecule is an asymmetric top.
 Rotational symmetry number  1.
 Warning -- assumption of classical behavior for rotation
           may cause significant error
 Rotational temperatures (Kelvin)      0.12160     0.08637     0.06304
 Rotational constants (GHZ):           2.53371     1.79967     1.31347
 Zero-point vibrational energy     422870.3 (Joules/Mol)
                                  101.06842 (Kcal/Mol)
 Warning -- explicit consideration of  10 degrees of freedom as
           vibrations may cause significant error
 Vibrational temperatures:    134.57   305.98   326.96   393.79   551.85
          (Kelvin)            568.83   635.95   686.49   745.69   857.31
                              982.48  1102.96  1176.09  1209.58  1283.30
                             1290.55  1325.26  1384.96  1406.52  1480.88
                             1522.82  1545.95  1577.41  1600.70  1617.32
                             1656.09  1681.85  1739.90  1792.92  1826.36
                             1845.69  1879.67  1920.92  1960.27  1999.48
                             2022.70  2115.20  2151.83  2156.08  2164.01
                             2657.00  4341.44  4377.02  4403.27  4410.43
                             4436.85  4471.48  4488.75  4492.18  4498.70
                             4514.80

 Zero-point correction=                           0.161063 (Hartree/Particle)
 Thermal correction to Energy=                    0.168595
 Thermal correction to Enthalpy=                  0.169540
 Thermal correction to Gibbs Free Energy=         0.129234
 Sum of electronic and zero-point Energies=           -423.062022
 Sum of electronic and thermal Energies=              -423.054489
 Sum of electronic and thermal Enthalpies=            -423.053545
 Sum of electronic and thermal Free Energies=         -423.093851

                     E (Thermal)             CV                S
                      KCal/Mol        Cal/Mol-Kelvin    Cal/Mol-Kelvin
 Total                  105.795             30.142             84.831
 Electronic               0.000              0.000              0.000
 Translational            0.889              2.981             40.409
 Rotational               0.889              2.981             28.375
 Vibrational            104.018             24.180             16.047
 Vibration     1          0.603              1.954              3.585
 Vibration     2          0.644              1.822              2.021
 Vibration     3          0.651              1.799              1.901
 Vibration     4          0.676              1.722              1.573
 Vibration     5          0.753              1.505              1.025
 Vibration     6          0.762              1.480              0.980
 Vibration     7          0.802              1.379              0.820
 Vibration     8          0.834              1.301              0.718
 Vibration     9          0.873              1.209              0.614
 Vibration    10          0.954              1.041              0.457

 Optimization completed.
    -- Stationary point found.
 Normal termination of Gaussian 09 at Mon Jan 27 23:44:00 2020.
