 Gaussian 09, Revision D.01,
 Gaussian 09:  ES64L-G09RevD.01 24-Apr-2013

 -----------------------------
 # b3lyp 6-31G(2df,p) opt Freq
 -----------------------------

 -----
 titel
 -----
 Symbolic Z-matrix:
 Charge =  0 Multiplicity = 1

 SCF Done:  E(RB3LYP) =  -423.191235654     A.U. after   14 cycles
 Optimization completed.
    -- Stationary point found.
 Normal termination of Gaussian 09 at Tue Jan 28 14:01:05 2020.

 ----------------------------------------------------------------------
 #N Geom=AllCheck Guess=TCheck SCRF=Check GenChk RB3LYP/6-31G(2df,p) Fr
 eq
 ----------------------------------------------------------------------

 Structure from the checkpoint file:  "/scratch/puck/g09_1f9a41c8-8927-4065-9ed4-fe9841d52182/Gau-110453.chk"
 -----
 titel
 -----
 Charge =  0 Multiplicity = 1

                         Standard orientation:
 ---------------------------------------------------------------------
 Center     Atomic      Atomic             Coordinates (Angstroms)
 Number     Number       Type             X           Y           Z
 ---------------------------------------------------------------------
      1          6           0        3.139202   -0.579428   -0.417526
      2          8           0        2.294924    0.524021   -0.151535
      3          6           0        0.946187    0.223542   -0.296685
      4          6           0        0.006896    1.062875    0.510446
      5          6           0       -1.400085    1.241568   -0.018202
      6          6           0       -1.969264   -0.180584   -0.174946
      7          8           0       -2.969327   -0.468731   -0.776705
      8          6           0       -1.052542   -1.176336    0.560503
      9          6           0        0.218603   -0.413257    0.866264
     10          1           0        3.020611   -0.939170   -1.450652
     11          1           0        4.167232   -0.237809   -0.277988
     12          1           0        2.941015   -1.417535    0.265748
     13          1           0        0.654476   -0.069927   -1.310466
     14          1           0        0.456204    1.833338    1.124998
     15          1           0       -2.030427    1.779494    0.701330
     16          1           0       -1.474158    1.776805   -0.969918
     17          1           0       -1.564225   -1.489308    1.479733
     18          1           0       -0.920711   -2.074745   -0.051125
     19          1           0        0.811221   -0.673733    1.735141
 ---------------------------------------------------------------------

 SCF Done:  E(RB3LYP) =  -423.191235654     A.U. after    1 cycles

 The electronic state is 1-A.
 Alpha  occ. eigenvalues --  -19.15135 -19.13093 -10.27076 -10.24004 -10.22950
 Alpha  occ. eigenvalues --  -10.19742 -10.19693 -10.19534 -10.19476  -1.04689
 Alpha  occ. eigenvalues --   -1.04238  -0.88405  -0.75167  -0.73109  -0.68718
 Alpha  occ. eigenvalues --   -0.59333  -0.57248  -0.54249  -0.51593  -0.47864
 Alpha  occ. eigenvalues --   -0.45582  -0.45497  -0.44605  -0.42616  -0.42168
 Alpha  occ. eigenvalues --   -0.41235  -0.39392  -0.37248  -0.35335  -0.34582
 Alpha  occ. eigenvalues --   -0.30658  -0.28091  -0.25083  -0.24234
 Alpha virt. eigenvalues --   -0.01909   0.08960   0.09691   0.11226   0.11411
 Alpha virt. eigenvalues --    0.13443   0.13950   0.15093   0.15634   0.16924
 Alpha virt. eigenvalues --    0.17681   0.18221   0.18606   0.19642   0.22520

 Mulliken charges:
               1
     1  C   -0.238008
     2  O   -0.243124
     3  C    0.115620
     4  C   -0.096964
     5  C   -0.338373
     6  C    0.378985
     7  O   -0.302531
     8  C   -0.335334
     9  C   -0.100300
    10  H    0.109161
    11  H    0.129919
    12  H    0.109137
    13  H    0.084115
    14  H    0.102695
    15  H    0.132988
    16  H    0.133132
    17  H    0.132847
    18  H    0.129407
    19  H    0.096629
 Sum of Mulliken charges =   0.00000

 Dipole moment (field-independent basis, Debye):
    X=              2.0350    Y=             -0.3644    Z=              1.2380  Tot=              2.4097
 Quadrupole moment (field-independent basis, Debye-Ang):
   XX=            -61.0212   YY=            -52.0129   ZZ=            -52.0524
   XY=             -5.6330   XZ=             -4.9245   YZ=             -0.3356

  Exact polarizability:  90.544  -1.897  72.209   1.734  -0.360  64.802
 Approx polarizability: 117.186   1.067 107.897   6.173   0.388 101.531

                      1                      2                      3
                      A                      A                      A
 Frequencies --     63.0353               106.8580               166.7834
 Red. masses --      5.0363                 2.5781                 2.7851
 Frc consts  --      0.0118                 0.0173                 0.0456
 IR Inten    --      3.8090                 4.6101                 1.3867

                      4                      5                      6
                      A                      A                      A
 Frequencies --    183.6019               276.9088               284.8000
 Red. masses --      1.1842                 2.0892                 2.4890
 Frc consts  --      0.0235                 0.0944                 0.1189
 IR Inten    --      0.5719                 1.1052                 0.7428

                      7                      8                      9
                      A                      A                      A
 Frequencies --    391.7824               438.0743               470.7618
 Red. masses --      4.3414                 3.1972                 2.7614
 Frc consts  --      0.3926                 0.3615                 0.3606
 IR Inten    --      3.7535                 5.0759                 4.1826

                     10                     11                     12
                      A                      A                      A
 Frequencies --    491.8521               641.4144               649.0652
 Red. masses --      3.5638                 3.2742                 4.5043
 Frc consts  --      0.5080                 0.7937                 1.1180
 IR Inten    --      4.8020                 0.1094                 3.4268

                     13                     14                     15
                      A                      A                      A
 Frequencies --    767.1045               786.9666               835.1653
 Red. masses --      3.3837                 1.8702                 3.5273
 Frc consts  --      1.1731                 0.6824                 1.4496
 IR Inten    --      4.6549                 7.2106                 6.9228

                     16                     17                     18
                      A                      A                      A
 Frequencies --    851.5446               928.5111               992.6756
 Red. masses --      1.6786                 2.4907                 1.7740
 Frc consts  --      0.7171                 1.2651                 1.0299
 IR Inten    --     12.1503                21.1739                 2.9634

                     19                     20                     21
                      A                      A                      A
 Frequencies --   1014.8515              1035.3165              1053.6542
 Red. masses --      1.7040                 2.6091                 1.3174
 Frc consts  --      1.0340                 1.6477                 0.8617
 IR Inten    --      3.7040                19.9802                 0.7480

                     22                     23                     24
                      A                      A                      A
 Frequencies --   1072.3051              1088.6202              1143.4215
 Red. masses --      2.0588                 1.4743                 3.7590
 Frc consts  --      1.3948                 1.0294                 2.8956
 IR Inten    --      1.0074                26.5485                48.2317

                     25                     26                     27
                      A                      A                      A
 Frequencies --   1168.1686              1169.7545              1182.2092
 Red. masses --      1.3970                 2.3146                 1.3032
 Frc consts  --      1.1232                 1.8660                 1.0731
 IR Inten    --      2.1808                54.2909                 5.4553

                     28                     29                     30
                      A                      A                      A
 Frequencies --   1187.4827              1211.7618              1243.1129
 Red. masses --      1.8271                 1.3292                 1.9057
 Frc consts  --      1.5180                 1.1499                 1.7351
 IR Inten    --     51.0998                 6.0470                39.3186

                     31                     32                     33
                      A                      A                      A
 Frequencies --   1272.9780              1278.4458              1320.5460
 Red. masses --      1.7451                 1.7150                 1.7190
 Frc consts  --      1.6662                 1.6515                 1.7662
 IR Inten    --      7.4088                13.8934                 2.3165

                     34                     35                     36
                      A                      A                      A
 Frequencies --   1330.8622              1438.9882              1447.9763
 Red. masses --      1.3302                 1.7561                 1.0902
 Frc consts  --      1.3881                 2.1425                 1.3468
 IR Inten    --      7.0257                34.7536                11.7606

                     37                     38                     39
                      A                      A                      A
 Frequencies --   1456.5661              1486.1508              1490.1949
 Red. masses --      1.1390                 1.0642                 1.2877
 Frc consts  --      1.4238                 1.3849                 1.6848
 IR Inten    --      4.7774                 4.6821                 8.0369

                     40                     41                     42
                      A                      A                      A
 Frequencies --   1508.4089              1848.3770              2985.4547
 Red. masses --      1.0862                12.7702                 1.0364
 Frc consts  --      1.4562                25.7058                 5.4423
 IR Inten    --      4.0663               213.1982                53.3093

                     43                     44                     45
                      A                      A                      A
 Frequencies --   3033.9508              3036.9889              3038.0998
 Red. masses --      1.0631                 1.1021                 1.0643
 Frc consts  --      5.7654                 5.9891                 5.7880
 IR Inten    --     10.7224                56.7512                19.3978

                     46                     47                     48
                      A                      A                      A
 Frequencies --   3045.3848              3081.4781              3087.0291
 Red. masses --      1.0869                 1.0982                 1.0979
 Frc consts  --      5.9390                 6.1442                 6.1647
 IR Inten    --     23.8576                 9.3268                 9.1893

                     49                     50                     51
                      A                      A                      A
 Frequencies --   3121.6645              3181.0150              3191.8513
 Red. masses --      1.0976                 1.0894                 1.0914
 Frc consts  --      6.3020                 6.4950                 6.5514
 IR Inten    --     29.3546                 6.4596                 8.4548

 - Thermochemistry -
 -------------------
 Temperature   298.150 Kelvin.  Pressure   1.00000 Atm.
 Atom     1 has atomic number  6 and mass  12.00000

 Molecular mass:   126.06808 amu.
 Principal axes and moments of inertia in atomic units:
                           1         2         3
     Eigenvalues --   444.458061878.058982027.48993
           X            0.99962  -0.02438  -0.01297
           Y            0.02425   0.99966  -0.00996
           Z            0.01321   0.00964   0.99987
 This molecule is an asymmetric top.
 Rotational symmetry number  1.
 Warning -- assumption of classical behavior for rotation
           may cause significant error
 Rotational temperatures (Kelvin)      0.19488     0.04612     0.04272
 Rotational constants (GHZ):           4.06054     0.96096     0.89014
 Zero-point vibrational energy     416180.7 (Joules/Mol)
                                   99.46957 (Kcal/Mol)
 Warning -- explicit consideration of  10 degrees of freedom as
           vibrations may cause significant error
 Vibrational temperatures:     90.69   153.74   239.96   264.16   398.41
          (Kelvin)            409.76   563.69   630.29   677.32   707.66
                              922.85   933.86  1103.69  1132.27  1201.62
                             1225.18  1335.92  1428.24  1460.14  1489.59
                             1515.97  1542.81  1566.28  1645.13  1680.73
                             1683.01  1700.93  1708.52  1743.45  1788.56
                             1831.53  1839.40  1899.97  1914.81  2070.38
                             2083.31  2095.67  2138.24  2144.06  2170.26
                             2659.40  4295.40  4365.17  4369.54  4371.14
                             4381.62  4433.55  4441.54  4491.37  4576.77
                             4592.36

 Zero-point correction=                           0.158515 (Hartree/Particle)
 Thermal correction to Energy=                    0.167055
 Thermal correction to Enthalpy=                  0.167999
 Thermal correction to Gibbs Free Energy=         0.124890
 Sum of electronic and zero-point Energies=           -423.032721
 Sum of electronic and thermal Energies=              -423.024181
 Sum of electronic and thermal Enthalpies=            -423.023236
 Sum of electronic and thermal Free Energies=         -423.066346

                     E (Thermal)             CV                S
                      KCal/Mol        Cal/Mol-Kelvin    Cal/Mol-Kelvin
 Total                  104.829             31.999             90.732
 Electronic               0.000              0.000              0.000
 Translational            0.889              2.981             40.409
 Rotational               0.889              2.981             28.916
 Vibrational            103.051             26.037             21.407
 Vibration     1          0.597              1.972              4.360
 Vibration     2          0.606              1.944              3.325
 Vibration     3          0.624              1.883              2.471
 Vibration     4          0.631              1.862              2.291
 Vibration     5          0.678              1.716              1.553
 Vibration     6          0.683              1.702              1.505
 Vibration     7          0.759              1.488              0.993
 Vibration     8          0.798              1.387              0.833
 Vibration     9          0.828              1.315              0.735
 Vibration    10          0.848              1.268              0.679

 Optimization completed.
    -- Stationary point found.
 Normal termination of Gaussian 09 at Tue Jan 28 14:40:23 2020.
