 Gaussian 09, Revision D.01,
 Gaussian 09:  ES64L-G09RevD.01 24-Apr-2013

 -----------------------------
 # b3lyp 6-31G(2df,p) opt Freq
 -----------------------------

 -----
 titel
 -----
 Symbolic Z-matrix:
 Charge =  0 Multiplicity = 1

 SCF Done:  E(RB3LYP) =  -423.127724405     A.U. after   13 cycles
 Optimization completed.
    -- Stationary point found.
 Normal termination of Gaussian 09 at Tue Jan 28 13:59:11 2020.

 ----------------------------------------------------------------------
 #N Geom=AllCheck Guess=TCheck SCRF=Check GenChk RB3LYP/6-31G(2df,p) Fr
 eq
 ----------------------------------------------------------------------

 Structure from the checkpoint file:  "/scratch/puck/g09_0c8d2518-9e43-4743-af74-a5478ce603f8/Gau-9554.chk"
 -----
 titel
 -----
 Charge =  0 Multiplicity = 1

                         Standard orientation:
 ---------------------------------------------------------------------
 Center     Atomic      Atomic             Coordinates (Angstroms)
 Number     Number       Type             X           Y           Z
 ---------------------------------------------------------------------
      1          6           0        3.102501   -0.149029   -0.394410
      2          8           0        2.015953   -0.292171    0.493671
      3          6           0        0.951774    0.575167    0.211359
      4          6           0       -0.322454    0.314034    1.021135
      5          6           0       -1.143858    1.036061   -0.102824
      6          6           0       -2.467599    0.289323   -0.212545
      7          8           0       -2.027356   -1.068652   -0.054765
      8          6           0       -0.630767   -0.916457    0.110245
      9          6           0       -0.084890    0.170368   -0.867990
     10          1           0        3.501403    0.877462   -0.384311
     11          1           0        3.886171   -0.834266   -0.063019
     12          1           0        2.825923   -0.400034   -1.429264
     13          1           0        1.297827    1.618296    0.167440
     14          1           0       -0.463963    0.399240    2.098580
     15          1           0       -1.135861    2.123206   -0.183536
     16          1           0       -3.180170    0.550540    0.579889
     17          1           0       -2.959120    0.417456   -1.185096
     18          1           0       -0.143413   -1.876977    0.247540
     19          1           0        0.034178    0.094859   -1.949283
 ---------------------------------------------------------------------

 SCF Done:  E(RB3LYP) =  -423.127724405     A.U. after    1 cycles

 The electronic state is 1-A.
 Alpha  occ. eigenvalues --  -19.14147 -19.13309 -10.23730 -10.23401 -10.22554
 Alpha  occ. eigenvalues --  -10.22465 -10.20253 -10.19516 -10.19467  -1.04634
 Alpha  occ. eigenvalues --   -1.03386  -0.89356  -0.73170  -0.69972  -0.63821
 Alpha  occ. eigenvalues --   -0.63195  -0.58858  -0.54846  -0.50790  -0.49606
 Alpha  occ. eigenvalues --   -0.47644  -0.46398  -0.43935  -0.42798  -0.40281
 Alpha  occ. eigenvalues --   -0.36664  -0.36104  -0.34040  -0.33962  -0.32067
 Alpha  occ. eigenvalues --   -0.31160  -0.29787  -0.25296  -0.23700
 Alpha virt. eigenvalues --    0.09377   0.11319   0.11959   0.12463   0.13863
 Alpha virt. eigenvalues --    0.14041   0.14309   0.14778   0.15063   0.15881
 Alpha virt. eigenvalues --    0.17664   0.17772   0.18370   0.19709   0.20658

 Mulliken charges:
               1
     1  C   -0.242244
     2  O   -0.258449
     3  C    0.158450
     4  C   -0.142270
     5  C   -0.068850
     6  C   -0.105016
     7  O   -0.283470
     8  C    0.153440
     9  C   -0.145092
    10  H    0.104962
    11  H    0.128412
    12  H    0.107814
    13  H    0.062645
    14  H    0.076552
    15  H    0.073837
    16  H    0.103182
    17  H    0.102484
    18  H    0.101375
    19  H    0.072241
 Sum of Mulliken charges =   0.00000

 Dipole moment (field-independent basis, Debye):
    X=              0.8372    Y=              1.8483    Z=             -0.8614  Tot=              2.2043
 Quadrupole moment (field-independent basis, Debye-Ang):
   XX=            -51.9407   YY=            -53.6378   ZZ=            -52.7168
   XY=             -3.5650   XZ=             -2.2522   YZ=              0.2474

  Exact polarizability:  92.838  -3.274  67.408  -0.789   0.196  66.198
 Approx polarizability: 116.437  -3.051 105.938  -0.178  -0.743 104.413

                      1                      2                      3
                      A                      A                      A
 Frequencies --     85.5380               164.9351               176.7170
 Red. masses --      2.9371                 2.1662                 1.3963
 Frc consts  --      0.0127                 0.0347                 0.0257
 IR Inten    --      2.0248                 0.3813                 0.6593

                      4                      5                      6
                      A                      A                      A
 Frequencies --    266.0407               317.4994               379.3836
 Red. masses --      2.8205                 2.5130                 4.6961
 Frc consts  --      0.1176                 0.1493                 0.3982
 IR Inten    --      1.7258                 3.0959                 2.3473

                      7                      8                      9
                      A                      A                      A
 Frequencies --    468.1361               528.5470               720.0942
 Red. masses --      3.5265                 3.6258                 3.9714
 Frc consts  --      0.4553                 0.5968                 1.2133
 IR Inten    --      1.0196                 5.6737                 1.6712

                     10                     11                     12
                      A                      A                      A
 Frequencies --    735.4658               767.4176               807.9518
 Red. masses --      4.5953                 3.0501                 2.8072
 Frc consts  --      1.4645                 1.0583                 1.0797
 IR Inten    --      2.4487                 0.3623                 6.2498

                     13                     14                     15
                      A                      A                      A
 Frequencies --    876.0280               915.4719               936.4648
 Red. masses --      2.6656                 2.2677                 1.9465
 Frc consts  --      1.2053                 1.1198                 1.0058
 IR Inten    --      9.2300                27.9853                16.8871

                     16                     17                     18
                      A                      A                      A
 Frequencies --    962.7803               972.3731               986.7829
 Red. masses --      1.9012                 3.9836                 1.0707
 Frc consts  --      1.0383                 2.2192                 0.6143
 IR Inten    --      5.7192                21.8451                 0.1899

                     19                     20                     21
                      A                      A                      A
 Frequencies --    988.9483              1036.4585              1050.4500
 Red. masses --      3.2705                 3.3165                 1.5695
 Frc consts  --      1.8845                 2.0991                 1.0204
 IR Inten    --     12.2433                13.8593                 0.2022

                     22                     23                     24
                      A                      A                      A
 Frequencies --   1076.5654              1110.6117              1119.7860
 Red. masses --      5.1470                 1.9285                 3.3369
 Frc consts  --      3.5146                 1.4015                 2.4653
 IR Inten    --    103.7514                 6.5648                12.8063

                     25                     26                     27
                      A                      A                      A
 Frequencies --   1145.2750              1156.4363              1174.0598
 Red. masses --      2.0953                 1.8166                 1.4109
 Frc consts  --      1.6193                 1.4314                 1.1459
 IR Inten    --     72.8672                67.0202                 1.3224

                     28                     29                     30
                      A                      A                      A
 Frequencies --   1184.8832              1206.2704              1209.1422
 Red. masses --      1.2926                 1.3559                 1.3674
 Frc consts  --      1.0692                 1.1624                 1.1779
 IR Inten    --      2.6617                12.4578                 7.0956

                     31                     32                     33
                      A                      A                      A
 Frequencies --   1228.8645              1259.3641              1276.5286
 Red. masses --      1.6487                 1.7499                 1.5592
 Frc consts  --      1.4669                 1.6352                 1.4970
 IR Inten    --     32.0398                17.3103                 6.7793

                     34                     35                     36
                      A                      A                      A
 Frequencies --   1281.7230              1319.4652              1382.2795
 Red. masses --      2.0090                 1.7209                 1.4657
 Frc consts  --      1.9446                 1.7652                 1.6501
 IR Inten    --     50.9875                 6.2030                32.8012

                     37                     38                     39
                      A                      A                      A
 Frequencies --   1410.0810              1483.8934              1489.2006
 Red. masses --      1.3071                 1.1250                 1.0810
 Frc consts  --      1.5312                 1.4596                 1.4125
 IR Inten    --     38.5405                 4.4299                 2.7959

                     40                     41                     42
                      A                      A                      A
 Frequencies --   1509.7299              1522.8452              2975.3377
 Red. masses --      1.0691                 1.0973                 1.0390
 Frc consts  --      1.4357                 1.4993                 5.4191
 IR Inten    --      4.9070                 0.3987                49.8351

                     43                     44                     45
                      A                      A                      A
 Frequencies --   2997.1355              3016.5932              3024.5804
 Red. masses --      1.0820                 1.0558                 1.1023
 Frc consts  --      5.7264                 5.6605                 5.9414
 IR Inten    --     73.2589                72.3492                47.8143

                     46                     47                     48
                      A                      A                      A
 Frequencies --   3053.8827              3107.7230              3113.9148
 Red. masses --      1.1098                 1.0893                 1.0890
 Frc consts  --      6.0983                 6.1982                 6.2212
 IR Inten    --     34.5730                40.9378                42.3875

                     49                     50                     51
                      A                      A                      A
 Frequencies --   3116.8305              3123.9405              3178.1191
 Red. masses --      1.0964                 1.0927                 1.0920
 Frc consts  --      6.2755                 6.2827                 6.4986
 IR Inten    --     32.8605                29.0899                16.7484

 - Thermochemistry -
 -------------------
 Temperature   298.150 Kelvin.  Pressure   1.00000 Atm.
 Atom     1 has atomic number  6 and mass  12.00000

 Molecular mass:   126.06808 amu.
 Principal axes and moments of inertia in atomic units:
                           1         2         3
     Eigenvalues --   368.696621610.083431686.08997
           X            0.99984  -0.01249  -0.01267
           Y            0.01260   0.99988   0.00873
           Z            0.01256  -0.00889   0.99988
 This molecule is an asymmetric top.
 Rotational symmetry number  1.
 Rotational temperatures (Kelvin)      0.23492     0.05379     0.05137
 Rotational constants (GHZ):           4.89492     1.12090     1.07037
 Zero-point vibrational energy     421076.8 (Joules/Mol)
                                  100.63977 (Kcal/Mol)
 Warning -- explicit consideration of   8 degrees of freedom as
           vibrations may cause significant error
 Vibrational temperatures:    123.07   237.30   254.26   382.77   456.81
          (Kelvin)            545.85   673.54   760.46  1036.05  1058.17
                             1104.14  1162.46  1260.41  1317.16  1347.36
                             1385.22  1399.03  1419.76  1422.87  1491.23
                             1511.36  1548.94  1597.92  1611.12  1647.79
                             1663.85  1689.21  1704.78  1735.55  1739.68
                             1768.06  1811.94  1836.64  1844.11  1898.41
                             1988.79  2028.79  2134.99  2142.62  2172.16
                             2191.03  4280.84  4312.20  4340.20  4351.69
                             4393.85  4471.31  4480.22  4484.42  4494.65
                             4572.60

 Zero-point correction=                           0.160380 (Hartree/Particle)
 Thermal correction to Energy=                    0.167867
 Thermal correction to Enthalpy=                  0.168811
 Thermal correction to Gibbs Free Energy=         0.128239
 Sum of electronic and zero-point Energies=           -422.967345
 Sum of electronic and thermal Energies=              -422.959858
 Sum of electronic and thermal Enthalpies=            -422.958914
 Sum of electronic and thermal Free Energies=         -422.999486

                     E (Thermal)             CV                S
                      KCal/Mol        Cal/Mol-Kelvin    Cal/Mol-Kelvin
 Total                  105.338             29.189             85.391
 Electronic               0.000              0.000              0.000
 Translational            0.889              2.981             40.409
 Rotational               0.889              2.981             28.395
 Vibrational            103.560             23.227             16.588
 Vibration     1          0.601              1.959              3.760
 Vibration     2          0.623              1.886              2.492
 Vibration     3          0.628              1.871              2.363
 Vibration     4          0.672              1.735              1.622
 Vibration     5          0.704              1.640              1.323
 Vibration     6          0.749              1.514              1.042
 Vibration     7          0.825              1.321              0.743
 Vibration     8          0.884              1.187              0.590

 Optimization completed.
    -- Stationary point found.
 Normal termination of Gaussian 09 at Tue Jan 28 14:48:47 2020.
