 Gaussian 09, Revision D.01,
 Gaussian 09:  ES64L-G09RevD.01 24-Apr-2013

 -----------------------------
 # b3lyp 6-31G(2df,p) opt Freq
 -----------------------------

 -----
 titel
 -----
 Symbolic Z-matrix:
 Charge =  0 Multiplicity = 1

 SCF Done:  E(RB3LYP) =  -423.144897536     A.U. after   12 cycles
 Optimization completed.
    -- Stationary point found.
 Normal termination of Gaussian 09 at Mon Jan 27 18:09:47 2020.

 ----------------------------------------------------------------------
 #N Geom=AllCheck Guess=TCheck SCRF=Check GenChk RB3LYP/6-31G(2df,p) Fr
 eq
 ----------------------------------------------------------------------

 Structure from the checkpoint file:  "/scratch/puck/g09_ecbf32d6-447f-4bb1-b355-aeddc1829084/Gau-65345.chk"
 -----
 titel
 -----
 Charge =  0 Multiplicity = 1

                         Standard orientation:
 ---------------------------------------------------------------------
 Center     Atomic      Atomic             Coordinates (Angstroms)
 Number     Number       Type             X           Y           Z
 ---------------------------------------------------------------------
      1          8           0       -2.260067   -0.271567   -0.098583
      2          6           0       -0.872431   -0.408628    0.007982
      3          6           0       -0.208054   -1.010046   -1.243870
      4          6           0        0.996460   -0.038148   -1.107713
      5          6           0        1.965070   -0.446985    0.030375
      6          6           0        0.971400    0.079789    1.097135
      7          6           0       -0.237101   -0.872388    1.338703
      8          6           0        0.162553    0.788141   -0.041207
      9          8           0       -0.160271    2.128936   -0.025831
     10          1           0       -2.603380    0.008836    0.756647
     11          1           0       -0.004046   -2.085265   -1.246440
     12          1           0       -0.813310   -0.759109   -2.120193
     13          1           0        1.422825    0.367231   -2.025084
     14          1           0        2.256115   -1.501007    0.089735
     15          1           0        2.870287    0.166611    0.012094
     16          1           0        1.377081    0.599237    1.964422
     17          1           0       -0.040724   -1.940720    1.474987
     18          1           0       -0.832872   -0.513438    2.187236
     19          1           0       -0.936651    2.248264   -0.586520
 ---------------------------------------------------------------------

 SCF Done:  E(RB3LYP) =  -423.144897536     A.U. after    1 cycles

 The electronic state is 1-A.
 Alpha  occ. eigenvalues --  -19.14796 -19.14556 -10.22854 -10.22435 -10.18280
 Alpha  occ. eigenvalues --  -10.18258 -10.17830 -10.17795 -10.17641  -1.03728
 Alpha  occ. eigenvalues --   -1.02247  -0.88607  -0.74132  -0.73043  -0.63936
 Alpha  occ. eigenvalues --   -0.59188  -0.57992  -0.54575  -0.52161  -0.47600
 Alpha  occ. eigenvalues --   -0.46330  -0.43603  -0.42022  -0.40275  -0.40115
 Alpha  occ. eigenvalues --   -0.38648  -0.36821  -0.34020  -0.31940  -0.31537
 Alpha  occ. eigenvalues --   -0.30507  -0.29284  -0.24823  -0.22275
 Alpha virt. eigenvalues --    0.06479   0.08713   0.09737   0.11157   0.11806
 Alpha virt. eigenvalues --    0.12429   0.14861   0.15850   0.16393   0.18065
 Alpha virt. eigenvalues --    0.19011   0.20360   0.21384   0.21718   0.22762

 Mulliken charges:
               1
     1  O   -0.489725
     2  C    0.349137
     3  C   -0.267287
     4  C   -0.120523
     5  C   -0.220681
     6  C   -0.085489
     7  C   -0.302630
     8  C    0.338808
     9  O   -0.482773
    10  H    0.277864
    11  H    0.091496
    12  H    0.105829
    13  H    0.067609
    14  H    0.088874
    15  H    0.103657
    16  H    0.073195
    17  H    0.096349
    18  H    0.089849
    19  H    0.286442
 Sum of Mulliken charges =   0.00000

 Dipole moment (field-independent basis, Debye):
    X=             -0.3587    Y=             -0.2806    Z=              0.4969  Tot=              0.6741
 Quadrupole moment (field-independent basis, Debye-Ang):
   XX=            -52.4801   YY=            -55.3026   ZZ=            -50.8404
   XY=             -3.5102   XZ=             -2.5444   YZ=             -1.8935

  Exact polarizability:  78.678  -1.611  69.858  -0.811   0.028  73.742
 Approx polarizability: 111.637  -2.488 105.960  -0.040   0.863 107.397

                      1                      2                      3
                      A                      A                      A
 Frequencies --     79.8356               206.3612               227.4560
 Red. masses --      1.9456                 2.4138                 1.9110
 Frc consts  --      0.0073                 0.0606                 0.0583
 IR Inten    --     63.1588                32.3969                25.6333

                      4                      5                      6
                      A                      A                      A
 Frequencies --    258.9281               340.5388               373.6290
 Red. masses --      2.0400                 1.9901                 1.6894
 Frc consts  --      0.0806                 0.1360                 0.1390
 IR Inten    --     28.1451                21.6162                22.6960

                      7                      8                      9
                      A                      A                      A
 Frequencies --    397.3950               410.2330               468.7494
 Red. masses --      1.7258                 2.4334                 4.1192
 Frc consts  --      0.1606                 0.2413                 0.5333
 IR Inten    --      3.2202                 6.5447                 3.9630

                     10                     11                     12
                      A                      A                      A
 Frequencies --    554.2244               607.5107               672.3137
 Red. masses --      3.6098                 3.1660                 3.9720
 Frc consts  --      0.6533                 0.6884                 1.0578
 IR Inten    --      2.2339                 1.2037                 8.5640

                     13                     14                     15
                      A                      A                      A
 Frequencies --    735.2204               822.5427               830.7863
 Red. masses --      2.6226                 2.9378                 2.4543
 Frc consts  --      0.8353                 1.1711                 0.9981
 IR Inten    --      6.2365                 9.3765                 1.4268

                     16                     17                     18
                      A                      A                      A
 Frequencies --    880.8976               909.6097               929.2242
 Red. masses --      2.1368                 1.8315                 1.7393
 Frc consts  --      0.9769                 0.8928                 0.8848
 IR Inten    --      4.1428                 2.0667                 1.4635

                     19                     20                     21
                      A                      A                      A
 Frequencies --    944.6212               987.3056              1017.3741
 Red. masses --      2.7627                 2.3749                 2.1541
 Frc consts  --      1.4524                 1.3640                 1.3136
 IR Inten    --     31.8787                11.7008                11.4199

                     22                     23                     24
                      A                      A                      A
 Frequencies --   1027.3163              1042.2654              1076.8338
 Red. masses --      2.7463                 1.4198                 1.8932
 Frc consts  --      1.7077                 0.9087                 1.2934
 IR Inten    --      8.5301                 6.2375                 6.1869

                     25                     26                     27
                      A                      A                      A
 Frequencies --   1093.6200              1107.5678              1142.8423
 Red. masses --      1.3193                 1.4298                 2.5366
 Frc consts  --      0.9296                 1.0334                 1.9520
 IR Inten    --      1.0475                42.4323                16.1018

                     28                     29                     30
                      A                      A                      A
 Frequencies --   1176.4224              1196.4652              1220.5749
 Red. masses --      1.5890                 1.3878                 1.6384
 Frc consts  --      1.2957                 1.1705                 1.4381
 IR Inten    --      4.1378                13.7436                 0.3320

                     31                     32                     33
                      A                      A                      A
 Frequencies --   1236.9401              1274.1200              1279.4690
 Red. masses --      1.9547                 1.5319                 1.4478
 Frc consts  --      1.7621                 1.4652                 1.3964
 IR Inten    --     22.2520                22.1342                49.3742

                     34                     35                     36
                      A                      A                      A
 Frequencies --   1299.8479              1313.0007              1339.9395
 Red. masses --      1.7820                 1.7682                 2.2017
 Frc consts  --      1.7740                 1.7960                 2.3290
 IR Inten    --     20.4007                67.3095               137.4450

                     37                     38                     39
                      A                      A                      A
 Frequencies --   1380.2476              1394.4683              1469.9982
 Red. masses --      2.0512                 2.2902                 1.1079
 Frc consts  --      2.3024                 2.6239                 1.4105
 IR Inten    --      9.3757                24.5700                 1.8568

                     40                     41                     42
                      A                      A                      A
 Frequencies --   1477.1531              1495.5618              3022.7744
 Red. masses --      1.1272                 1.1509                 1.0596
 Frc consts  --      1.4491                 1.5167                 5.7043
 IR Inten    --      0.4645                 6.0997                42.9860

                     43                     44                     45
                      A                      A                      A
 Frequencies --   3041.0911              3046.2828              3081.5358
 Red. masses --      1.0589                 1.0583                 1.1050
 Frc consts  --      5.7700                 5.7865                 6.1824
 IR Inten    --     38.3358                33.8342                24.6898

                     46                     47                     48
                      A                      A                      A
 Frequencies --   3094.1188              3100.4309              3109.8601
 Red. masses --      1.1060                 1.1059                 1.0912
 Frc consts  --      6.2385                 6.2633                 6.2176
 IR Inten    --     14.7879                20.3588                53.8406

                     49                     50                     51
                      A                      A                      A
 Frequencies --   3116.1963              3778.6630              3804.5823
 Red. masses --      1.0910                 1.0657                 1.0658
 Frc consts  --      6.2422                 8.9652                 9.0892
 IR Inten    --     34.4973                25.3074                15.3730

 - Thermochemistry -
 -------------------
 Temperature   298.150 Kelvin.  Pressure   1.00000 Atm.
 Atom     1 has atomic number  8 and mass  15.99491

 Molecular mass:   126.06808 amu.
 Principal axes and moments of inertia in atomic units:
                           1         2         3
     Eigenvalues --   768.482961001.085041116.34093
           X            0.99907  -0.04058  -0.01467
           Y            0.04023   0.99892  -0.02339
           Z            0.01560   0.02278   0.99962
 This molecule is an asymmetric top.
 Rotational symmetry number  1.
 Warning -- assumption of classical behavior for rotation
           may cause significant error
 Rotational temperatures (Kelvin)      0.11271     0.08652     0.07759
 Rotational constants (GHZ):           2.34845     1.80279     1.61666
 Zero-point vibrational energy     418064.6 (Joules/Mol)
                                   99.91984 (Kcal/Mol)
 Warning -- explicit consideration of  11 degrees of freedom as
           vibrations may cause significant error
 Vibrational temperatures:    114.87   296.91   327.26   372.54   489.96
          (Kelvin)            537.57   571.76   590.23   674.42   797.40
                              874.07   967.31  1057.82  1183.45  1195.31
                             1267.41  1308.72  1336.94  1359.10  1420.51
                             1463.77  1478.08  1499.59  1549.32  1573.47
                             1593.54  1644.29  1692.61  1721.44  1756.13
                             1779.68  1833.17  1840.87  1870.19  1889.11
                             1927.87  1985.87  2006.33  2115.00  2125.29
                             2151.78  4349.09  4375.45  4382.92  4433.64
                             4451.74  4460.82  4474.39  4483.51  5436.65
                             5473.94

 Zero-point correction=                           0.159232 (Hartree/Particle)
 Thermal correction to Energy=                    0.167251
 Thermal correction to Enthalpy=                  0.168196
 Thermal correction to Gibbs Free Energy=         0.127073
 Sum of electronic and zero-point Energies=           -422.985665
 Sum of electronic and thermal Energies=              -422.977646
 Sum of electronic and thermal Enthalpies=            -422.976702
 Sum of electronic and thermal Free Energies=         -423.017825

                     E (Thermal)             CV                S
                      KCal/Mol        Cal/Mol-Kelvin    Cal/Mol-Kelvin
 Total                  104.952             32.131             86.550
 Electronic               0.000              0.000              0.000
 Translational            0.889              2.981             40.409
 Rotational               0.889              2.981             28.242
 Vibrational            103.174             26.169             17.899
 Vibration     1          0.600              1.963              3.895
 Vibration     2          0.641              1.831              2.076
 Vibration     3          0.651              1.799              1.899
 Vibration     4          0.668              1.748              1.669
 Vibration     5          0.720              1.594              1.210
 Vibration     6          0.745              1.526              1.065
 Vibration     7          0.764              1.476              0.972
 Vibration     8          0.774              1.448              0.926
 Vibration     9          0.826              1.319              0.741
 Vibration    10          0.910              1.130              0.535
 Vibration    11          0.966              1.016              0.437

 Optimization completed.
    -- Stationary point found.
 Normal termination of Gaussian 09 at Mon Jan 27 18:54:45 2020.
