 Gaussian 09, Revision D.01,
 Gaussian 09:  ES64L-G09RevD.01 24-Apr-2013

 -----------------------------
 # b3lyp 6-31G(2df,p) opt Freq
 -----------------------------

 -----
 titel
 -----
 Symbolic Z-matrix:
 Charge =  0 Multiplicity = 1

 SCF Done:  E(RB3LYP) =  -423.215351664     A.U. after   15 cycles
 Optimization completed.
    -- Stationary point found.
 Normal termination of Gaussian 09 at Mon Jan 27 14:06:42 2020.

 ----------------------------------------------------------------------
 #N Geom=AllCheck Guess=TCheck SCRF=Check GenChk RB3LYP/6-31G(2df,p) Fr
 eq
 ----------------------------------------------------------------------

 Structure from the checkpoint file:  "/scratch/puck/g09_a3b16f58-af82-4eeb-a658-71be599ee1c8/Gau-41056.chk"
 -----
 titel
 -----
 Charge =  0 Multiplicity = 1

                         Standard orientation:
 ---------------------------------------------------------------------
 Center     Atomic      Atomic             Coordinates (Angstroms)
 Number     Number       Type             X           Y           Z
 ---------------------------------------------------------------------
      1          6           0        2.646621    1.030289   -0.089722
      2          6           0        1.809622   -0.233746    0.006177
      3          8           0        2.338558   -1.323894    0.093905
      4          6           0        0.316279   -0.085719   -0.013549
      5          6           0       -0.434298   -1.193453    0.038861
      6          6           0       -1.929101   -1.169465   -0.018465
      7          8           0       -2.468270    0.094622   -0.344623
      8          6           0       -1.817833    1.151557    0.339323
      9          6           0       -0.351369    1.270357   -0.086683
     10          1           0        3.699341    0.756060   -0.159939
     11          1           0        2.359183    1.631969   -0.958810
     12          1           0        2.496666    1.659130    0.795515
     13          1           0        0.056436   -2.158810    0.126540
     14          1           0       -2.288032   -1.866013   -0.786344
     15          1           0       -2.334012   -1.533511    0.945442
     16          1           0       -2.375842    2.060350    0.098987
     17          1           0       -1.874888    0.994771    1.429342
     18          1           0       -0.293315    1.677053   -1.105120
     19          1           0        0.152638    1.994268    0.564471
 ---------------------------------------------------------------------

 SCF Done:  E(RB3LYP) =  -423.215351664     A.U. after    1 cycles

 The electronic state is 1-A.
 Alpha  occ. eigenvalues --  -19.14555 -19.12086 -10.26660 -10.24060 -10.23536
 Alpha  occ. eigenvalues --  -10.19832 -10.19642 -10.19555 -10.18739  -1.04213
 Alpha  occ. eigenvalues --   -1.03161  -0.81945  -0.77307  -0.74131  -0.66953
 Alpha  occ. eigenvalues --   -0.64372  -0.57184  -0.52153  -0.49487  -0.47892
 Alpha  occ. eigenvalues --   -0.46853  -0.44431  -0.43952  -0.43116  -0.41308
 Alpha  occ. eigenvalues --   -0.40364  -0.39286  -0.38061  -0.36059  -0.35479
 Alpha  occ. eigenvalues --   -0.31499  -0.26528  -0.25507  -0.24239
 Alpha virt. eigenvalues --   -0.04747   0.06381   0.08284   0.10291   0.11854
 Alpha virt. eigenvalues --    0.12735   0.13694   0.15346   0.15554   0.16553
 Alpha virt. eigenvalues --    0.16897   0.17826   0.20656   0.21872   0.22514

 Mulliken charges:
               1
     1  C   -0.491439
     2  C    0.315597
     3  O   -0.308995
     4  C    0.174314
     5  C   -0.116494
     6  C   -0.129014
     7  O   -0.243881
     8  C   -0.087199
     9  C   -0.322764
    10  H    0.141523
    11  H    0.136885
    12  H    0.140264
    13  H    0.125594
    14  H    0.129124
    15  H    0.107085
    16  H    0.111280
    17  H    0.092134
    18  H    0.120448
    19  H    0.105537
 Sum of Mulliken charges =   0.00000

 Dipole moment (field-independent basis, Debye):
    X=             -0.8435    Y=              2.0052    Z=              0.4994  Tot=              2.2320
 Quadrupole moment (field-independent basis, Debye-Ang):
   XX=            -60.0838   YY=            -51.2029   ZZ=            -52.7518
   XY=              7.2544   XZ=             -2.2025   YZ=              0.6136

  Exact polarizability:  97.085   7.577  87.085  -1.306  -0.911  55.086
 Approx polarizability: 132.148  10.322 134.798   0.583  -2.571  87.438

                      1                      2                      3
                      A                      A                      A
 Frequencies --     57.5287               113.9893               170.1315
 Red. masses --      3.5569                 3.6489                 1.0522
 Frc consts  --      0.0069                 0.0279                 0.0179
 IR Inten    --      3.1938                 3.1180                 0.1720

                      4                      5                      6
                      A                      A                      A
 Frequencies --    209.1900               235.2773               298.2088
 Red. masses --      3.5594                 2.1043                 2.7297
 Frc consts  --      0.0918                 0.0686                 0.1430
 IR Inten    --      3.7706                 0.4181                 4.1443

                      7                      8                      9
                      A                      A                      A
 Frequencies --    343.3841               411.9176               441.9533
 Red. masses --      3.8903                 2.1986                 3.7061
 Frc consts  --      0.2703                 0.2198                 0.4265
 IR Inten    --      1.4408                 0.5419                 1.5709

                     10                     11                     12
                      A                      A                      A
 Frequencies --    516.3696               565.8511               607.9373
 Red. masses --      3.1527                 4.9560                 2.3328
 Frc consts  --      0.4953                 0.9349                 0.5080
 IR Inten    --      5.6326                21.5462                 4.8497

                     13                     14                     15
                      A                      A                      A
 Frequencies --    663.6636               785.8401               862.3335
 Red. masses --      3.7480                 2.2334                 1.6325
 Frc consts  --      0.9726                 0.8126                 0.7152
 IR Inten    --      2.5165                 2.4269                 9.3930

                     16                     17                     18
                      A                      A                      A
 Frequencies --    866.8685               922.9729               971.1019
 Red. masses --      1.9924                 2.3203                 2.5980
 Frc consts  --      0.8821                 1.1646                 1.4435
 IR Inten    --     10.9841                19.6380                 4.5990

                     19                     20                     21
                      A                      A                      A
 Frequencies --    989.8398              1021.2956              1041.8179
 Red. masses --      2.4467                 2.0944                 1.9494
 Frc consts  --      1.4124                 1.2871                 1.2466
 IR Inten    --     14.2845                 9.6075                 8.2943

                     22                     23                     24
                      A                      A                      A
 Frequencies --   1047.6134              1067.0735              1098.3648
 Red. masses --      1.7241                 2.1754                 1.9991
 Frc consts  --      1.1148                 1.4594                 1.4210
 IR Inten    --      3.1559                 3.6787                 0.7352

                     25                     26                     27
                      A                      A                      A
 Frequencies --   1168.6951              1225.4423              1240.8661
 Red. masses --      4.5834                 1.2784                 1.5378
 Frc consts  --      3.6884                 1.1311                 1.3951
 IR Inten    --     85.5366                36.8817                79.8315

                     28                     29                     30
                      A                      A                      A
 Frequencies --   1270.7565              1297.7735              1321.8410
 Red. masses --      1.8253                 1.3831                 1.2713
 Frc consts  --      1.7366                 1.3725                 1.3088
 IR Inten    --     93.8835                 4.4844                 5.1139

                     31                     32                     33
                      A                      A                      A
 Frequencies --   1371.7492              1381.6304              1388.6047
 Red. masses --      1.3858                 1.3368                 1.7479
 Frc consts  --      1.5363                 1.5035                 1.9858
 IR Inten    --      7.8033                33.1563                 7.0206

                     34                     35                     36
                      A                      A                      A
 Frequencies --   1420.7068              1460.6978              1471.7307
 Red. masses --      1.3398                 1.0648                 1.0730
 Frc consts  --      1.5933                 1.3386                 1.3693
 IR Inten    --      6.1133                 9.7245                 5.9119

                     37                     38                     39
                      A                      A                      A
 Frequencies --   1475.3945              1479.8004              1500.9084
 Red. masses --      1.0872                 1.0601                 1.0963
 Frc consts  --      1.3944                 1.3678                 1.4550
 IR Inten    --      8.1736                 6.0022                 2.3205

                     40                     41                     42
                      A                      A                      A
 Frequencies --   1684.4945              1781.2463              2925.4779
 Red. masses --      7.7224                10.4313                 1.0729
 Frc consts  --     12.9104                19.5000                 5.4099
 IR Inten    --     95.8027               101.4325                50.8905

                     43                     44                     45
                      A                      A                      A
 Frequencies --   2970.1195              3018.6463              3036.1047
 Red. masses --      1.0711                 1.0624                 1.0389
 Frc consts  --      5.5671                 5.7039                 5.6422
 IR Inten    --     53.5094                20.5459                 4.1249

                     46                     47                     48
                      A                      A                      A
 Frequencies --   3046.6110              3060.7755              3092.7009
 Red. masses --      1.0855                 1.0961                 1.0934
 Frc consts  --      5.9362                 6.0502                 6.1617
 IR Inten    --     22.7922                21.9437                35.8401

                     49                     50                     51
                      A                      A                      A
 Frequencies --   3095.7802              3155.2134              3180.7859
 Red. masses --      1.0978                 1.1012                 1.0893
 Frc consts  --      6.1990                 6.4591                 6.4935
 IR Inten    --     10.4745                10.8159                 1.7142

 - Thermochemistry -
 -------------------
 Temperature   298.150 Kelvin.  Pressure   1.00000 Atm.
 Atom     1 has atomic number  6 and mass  12.00000

 Molecular mass:   126.06808 amu.
 Principal axes and moments of inertia in atomic units:
                           1         2         3
     Eigenvalues --   531.641101621.729092079.48197
           X            0.99926   0.03754  -0.00860
           Y           -0.03753   0.99929   0.00166
           Z            0.00865  -0.00134   0.99996
 This molecule is an asymmetric top.
 Rotational symmetry number  1.
 Warning -- assumption of classical behavior for rotation
           may cause significant error
 Rotational temperatures (Kelvin)      0.16292     0.05341     0.04165
 Rotational constants (GHZ):           3.39466     1.11285     0.86788
 Zero-point vibrational energy     417706.5 (Joules/Mol)
                                   99.83425 (Kcal/Mol)
 Warning -- explicit consideration of  12 degrees of freedom as
           vibrations may cause significant error
 Vibrational temperatures:     82.77   164.00   244.78   300.98   338.51
          (Kelvin)            429.06   494.05   592.66   635.87   742.94
                              814.13   874.69   954.86  1130.65  1240.70
                             1247.23  1327.95  1397.20  1424.16  1469.41
                             1498.94  1507.28  1535.28  1580.30  1681.49
                             1763.14  1785.33  1828.33  1867.20  1901.83
                             1973.64  1987.86  1997.89  2044.08  2101.62
                             2117.49  2122.76  2129.10  2159.47  2423.61
                             2562.81  4209.10  4273.33  4343.15  4368.27
                             4383.39  4403.77  4449.70  4454.13  4539.64
                             4576.44

 Zero-point correction=                           0.159096 (Hartree/Particle)
 Thermal correction to Energy=                    0.167783
 Thermal correction to Enthalpy=                  0.168727
 Thermal correction to Gibbs Free Energy=         0.125335
 Sum of electronic and zero-point Energies=           -423.056256
 Sum of electronic and thermal Energies=              -423.047569
 Sum of electronic and thermal Enthalpies=            -423.046624
 Sum of electronic and thermal Free Energies=         -423.090016

                     E (Thermal)             CV                S
                      KCal/Mol        Cal/Mol-Kelvin    Cal/Mol-Kelvin
 Total                  105.285             32.294             91.326
 Electronic               0.000              0.000              0.000
 Translational            0.889              2.981             40.409
 Rotational               0.889              2.981             28.974
 Vibrational            103.508             26.333             21.944
 Vibration     1          0.596              1.974              4.540
 Vibration     2          0.607              1.938              3.200
 Vibration     3          0.625              1.879              2.434
 Vibration     4          0.642              1.827              2.051
 Vibration     5          0.655              1.787              1.838
 Vibration     6          0.691              1.677              1.427
 Vibration     7          0.722              1.589              1.196
 Vibration     8          0.776              1.444              0.920
 Vibration     9          0.802              1.379              0.820
 Vibration    10          0.871              1.214              0.618
 Vibration    11          0.922              1.105              0.512
 Vibration    12          0.967              1.015              0.436

 Optimization completed.
    -- Stationary point found.
 Normal termination of Gaussian 09 at Mon Jan 27 14:46:28 2020.
