 Gaussian 09, Revision D.01,
 Gaussian 09:  ES64L-G09RevD.01 24-Apr-2013

 -----------------------------
 # b3lyp 6-31G(2df,p) opt Freq
 -----------------------------

 -----
 titel
 -----
 Symbolic Z-matrix:
 Charge =  0 Multiplicity = 1

 SCF Done:  E(RB3LYP) =  -423.200728900     A.U. after   14 cycles
 Optimization completed.
    -- Stationary point found.
 Normal termination of Gaussian 09 at Tue Jan 28 01:54:40 2020.

 ----------------------------------------------------------------------
 #N Geom=AllCheck Guess=TCheck SCRF=Check GenChk RB3LYP/6-31G(2df,p) Fr
 eq
 ----------------------------------------------------------------------

 Structure from the checkpoint file:  "/scratch/puck/g09_57b31a4a-f90b-4c7d-8953-959bd319c0e3/Gau-87569.chk"
 -----
 titel
 -----
 Charge =  0 Multiplicity = 1

                         Standard orientation:
 ---------------------------------------------------------------------
 Center     Atomic      Atomic             Coordinates (Angstroms)
 Number     Number       Type             X           Y           Z
 ---------------------------------------------------------------------
      1          6           0       -2.810426   -1.201725   -0.282932
      2          6           0       -1.753876   -0.387728    0.464566
      3          8           0       -0.443234   -0.723997   -0.017494
      4          6           0        0.249687    0.439722   -0.472705
      5          6           0        1.560502    0.623427    0.323176
      6          6           0        2.481743   -0.570256    0.186640
      7          8           0        3.628708   -0.505489   -0.177737
      8          6           0       -0.732284    1.565016   -0.283935
      9          6           0       -1.849954    1.101119    0.260502
     10          1           0       -2.609650   -2.270580   -0.169360
     11          1           0       -3.808864   -0.995162    0.116832
     12          1           0       -2.801242   -0.955388   -1.348579
     13          1           0       -1.807392   -0.642972    1.535815
     14          1           0        0.507523    0.306004   -1.535768
     15          1           0        2.094930    1.518821   -0.008556
     16          1           0        1.298682    0.738312    1.383345
     17          1           0        2.012616   -1.541591    0.451102
     18          1           0       -0.511125    2.588743   -0.557825
     19          1           0       -2.731627    1.672246    0.522963
 ---------------------------------------------------------------------

 SCF Done:  E(RB3LYP) =  -423.200728900     A.U. after    1 cycles

 The electronic state is 1-A.
 Alpha  occ. eigenvalues --  -19.14346 -19.13412 -10.26519 -10.24956 -10.24379
 Alpha  occ. eigenvalues --  -10.19637 -10.19539 -10.19310 -10.18101  -1.04332
 Alpha  occ. eigenvalues --   -1.03917  -0.80125  -0.79632  -0.73780  -0.66449
 Alpha  occ. eigenvalues --   -0.59214  -0.57714  -0.55701  -0.51575  -0.49841
 Alpha  occ. eigenvalues --   -0.45901  -0.44199  -0.43531  -0.42079  -0.40388
 Alpha  occ. eigenvalues --   -0.40142  -0.38038  -0.37906  -0.35904  -0.34909
 Alpha  occ. eigenvalues --   -0.33045  -0.28536  -0.25253  -0.23792
 Alpha virt. eigenvalues --   -0.01816   0.00508   0.09259   0.11613   0.12004
 Alpha virt. eigenvalues --    0.12415   0.14323   0.14878   0.15356   0.15442
 Alpha virt. eigenvalues --    0.16706   0.17814   0.18526   0.19756   0.20627

 Mulliken charges:
               1
     1  C   -0.388423
     2  C    0.088054
     3  O   -0.290642
     4  C    0.059518
     5  C   -0.283007
     6  C    0.154181
     7  O   -0.242766
     8  C   -0.099161
     9  C   -0.098069
    10  H    0.128823
    11  H    0.113383
    12  H    0.122443
    13  H    0.085372
    14  H    0.096759
    15  H    0.115285
    16  H    0.120788
    17  H    0.095433
    18  H    0.111789
    19  H    0.110239
 Sum of Mulliken charges =   0.00000

 Dipole moment (field-independent basis, Debye):
    X=             -3.4610    Y=              1.5193    Z=              0.6975  Tot=              3.8436
 Quadrupole moment (field-independent basis, Debye-Ang):
   XX=            -63.4826   YY=            -51.5876   ZZ=            -52.0381
   XY=              1.7426   XZ=              0.6025   YZ=             -1.0629

  Exact polarizability: 102.668   4.313  74.948  -8.503  -3.201  59.471
 Approx polarizability: 141.309   7.701 107.159 -19.875  -6.948  94.624

                      1                      2                      3
                      A                      A                      A
 Frequencies --     46.0993                72.1600                82.7276
 Red. masses --      4.3867                 4.3282                 3.5762
 Frc consts  --      0.0055                 0.0133                 0.0144
 IR Inten    --      2.6327                 3.2027                 4.7818

                      4                      5                      6
                      A                      A                      A
 Frequencies --    146.8175               231.2437               240.8694
 Red. masses --      2.5961                 1.0472                 3.1519
 Frc consts  --      0.0330                 0.0330                 0.1077
 IR Inten    --      0.9033                 0.1946                 1.0241

                      7                      8                      9
                      A                      A                      A
 Frequencies --    318.5558               380.5997               440.7573
 Red. masses --      2.6613                 3.0624                 4.1109
 Frc consts  --      0.1591                 0.2614                 0.4705
 IR Inten    --      2.8304                 0.9863                 7.9784

                     10                     11                     12
                      A                      A                      A
 Frequencies --    495.4187               553.9648               725.7067
 Red. masses --      2.4197                 2.3151                 2.4159
 Frc consts  --      0.3499                 0.4186                 0.7496
 IR Inten    --      4.6553                11.2290                 5.9345

                     13                     14                     15
                      A                      A                      A
 Frequencies --    743.2423               792.5937               828.4152
 Red. masses --      1.8359                 2.9655                 3.6330
 Frc consts  --      0.5975                 1.0976                 1.4690
 IR Inten    --     15.5232                11.6195                 9.7130

                     16                     17                     18
                      A                      A                      A
 Frequencies --    844.7678               874.2282               926.1560
 Red. masses --      1.7729                 2.2806                 2.3864
 Frc consts  --      0.7454                 1.0270                 1.2060
 IR Inten    --      8.2648                 3.1708                 3.9223

                     19                     20                     21
                      A                      A                      A
 Frequencies --    961.4621               987.4127              1029.9221
 Red. masses --      1.2623                 2.4029                 1.7220
 Frc consts  --      0.6875                 1.3803                 1.0762
 IR Inten    --      0.2914                13.4453                 6.7142

                     22                     23                     24
                      A                      A                      A
 Frequencies --   1063.4716              1087.7270              1095.8584
 Red. masses --      2.3554                 2.2573                 1.8888
 Frc consts  --      1.5695                 1.5736                 1.3364
 IR Inten    --     71.5787                11.5513                29.3012

                     25                     26                     27
                      A                      A                      A
 Frequencies --   1120.1420              1131.4389              1139.6872
 Red. masses --      3.5019                 2.2418                 1.3870
 Frc consts  --      2.5888                 1.6909                 1.0615
 IR Inten    --     63.9226                45.1810                 1.1431

                     28                     29                     30
                      A                      A                      A
 Frequencies --   1219.7794              1263.6567              1302.3723
 Red. masses --      1.2781                 1.3394                 1.3140
 Frc consts  --      1.1204                 1.2602                 1.3132
 IR Inten    --      8.5219                 1.5954                 2.8500

                     31                     32                     33
                      A                      A                      A
 Frequencies --   1345.8579              1362.3703              1371.1080
 Red. masses --      1.2841                 1.6914                 1.6918
 Frc consts  --      1.3704                 1.8497                 1.8739
 IR Inten    --     15.8916                15.6621                32.2410

                     34                     35                     36
                      A                      A                      A
 Frequencies --   1385.0655              1401.2762              1421.5543
 Red. masses --      1.2567                 1.2564                 1.2037
 Frc consts  --      1.4204                 1.4535                 1.4332
 IR Inten    --      1.0875                 3.0560                 7.4235

                     37                     38                     39
                      A                      A                      A
 Frequencies --   1450.6349              1486.1982              1494.5530
 Red. masses --      1.0992                 1.0544                 1.0508
 Frc consts  --      1.3628                 1.3721                 1.3829
 IR Inten    --      4.6740                 2.5833                 2.0776

                     40                     41                     42
                      A                      A                      A
 Frequencies --   1690.8048              1828.5852              2913.2204
 Red. masses --      6.8408                 9.7967                 1.0836
 Frc consts  --     11.5224                19.3001                 5.4183
 IR Inten    --      0.6604               198.7476                68.8943

                     43                     44                     45
                      A                      A                      A
 Frequencies --   2962.7811              2969.4668              3028.5396
 Red. masses --      1.0825                 1.0826                 1.0613
 Frc consts  --      5.5987                 5.6246                 5.7353
 IR Inten    --     63.2702                30.1462                 8.9140

                     46                     47                     48
                      A                      A                      A
 Frequencies --   3038.3889              3100.5293              3112.1152
 Red. masses --      1.0346                 1.1006                 1.1009
 Frc consts  --      5.6273                 6.2338                 6.2823
 IR Inten    --     19.8692                15.2989                20.6279

                     49                     50                     51
                      A                      A                      A
 Frequencies --   3123.4787              3205.8865              3230.3910
 Red. masses --      1.1031                 1.0853                 1.1067
 Frc consts  --      6.3407                 6.5723                 6.8042
 IR Inten    --     20.6535                 2.0383                 7.4085

 - Thermochemistry -
 -------------------
 Temperature   298.150 Kelvin.  Pressure   1.00000 Atm.
 Atom     1 has atomic number  6 and mass  12.00000

 Molecular mass:   126.06808 amu.
 Principal axes and moments of inertia in atomic units:
                           1         2         3
     Eigenvalues --   458.038302024.592602343.06679
           X            0.99980   0.01996   0.00324
           Y           -0.01996   0.99980  -0.00141
           Z           -0.00326   0.00135   0.99999
 This molecule is an asymmetric top.
 Rotational symmetry number  1.
 Warning -- assumption of classical behavior for rotation
           may cause significant error
 Rotational temperatures (Kelvin)      0.18910     0.04278     0.03697
 Rotational constants (GHZ):           3.94015     0.89141     0.77025
 Zero-point vibrational energy     413130.7 (Joules/Mol)
                                   98.74061 (Kcal/Mol)
 Warning -- explicit consideration of  11 degrees of freedom as
           vibrations may cause significant error
 Vibrational temperatures:     66.33   103.82   119.03   211.24   332.71
          (Kelvin)            346.56   458.33   547.60   634.15   712.80
                              797.03  1044.13  1069.36  1140.36  1191.90
                             1215.43  1257.82  1332.53  1383.33  1420.66
                             1481.83  1530.10  1564.99  1576.69  1611.63
                             1627.89  1639.75  1754.99  1818.12  1873.82
                             1936.39  1960.14  1972.72  1992.80  2016.12
                             2045.30  2087.14  2138.30  2150.33  2432.69
                             2630.92  4191.47  4262.78  4272.40  4357.39
                             4371.56  4460.96  4477.63  4493.98  4612.55
                             4647.81

 Zero-point correction=                           0.157353 (Hartree/Particle)
 Thermal correction to Energy=                    0.166554
 Thermal correction to Enthalpy=                  0.167499
 Thermal correction to Gibbs Free Energy=         0.122104
 Sum of electronic and zero-point Energies=           -423.043376
 Sum of electronic and thermal Energies=              -423.034174
 Sum of electronic and thermal Enthalpies=            -423.033230
 Sum of electronic and thermal Free Energies=         -423.078625

                     E (Thermal)             CV                S
                      KCal/Mol        Cal/Mol-Kelvin    Cal/Mol-Kelvin
 Total                  104.514             32.949             95.540
 Electronic               0.000              0.000              0.000
 Translational            0.889              2.981             40.409
 Rotational               0.889              2.981             29.165
 Vibrational            102.737             26.987             25.967
 Vibration     1          0.595              1.979              4.978
 Vibration     2          0.598              1.967              4.094
 Vibration     3          0.600              1.961              3.825
 Vibration     4          0.617              1.906              2.713
 Vibration     5          0.653              1.793              1.869
 Vibration     6          0.658              1.778              1.796
 Vibration     7          0.705              1.638              1.318
 Vibration     8          0.750              1.512              1.037
 Vibration     9          0.801              1.381              0.824
 Vibration    10          0.851              1.260              0.670
 Vibration    11          0.909              1.131              0.536

 Optimization completed.
    -- Stationary point found.
 Normal termination of Gaussian 09 at Tue Jan 28 02:31:18 2020.
