 Gaussian 09, Revision D.01,
 Gaussian 09:  ES64L-G09RevD.01 24-Apr-2013

 -----------------------------
 # b3lyp 6-31G(2df,p) opt Freq
 -----------------------------

 -----
 titel
 -----
 Symbolic Z-matrix:
 Charge =  0 Multiplicity = 1

 SCF Done:  E(RB3LYP) =  -423.160376563     A.U. after   14 cycles
 Optimization completed.
    -- Stationary point found.
 Normal termination of Gaussian 09 at Tue Jan 28 09:15:15 2020.

 ----------------------------------------------------------------------
 #N Geom=AllCheck Guess=TCheck SCRF=Check GenChk RB3LYP/6-31G(2df,p) Fr
 eq
 ----------------------------------------------------------------------

 Structure from the checkpoint file:  "/scratch/puck/g09_fd3d9178-2b52-468e-bcca-196c6deb76d4/Gau-129692.chk"
 -----
 titel
 -----
 Charge =  0 Multiplicity = 1

                         Standard orientation:
 ---------------------------------------------------------------------
 Center     Atomic      Atomic             Coordinates (Angstroms)
 Number     Number       Type             X           Y           Z
 ---------------------------------------------------------------------
      1          6           0       -2.843292    0.245405    0.521855
      2          6           0       -1.987525   -0.526748   -0.490868
      3          6           0       -0.513404   -0.394659   -0.224994
      4          6           0        0.682960   -0.999401   -1.045735
      5          6           0        1.395628   -0.215060    0.117322
      6          8           0        2.739750   -0.115775    0.367225
      7          6           0        0.295193   -0.818588    1.059620
      8          6           0        0.358908    0.871802   -0.170727
      9          8           0        0.292737    2.059948   -0.289238
     10          1           0       -3.906905    0.153086    0.284103
     11          1           0       -2.693441   -0.134922    1.537577
     12          1           0       -2.584856    1.308568    0.518776
     13          1           0       -2.266054   -1.587902   -0.488142
     14          1           0       -2.193086   -0.157722   -1.503489
     15          1           0        0.774091   -2.085685   -0.970999
     16          1           0        0.828233   -0.641707   -2.067276
     17          1           0        2.994140    0.809527    0.272264
     18          1           0        0.373268   -1.899233    1.201164
     19          1           0        0.083913   -0.293904    1.993289
 ---------------------------------------------------------------------

 SCF Done:  E(RB3LYP) =  -423.160376563     A.U. after    1 cycles

 The electronic state is 1-A.
 Alpha  occ. eigenvalues --  -19.16031 -19.13966 -10.27171 -10.25834 -10.21588
 Alpha  occ. eigenvalues --  -10.20438 -10.20394 -10.19327 -10.17869  -1.05740
 Alpha  occ. eigenvalues --   -1.04182  -0.91990  -0.77563  -0.68262  -0.65670
 Alpha  occ. eigenvalues --   -0.63985  -0.60157  -0.52892  -0.50382  -0.46313
 Alpha  occ. eigenvalues --   -0.45848  -0.45100  -0.43736  -0.41754  -0.39265
 Alpha  occ. eigenvalues --   -0.38473  -0.37366  -0.36781  -0.35622  -0.34497
 Alpha  occ. eigenvalues --   -0.33290  -0.32292  -0.27479  -0.23699
 Alpha virt. eigenvalues --    0.00829   0.06665   0.09084   0.11410   0.12572
 Alpha virt. eigenvalues --    0.13140   0.13988   0.14656   0.15556   0.16367
 Alpha virt. eigenvalues --    0.17614   0.18286   0.19125   0.20294   0.21641

 Mulliken charges:
               1
     1  C   -0.388767
     2  C   -0.310810
     3  C    0.194901
     4  C   -0.337747
     5  C    0.280653
     6  O   -0.466723
     7  C   -0.318521
     8  C    0.364273
     9  O   -0.351715
    10  H    0.115725
    11  H    0.118827
    12  H    0.141221
    13  H    0.104597
    14  H    0.111434
    15  H    0.109588
    16  H    0.109487
    17  H    0.302583
    18  H    0.109375
    19  H    0.111623
 Sum of Mulliken charges =   0.00000

 Dipole moment (field-independent basis, Debye):
    X=             -0.6861    Y=             -1.5733    Z=             -0.0477  Tot=              1.7171
 Quadrupole moment (field-independent basis, Debye-Ang):
   XX=            -53.0283   YY=            -57.5377   ZZ=            -52.0986
   XY=              3.7497   XZ=             -0.7156   YZ=              1.2471

  Exact polarizability:  83.934   0.637  75.940  -0.325   0.147  67.788
 Approx polarizability: 110.290   0.647 124.314   1.133  -2.087 103.061

                      1                      2                      3
                      A                      A                      A
 Frequencies --     68.4785                98.7142               141.4737
 Red. masses --      2.7420                 1.7309                 2.3122
 Frc consts  --      0.0076                 0.0099                 0.0273
 IR Inten    --      0.5017                52.1214                 8.9320

                      4                      5                      6
                      A                      A                      A
 Frequencies --    184.4927               199.5440               218.5323
 Red. masses --      1.6098                 2.6754                 5.7160
 Frc consts  --      0.0323                 0.0628                 0.1608
 IR Inten    --     12.5396                 6.8938                14.4151

                      7                      8                      9
                      A                      A                      A
 Frequencies --    272.2587               350.0735               434.7547
 Red. masses --      1.4981                 3.5911                 2.7248
 Frc consts  --      0.0654                 0.2593                 0.3034
 IR Inten    --      0.2670                 0.1119                 1.3463

                     10                     11                     12
                      A                      A                      A
 Frequencies --    519.0884               537.4506               610.6932
 Red. masses --      2.1326                 2.9877                 4.4894
 Frc consts  --      0.3386                 0.5085                 0.9865
 IR Inten    --      0.8374                 1.8501                 3.1106

                     13                     14                     15
                      A                      A                      A
 Frequencies --    658.4523               752.5875               777.3455
 Red. masses --      2.8553                 2.6942                 5.0895
 Frc consts  --      0.7294                 0.8991                 1.8120
 IR Inten    --     12.3680                13.3104                 1.9187

                     16                     17                     18
                      A                      A                      A
 Frequencies --    806.3069               814.8183               853.0746
 Red. masses --      1.6452                 2.8324                 5.1901
 Frc consts  --      0.6302                 1.1080                 2.2254
 IR Inten    --      1.9851                 2.3715                81.6876

                     19                     20                     21
                      A                      A                      A
 Frequencies --    963.8214               977.3613               992.4721
 Red. masses --      2.6156                 1.9593                 1.0976
 Frc consts  --      1.4316                 1.1027                 0.6370
 IR Inten    --      5.5250                 1.3004                 0.5595

                     22                     23                     24
                      A                      A                      A
 Frequencies --   1018.3594              1033.3968              1078.4670
 Red. masses --      3.5008                 1.6584                 1.4208
 Frc consts  --      2.1390                 1.0435                 0.9736
 IR Inten    --      2.2611                 0.1989                 6.7671

                     25                     26                     27
                      A                      A                      A
 Frequencies --   1105.3818              1118.6591              1123.8908
 Red. masses --      1.7452                 1.6131                 1.3492
 Frc consts  --      1.2564                 1.1894                 1.0041
 IR Inten    --     18.9841                 4.2951                23.6212

                     28                     29                     30
                      A                      A                      A
 Frequencies --   1143.8203              1184.6471              1301.1361
 Red. masses --      1.6862                 1.8735                 1.2292
 Frc consts  --      1.2998                 1.5491                 1.2260
 IR Inten    --      1.6061                 2.9658                 0.5303

                     31                     32                     33
                      A                      A                      A
 Frequencies --   1323.4345              1328.0594              1368.4929
 Red. masses --      1.8599                 2.0236                 2.0387
 Frc consts  --      1.9193                 2.1029                 2.2495
 IR Inten    --    147.1714                22.6284                 2.6270

                     34                     35                     36
                      A                      A                      A
 Frequencies --   1411.1415              1423.1849              1483.5825
 Red. masses --      1.3199                 2.5951                 1.0699
 Frc consts  --      1.5486                 3.0969                 1.3874
 IR Inten    --      7.6925                27.2831                 1.0069

                     37                     38                     39
                      A                      A                      A
 Frequencies --   1490.6810              1499.8976              1509.7029
 Red. masses --      1.0872                 1.0388                 1.0719
 Frc consts  --      1.4234                 1.3769                 1.4394
 IR Inten    --      0.5120                 7.1078                 2.1233

                     40                     41                     42
                      A                      A                      A
 Frequencies --   1536.7880              1899.8428              3023.8987
 Red. masses --      1.2708                12.5036                 1.0595
 Frc consts  --      1.7682                26.5901                 5.7079
 IR Inten    --      8.6610               305.8619                25.5917

                     43                     44                     45
                      A                      A                      A
 Frequencies --   3039.5144              3055.4386              3060.3033
 Red. masses --      1.0353                 1.1016                 1.0534
 Frc consts  --      5.6356                 6.0594                 5.8124
 IR Inten    --     20.4522                12.6875                29.1577

                     46                     47                     48
                      A                      A                      A
 Frequencies --   3062.7069              3108.4340              3116.8922
 Red. masses --      1.0538                 1.1015                 1.1025
 Frc consts  --      5.8239                 6.2705                 6.3104
 IR Inten    --     16.5746                31.7855                24.2547

                     49                     50                     51
                      A                      A                      A
 Frequencies --   3134.1040              3137.0875              3796.7076
 Red. masses --      1.1131                 1.1120                 1.0662
 Frc consts  --      6.4420                 6.4480                 9.0556
 IR Inten    --     19.7347                18.6539                45.5193

 - Thermochemistry -
 -------------------
 Temperature   298.150 Kelvin.  Pressure   1.00000 Atm.
 Atom     1 has atomic number  6 and mass  12.00000

 Molecular mass:   126.06808 amu.
 Principal axes and moments of inertia in atomic units:
                           1         2         3
     Eigenvalues --   608.664801440.083271668.05668
           X            0.99994   0.00123  -0.01091
           Y           -0.00086   0.99941   0.03420
           Z            0.01094  -0.03419   0.99936
 This molecule is an asymmetric top.
 Rotational symmetry number  1.
 Warning -- assumption of classical behavior for rotation
           may cause significant error
 Rotational temperatures (Kelvin)      0.14230     0.06015     0.05192
 Rotational constants (GHZ):           2.96508     1.25322     1.08194
 Zero-point vibrational energy     413605.5 (Joules/Mol)
                                   98.85410 (Kcal/Mol)
 Warning -- explicit consideration of  12 degrees of freedom as
           vibrations may cause significant error
 Vibrational temperatures:     98.53   142.03   203.55   265.44   287.10
          (Kelvin)            314.42   391.72   503.68   625.51   746.85
                              773.27   878.65   947.36  1082.80  1118.43
                             1160.09  1172.34  1227.38  1386.72  1406.20
                             1427.94  1465.19  1486.83  1551.67  1590.40
                             1609.50  1617.03  1645.70  1704.44  1872.04
                             1904.12  1910.78  1968.95  2030.32  2047.64
                             2134.54  2144.75  2158.02  2172.12  2211.09
                             2733.45  4350.71  4373.18  4396.09  4403.09
                             4406.55  4472.34  4484.51  4509.27  4513.56
                             5462.61

 Zero-point correction=                           0.157534 (Hartree/Particle)
 Thermal correction to Energy=                    0.166821
 Thermal correction to Enthalpy=                  0.167765
 Thermal correction to Gibbs Free Energy=         0.123272
 Sum of electronic and zero-point Energies=           -423.002843
 Sum of electronic and thermal Energies=              -422.993556
 Sum of electronic and thermal Enthalpies=            -422.992612
 Sum of electronic and thermal Free Energies=         -423.037104

                     E (Thermal)             CV                S
                      KCal/Mol        Cal/Mol-Kelvin    Cal/Mol-Kelvin
 Total                  104.682             34.141             93.643
 Electronic               0.000              0.000              0.000
 Translational            0.889              2.981             40.409
 Rotational               0.889              2.981             28.771
 Vibrational            102.904             28.180             24.463
 Vibration     1          0.598              1.969              4.197
 Vibration     2          0.604              1.950              3.480
 Vibration     3          0.615              1.912              2.784
 Vibration     4          0.631              1.861              2.282
 Vibration     5          0.638              1.841              2.137
 Vibration     6          0.646              1.813              1.971
 Vibration     7          0.675              1.724              1.582
 Vibration     8          0.727              1.575              1.166
 Vibration     9          0.795              1.394              0.843
 Vibration    10          0.874              1.208              0.612
 Vibration    11          0.892              1.167              0.571
 Vibration    12          0.970              1.009              0.432

 Optimization completed.
    -- Stationary point found.
 Normal termination of Gaussian 09 at Tue Jan 28 10:00:41 2020.
