 Gaussian 09, Revision D.01,
 Gaussian 09:  ES64L-G09RevD.01 24-Apr-2013

 -----------------------------
 # b3lyp 6-31G(2df,p) opt Freq
 -----------------------------

 -----
 titel
 -----
 Symbolic Z-matrix:
 Charge =  0 Multiplicity = 1

 SCF Done:  E(RB3LYP) =  -423.140912826     A.U. after   14 cycles
 Optimization completed.
    -- Stationary point found.
 Normal termination of Gaussian 09 at Tue Jan 28 14:05:36 2020.

 ----------------------------------------------------------------------
 #N Geom=AllCheck Guess=TCheck SCRF=Check GenChk RB3LYP/6-31G(2df,p) Fr
 eq
 ----------------------------------------------------------------------

 Structure from the checkpoint file:  "/scratch/puck/g09_c039b440-a5b2-4de1-a99b-1cea023a33bc/Gau-111444.chk"
 -----
 titel
 -----
 Charge =  0 Multiplicity = 1

                         Standard orientation:
 ---------------------------------------------------------------------
 Center     Atomic      Atomic             Coordinates (Angstroms)
 Number     Number       Type             X           Y           Z
 ---------------------------------------------------------------------
      1          8           0        2.648167   -0.013931   -0.431808
      2          6           0        1.699627   -0.940950    0.071915
      3          6           0        0.303527   -0.614786   -0.449575
      4          6           0       -0.974876   -1.225807    0.251455
      5          6           0       -0.794711   -0.129251    1.358353
      6          6           0       -0.357473    0.697874    0.098272
      7          8           0        0.436471    1.848962    0.157020
      8          6           0       -1.673897    0.696556   -0.699985
      9          6           0       -2.075840   -0.572973   -0.598835
     10          1           0        2.322874    0.864580   -0.197978
     11          1           0        2.007333   -1.927485   -0.293653
     12          1           0        1.731885   -0.985570    1.170532
     13          1           0        0.305562   -0.686143   -1.540263
     14          1           0       -1.051872   -2.283613    0.494822
     15          1           0       -1.696565    0.197246    1.880823
     16          1           0        0.015410   -0.327463    2.062802
     17          1           0       -0.022787    2.527685    0.662802
     18          1           0       -2.102034    1.542088   -1.219991
     19          1           0       -2.945059   -1.065551   -1.011187
 ---------------------------------------------------------------------

 SCF Done:  E(RB3LYP) =  -423.140912826     A.U. after    1 cycles

 The electronic state is 1-A.
 Alpha  occ. eigenvalues --  -19.15830 -19.11631 -10.24916 -10.21753 -10.20209
 Alpha  occ. eigenvalues --  -10.18759 -10.18700 -10.18469 -10.18086  -1.04135
 Alpha  occ. eigenvalues --   -0.99869  -0.89508  -0.74140  -0.69483  -0.66677
 Alpha  occ. eigenvalues --   -0.63080  -0.55830  -0.53993  -0.52467  -0.49885
 Alpha  occ. eigenvalues --   -0.45904  -0.44961  -0.42505  -0.41869  -0.40340
 Alpha  occ. eigenvalues --   -0.37933  -0.35619  -0.35094  -0.32932  -0.31728
 Alpha  occ. eigenvalues --   -0.30877  -0.26922  -0.25552  -0.23160
 Alpha virt. eigenvalues --    0.00616   0.06381   0.10503   0.11430   0.12070
 Alpha virt. eigenvalues --    0.13962   0.15069   0.15741   0.16278   0.17537
 Alpha virt. eigenvalues --    0.17795   0.19480   0.20436   0.22187   0.23025

 Mulliken charges:
               1
     1  O   -0.429552
     2  C   -0.110301
     3  C    0.000819
     4  C   -0.111624
     5  C   -0.290629
     6  C    0.362299
     7  O   -0.501005
     8  C   -0.159709
     9  C   -0.082096
    10  H    0.295486
    11  H    0.104287
    12  H    0.083633
    13  H    0.079466
    14  H    0.070162
    15  H    0.091578
    16  H    0.103157
    17  H    0.285790
    18  H    0.103062
    19  H    0.105176
 Sum of Mulliken charges =   0.00000

 Dipole moment (field-independent basis, Debye):
    X=             -2.6379    Y=              0.6036    Z=              1.3492  Tot=              3.0237
 Quadrupole moment (field-independent basis, Debye-Ang):
   XX=            -59.9620   YY=            -46.7826   ZZ=            -53.2472
   XY=             -0.7077   XZ=              2.6574   YZ=              1.8975

  Exact polarizability:  81.269   0.575  78.775   2.843  -0.685  65.286
 Approx polarizability: 112.297   6.140 128.085   1.460  -1.643 100.090

                      1                      2                      3
                      A                      A                      A
 Frequencies --    105.4629               165.7986               206.1800
 Red. masses --      3.4769                 4.1991                 1.1434
 Frc consts  --      0.0228                 0.0680                 0.0286
 IR Inten    --      2.0053                 4.4895                81.1364

                      4                      5                      6
                      A                      A                      A
 Frequencies --    263.4826               349.5366               380.5335
 Red. masses --      2.7090                 4.8709                 3.3555
 Frc consts  --      0.1108                 0.3506                 0.2863
 IR Inten    --      3.4502                 6.0220                 2.9154

                      7                      8                      9
                      A                      A                      A
 Frequencies --    394.4399               491.5384               496.9674
 Red. masses --      4.0628                 1.4330                 1.3063
 Frc consts  --      0.3724                 0.2040                 0.1901
 IR Inten    --      1.8628                58.1985                58.4175

                     10                     11                     12
                      A                      A                      A
 Frequencies --    535.5675               578.8968               646.2245
 Red. masses --      2.9428                 2.5824                 4.6305
 Frc consts  --      0.4973                 0.5099                 1.1393
 IR Inten    --      0.7160                 0.9013                 8.8941

                     13                     14                     15
                      A                      A                      A
 Frequencies --    688.1870               711.2257               814.4362
 Red. masses --      1.6853                 3.2476                 2.9378
 Frc consts  --      0.4703                 0.9679                 1.1481
 IR Inten    --     28.4194                 3.4799                 3.7342

                     16                     17                     18
                      A                      A                      A
 Frequencies --    855.0703               885.2707               901.8114
 Red. masses --      2.6162                 2.2232                 1.3877
 Frc consts  --      1.1270                 1.0265                 0.6649
 IR Inten    --      1.3582                14.0437                 0.7575

                     19                     20                     21
                      A                      A                      A
 Frequencies --    915.9623               957.3071              1000.1338
 Red. masses --      2.1192                 2.7372                 2.6385
 Frc consts  --      1.0475                 1.4779                 1.5550
 IR Inten    --      1.7860                 0.9541                 3.8549

                     22                     23                     24
                      A                      A                      A
 Frequencies --   1028.9359              1047.5739              1056.3762
 Red. masses --      1.4478                 3.0906                 1.4191
 Frc consts  --      0.9031                 1.9983                 0.9330
 IR Inten    --     13.7763                16.5412                49.9129

                     25                     26                     27
                      A                      A                      A
 Frequencies --   1083.8517              1099.2079              1118.0293
 Red. masses --      2.2579                 1.5375                 1.8945
 Frc consts  --      1.5627                 1.0945                 1.3952
 IR Inten    --     41.4967                 6.5378                 6.1314

                     28                     29                     30
                      A                      A                      A
 Frequencies --   1153.8053              1200.9356              1218.2020
 Red. masses --      1.5589                 1.3817                 1.4597
 Frc consts  --      1.2228                 1.1741                 1.2763
 IR Inten    --      8.6498                42.5497                 3.8257

                     31                     32                     33
                      A                      A                      A
 Frequencies --   1227.5859              1245.5951              1263.3048
 Red. masses --      1.3401                 1.5346                 2.3616
 Frc consts  --      1.1898                 1.4028                 2.2206
 IR Inten    --     11.1009                23.8007                53.5945

                     34                     35                     36
                      A                      A                      A
 Frequencies --   1315.4831              1324.4571              1367.1926
 Red. masses --      1.6735                 1.5050                 1.6846
 Frc consts  --      1.7063                 1.5555                 1.8553
 IR Inten    --     80.8669                 8.3050                13.1038

                     37                     38                     39
                      A                      A                      A
 Frequencies --   1402.7623              1450.6876              1489.1202
 Red. masses --      1.2967                 1.2283                 1.1189
 Frc consts  --      1.5033                 1.5230                 1.4618
 IR Inten    --      4.4498                82.4557                 3.8343

                     40                     41                     42
                      A                      A                      A
 Frequencies --   1518.6691              1624.6113              2990.3645
 Red. masses --      1.1009                 5.9168                 1.0680
 Frc consts  --      1.4959                 9.2010                 5.6270
 IR Inten    --      1.8636                 2.4081                44.2460

                     43                     44                     45
                      A                      A                      A
 Frequencies --   3053.9322              3068.9666              3082.0439
 Red. masses --      1.0904                 1.0572                 1.0880
 Frc consts  --      5.9918                 5.8668                 6.0889
 IR Inten    --     25.0720                48.8148                41.0369

                     46                     47                     48
                      A                      A                      A
 Frequencies --   3133.8565              3137.6307              3217.1065
 Red. masses --      1.1084                 1.0913                 1.0860
 Frc consts  --      6.4134                 6.3301                 6.6222
 IR Inten    --     28.9081                32.3325                 4.4528

                     49                     50                     51
                      A                      A                      A
 Frequencies --   3244.3827              3776.7717              3810.0987
 Red. masses --      1.1108                 1.0660                 1.0660
 Frc consts  --      6.8888                 8.9585                 9.1173
 IR Inten    --      9.0059                57.3633                24.4249

 - Thermochemistry -
 -------------------
 Temperature   298.150 Kelvin.  Pressure   1.00000 Atm.
 Atom     1 has atomic number  8 and mass  15.99491

 Molecular mass:   126.06808 amu.
 Principal axes and moments of inertia in atomic units:
                           1         2         3
     Eigenvalues --   639.010171216.555361470.03699
           X            0.99989  -0.01128   0.00996
           Y            0.01132   0.99993  -0.00441
           Z           -0.00991   0.00452   0.99994
 This molecule is an asymmetric top.
 Rotational symmetry number  1.
 Warning -- assumption of classical behavior for rotation
           may cause significant error
 Rotational temperatures (Kelvin)      0.13554     0.07120     0.05892
 Rotational constants (GHZ):           2.82428     1.48348     1.22768
 Zero-point vibrational energy     419264.6 (Joules/Mol)
                                  100.20665 (Kcal/Mol)
 Warning -- explicit consideration of  11 degrees of freedom as
           vibrations may cause significant error
 Vibrational temperatures:    151.74   238.55   296.65   379.09   502.90
          (Kelvin)            547.50   567.51   707.21   715.02   770.56
                              832.90   929.77   990.15  1023.29  1171.79
                             1230.25  1273.71  1297.50  1317.86  1377.35
                             1438.97  1480.41  1507.22  1519.89  1559.42
                             1581.51  1608.59  1660.07  1727.88  1752.72
                             1766.22  1792.13  1817.61  1892.68  1905.60
                             1967.08  2018.26  2087.21  2142.51  2185.02
                             2337.45  4302.46  4393.92  4415.55  4434.37
                             4508.91  4514.35  4628.69  4667.94  5433.93
                             5481.88

 Zero-point correction=                           0.159689 (Hartree/Particle)
 Thermal correction to Energy=                    0.167774
 Thermal correction to Enthalpy=                  0.168718
 Thermal correction to Gibbs Free Energy=         0.127456
 Sum of electronic and zero-point Energies=           -422.981223
 Sum of electronic and thermal Energies=              -422.973139
 Sum of electronic and thermal Enthalpies=            -422.972194
 Sum of electronic and thermal Free Energies=         -423.013456

                     E (Thermal)             CV                S
                      KCal/Mol        Cal/Mol-Kelvin    Cal/Mol-Kelvin
 Total                  105.280             32.579             86.843
 Electronic               0.000              0.000              0.000
 Translational            0.889              2.981             40.409
 Rotational               0.889              2.981             28.526
 Vibrational            103.502             26.617             17.908
 Vibration     1          0.605              1.945              3.351
 Vibration     2          0.624              1.885              2.483
 Vibration     3          0.641              1.831              2.077
 Vibration     4          0.670              1.740              1.639
 Vibration     5          0.727              1.576              1.168
 Vibration     6          0.750              1.512              1.037
 Vibration     7          0.761              1.482              0.983
 Vibration     8          0.847              1.269              0.680
 Vibration     9          0.852              1.257              0.666
 Vibration    10          0.891              1.171              0.575
 Vibration    11          0.935              1.077              0.487

 Optimization completed.
    -- Stationary point found.
 Normal termination of Gaussian 09 at Tue Jan 28 14:49:35 2020.
