 Gaussian 09, Revision D.01,
 Gaussian 09:  ES64L-G09RevD.01 24-Apr-2013

 -----------------------------
 # b3lyp 6-31G(2df,p) opt Freq
 -----------------------------

 -----
 titel
 -----
 Symbolic Z-matrix:
 Charge =  0 Multiplicity = 1

 SCF Done:  E(RB3LYP) =  -423.159056301     A.U. after   14 cycles
 Optimization completed.
    -- Stationary point found.
 Normal termination of Gaussian 09 at Mon Jan 27 23:06:43 2020.

 ----------------------------------------------------------------------
 #N Geom=AllCheck Guess=TCheck SCRF=Check GenChk RB3LYP/6-31G(2df,p) Fr
 eq
 ----------------------------------------------------------------------

 Structure from the checkpoint file:  "/scratch/puck/g09_4d18ac1f-7b89-477a-acc7-c2bb6781fc6f/Gau-81802.chk"
 -----
 titel
 -----
 Charge =  0 Multiplicity = 1

                         Standard orientation:
 ---------------------------------------------------------------------
 Center     Atomic      Atomic             Coordinates (Angstroms)
 Number     Number       Type             X           Y           Z
 ---------------------------------------------------------------------
      1          6           0        1.332551    1.980818   -0.230512
      2          6           0        1.629004    0.487167   -0.221038
      3          6           0        1.197139   -0.484473    0.934624
      4          6           0        1.514667   -1.643827   -0.061268
      5          6           0        0.713683   -0.597137   -0.894726
      6          6           0       -0.226518   -0.559043    0.340125
      7          8           0       -1.095965    0.558122    0.568877
      8          6           0       -2.351856    0.432207    0.111919
      9          8           0       -2.797078   -0.500095   -0.497988
     10          1           0        2.015903    2.496768    0.453893
     11          1           0        1.513749    2.388959   -1.231598
     12          1           0        0.313967    2.226271    0.060447
     13          1           0        2.681907    0.343449   -0.491519
     14          1           0        1.464694   -0.431459    1.990630
     15          1           0        2.564661   -1.764634   -0.330634
     16          1           0        1.030903   -2.605496    0.124995
     17          1           0        0.419419   -0.674614   -1.941376
     18          1           0       -0.794024   -1.471034    0.529733
     19          1           0       -2.918856    1.333301    0.393578
 ---------------------------------------------------------------------

 SCF Done:  E(RB3LYP) =  -423.159056301     A.U. after    1 cycles

 The electronic state is 1-A.
 Alpha  occ. eigenvalues --  -19.18968 -19.13406 -10.30900 -10.24880 -10.20796
 Alpha  occ. eigenvalues --  -10.20638 -10.19978 -10.19724 -10.17059  -1.10668
 Alpha  occ. eigenvalues --   -1.02338  -0.91898  -0.73842  -0.70564  -0.63619
 Alpha  occ. eigenvalues --   -0.62751  -0.60315  -0.53480  -0.51844  -0.50397
 Alpha  occ. eigenvalues --   -0.47137  -0.45592  -0.43194  -0.41663  -0.41005
 Alpha  occ. eigenvalues --   -0.38878  -0.36187  -0.34962  -0.32654  -0.32602
 Alpha  occ. eigenvalues --   -0.31461  -0.30475  -0.28878  -0.27911
 Alpha virt. eigenvalues --    0.00743   0.10463   0.10975   0.11799   0.12726
 Alpha virt. eigenvalues --    0.13623   0.13864   0.14461   0.15782   0.15855
 Alpha virt. eigenvalues --    0.16909   0.18486   0.19037   0.20304   0.20677

 Mulliken charges:
               1
     1  C   -0.450067
     2  C    0.066093
     3  C   -0.122785
     4  C   -0.229050
     5  C   -0.108027
     6  C    0.205058
     7  O   -0.230309
     8  C    0.163250
     9  O   -0.300203
    10  H    0.114125
    11  H    0.114199
    12  H    0.136668
    13  H    0.067237
    14  H    0.076556
    15  H    0.102956
    16  H    0.099347
    17  H    0.083044
    18  H    0.103490
    19  H    0.108416
 Sum of Mulliken charges =   0.00000

 Dipole moment (field-independent basis, Debye):
    X=              1.7598    Y=              0.6253    Z=              0.7091  Tot=              1.9977
 Quadrupole moment (field-independent basis, Debye-Ang):
   XX=            -56.6302   YY=            -52.5793   ZZ=            -53.1098
   XY=             -4.4870   XZ=             -2.9434   YZ=             -1.1647

  Exact polarizability:  87.461  -1.261  80.062   1.306   1.466  64.103
 Approx polarizability: 118.205   2.872 114.808   5.266   6.565 102.910

                      1                      2                      3
                      A                      A                      A
 Frequencies --     33.2249               147.1423               163.7186
 Red. masses --      6.4050                 2.8458                 1.2798
 Frc consts  --      0.0042                 0.0363                 0.0202
 IR Inten    --      1.3608                 2.2899                 0.7856

                      4                      5                      6
                      A                      A                      A
 Frequencies --    207.6865               267.6123               302.0068
 Red. masses --      2.4364                 3.2940                 2.8923
 Frc consts  --      0.0619                 0.1390                 0.1554
 IR Inten    --      3.5343                 4.6617                 8.5199

                      7                      8                      9
                      A                      A                      A
 Frequencies --    363.1873               425.9448               511.4402
 Red. masses --      3.3451                 3.5681                 2.8097
 Frc consts  --      0.2600                 0.3814                 0.4330
 IR Inten    --      0.9354                 5.6742                 0.8110

                     10                     11                     12
                      A                      A                      A
 Frequencies --    616.7925               745.1105               762.4370
 Red. masses --      4.1402                 3.1834                 4.9955
 Frc consts  --      0.9280                 1.0413                 1.7109
 IR Inten    --      0.8625                 0.2595                 3.7701

                     13                     14                     15
                      A                      A                      A
 Frequencies --    790.8921               809.9362               888.5166
 Red. masses --      2.0744                 2.8847                 2.1577
 Frc consts  --      0.7645                 1.1150                 1.0036
 IR Inten    --      1.2260                 1.4721                 0.6550

                     16                     17                     18
                      A                      A                      A
 Frequencies --    904.2457               948.4129               994.8669
 Red. masses --      1.9722                 2.4083                 2.2717
 Frc consts  --      0.9501                 1.2763                 1.3248
 IR Inten    --      5.5454                10.9995                34.2564

                     19                     20                     21
                      A                      A                      A
 Frequencies --   1019.9215              1029.2771              1043.8987
 Red. masses --      1.1349                 1.0266                 1.6622
 Frc consts  --      0.6956                 0.6408                 1.0672
 IR Inten    --      2.5504                 0.2330                 0.7554

                     22                     23                     24
                      A                      A                      A
 Frequencies --   1051.9488              1090.7163              1092.2517
 Red. masses --      2.2094                 2.0626                 1.5142
 Frc consts  --      1.4405                 1.4457                 1.0644
 IR Inten    --     12.7675                22.3394                 2.1376

                     25                     26                     27
                      A                      A                      A
 Frequencies --   1122.4700              1143.4964              1170.9536
 Red. masses --      1.6094                 2.2812                 2.7326
 Frc consts  --      1.1947                 1.7575                 2.2075
 IR Inten    --      0.2690                 2.2078                27.9571

                     28                     29                     30
                      A                      A                      A
 Frequencies --   1174.9063              1200.8236              1222.4997
 Red. masses --      1.5639                 6.5624                 1.4785
 Frc consts  --      1.2720                 5.5753                 1.3019
 IR Inten    --     24.4254               408.2912                 1.5269

                     31                     32                     33
                      A                      A                      A
 Frequencies --   1226.4617              1261.5344              1290.8089
 Red. masses --      1.7515                 1.7310                 1.9727
 Frc consts  --      1.5523                 1.6231                 1.9366
 IR Inten    --      3.9013                 7.9095                15.6950

                     34                     35                     36
                      A                      A                      A
 Frequencies --   1405.4969              1412.4546              1422.0907
 Red. masses --      1.2011                 1.1468                 1.2357
 Frc consts  --      1.3980                 1.3479                 1.4724
 IR Inten    --      0.9557                 1.0439                15.6341

                     37                     38                     39
                      A                      A                      A
 Frequencies --   1450.8124              1497.4092              1508.3732
 Red. masses --      1.1967                 1.0521                 1.0468
 Frc consts  --      1.4841                 1.3899                 1.4032
 IR Inten    --      7.2428                 1.9693                 3.1930

                     40                     41                     42
                      A                      A                      A
 Frequencies --   1524.6198              1821.2158              3024.8873
 Red. masses --      1.1348                 9.4222                 1.0753
 Frc consts  --      1.5542                18.4131                 5.7970
 IR Inten    --      4.3523               292.4543                36.6278

                     43                     44                     45
                      A                      A                      A
 Frequencies --   3026.8970              3037.2060              3067.0517
 Red. masses --      1.0902                 1.0513                 1.0553
 Frc consts  --      5.8852                 5.7139                 5.8486
 IR Inten    --     59.6306                54.1009                35.6847

                     46                     47                     48
                      A                      A                      A
 Frequencies --   3083.5502              3101.1115              3110.2863
 Red. masses --      1.0998                 1.0847                 1.0906
 Frc consts  --      6.1610                 6.1461                 6.2159
 IR Inten    --     22.8703                13.6134                77.6100

                     49                     50                     51
                      A                      A                      A
 Frequencies --   3120.4099              3137.6637              3177.8254
 Red. masses --      1.0947                 1.1105                 1.0931
 Frc consts  --      6.2801                 6.4417                 6.5039
 IR Inten    --     14.7735                33.7050                 9.0508

 - Thermochemistry -
 -------------------
 Temperature   298.150 Kelvin.  Pressure   1.00000 Atm.
 Atom     1 has atomic number  6 and mass  12.00000

 Molecular mass:   126.06808 amu.
 Principal axes and moments of inertia in atomic units:
                           1         2         3
     Eigenvalues --   637.455801393.331661728.40259
           X            0.99997  -0.00231  -0.00797
           Y            0.00219   0.99989  -0.01469
           Z            0.00800   0.01467   0.99986
 This molecule is an asymmetric top.
 Rotational symmetry number  1.
 Warning -- assumption of classical behavior for rotation
           may cause significant error
 Rotational temperatures (Kelvin)      0.13587     0.06216     0.05011
 Rotational constants (GHZ):           2.83116     1.29527     1.04417
 Zero-point vibrational energy     418420.9 (Joules/Mol)
                                  100.00498 (Kcal/Mol)
 Warning -- explicit consideration of  10 degrees of freedom as
           vibrations may cause significant error
 Vibrational temperatures:     47.80   211.70   235.55   298.81   385.03
          (Kelvin)            434.52   522.54   612.84   735.85   887.43
                             1072.05  1096.98  1137.92  1165.32  1278.38
                             1301.01  1364.55  1431.39  1467.44  1480.90
                             1501.94  1513.52  1569.30  1571.50  1614.98
                             1645.23  1684.74  1690.43  1727.72  1758.90
                             1764.60  1815.06  1857.18  2022.19  2032.20
                             2046.07  2087.39  2154.44  2170.21  2193.59
                             2620.32  4352.13  4355.02  4369.86  4412.80
                             4436.54  4461.80  4475.00  4489.57  4514.39
                             4572.18

 Zero-point correction=                           0.159368 (Hartree/Particle)
 Thermal correction to Energy=                    0.167676
 Thermal correction to Enthalpy=                  0.168620
 Thermal correction to Gibbs Free Energy=         0.125611
 Sum of electronic and zero-point Energies=           -422.999688
 Sum of electronic and thermal Energies=              -422.991380
 Sum of electronic and thermal Enthalpies=            -422.990436
 Sum of electronic and thermal Free Energies=         -423.033446

                     E (Thermal)             CV                S
                      KCal/Mol        Cal/Mol-Kelvin    Cal/Mol-Kelvin
 Total                  105.218             31.165             90.522
 Electronic               0.000              0.000              0.000
 Translational            0.889              2.981             40.409
 Rotational               0.889              2.981             28.819
 Vibrational            103.441             25.203             21.294
 Vibration     1          0.594              1.983              5.627
 Vibration     2          0.617              1.906              2.709
 Vibration     3          0.623              1.887              2.506
 Vibration     4          0.641              1.829              2.064
 Vibration     5          0.673              1.733              1.612
 Vibration     6          0.694              1.670              1.406
 Vibration     7          0.737              1.548              1.108
 Vibration     8          0.788              1.414              0.872
 Vibration     9          0.867              1.225              0.630
 Vibration    10          0.976              0.996              0.422

 Normal termination of Gaussian 09 at Mon Jan 27 23:50:47 2020.
