 Gaussian 09, Revision D.01,
 Gaussian 09:  ES64L-G09RevD.01 24-Apr-2013

 -----------------------------
 # b3lyp 6-31G(2df,p) opt Freq
 -----------------------------

 -----
 titel
 -----
 Symbolic Z-matrix:
 Charge =  0 Multiplicity = 1

 SCF Done:  E(RB3LYP) =  -423.131156251     A.U. after   14 cycles
 Optimization completed.
    -- Stationary point found.
 Normal termination of Gaussian 09 at Tue Jan 28 02:55:46 2020.

 ----------------------------------------------------------------------
 #N Geom=AllCheck Guess=TCheck SCRF=Check GenChk RB3LYP/6-31G(2df,p) Fr
 eq
 ----------------------------------------------------------------------

 Structure from the checkpoint file:  "/scratch/puck/g09_2af84540-40e5-4ad7-a22f-4b793406abf6/Gau-65427.chk"
 -----
 titel
 -----
 Charge =  0 Multiplicity = 1

                         Standard orientation:
 ---------------------------------------------------------------------
 Center     Atomic      Atomic             Coordinates (Angstroms)
 Number     Number       Type             X           Y           Z
 ---------------------------------------------------------------------
      1          6           0        2.404061    0.738326   -0.304513
      2          6           0        1.437480   -0.435051   -0.266270
      3          8           0        0.986728   -0.684062    1.095719
      4          6           0       -0.411082   -0.665020    0.975959
      5          6           0       -0.881378   -1.294740   -0.365333
      6          8           0       -2.005427   -0.363261   -0.440714
      7          6           0       -0.883261    0.474776    0.015997
      8          6           0       -1.138845    1.927082    0.265674
      9          6           0        0.099918   -0.252377   -0.973713
     10          1           0        1.919788    1.666616    0.010728
     11          1           0        3.249318    0.550171    0.363526
     12          1           0        2.794096    0.878333   -1.318156
     13          1           0        1.948887   -1.340052   -0.623477
     14          1           0       -0.917519   -0.867489    1.917755
     15          1           0       -1.050911   -2.333835   -0.645064
     16          1           0       -1.375133    2.452916   -0.664513
     17          1           0       -1.983347    2.044219    0.952077
     18          1           0       -0.261417    2.397365    0.718994
     19          1           0        0.064475   -0.027642   -2.038716
 ---------------------------------------------------------------------

 SCF Done:  E(RB3LYP) =  -423.131156251     A.U. after    1 cycles

 The electronic state is 1-A.
 Alpha  occ. eigenvalues --  -19.14188 -19.13025 -10.24675 -10.24032 -10.23774
 Alpha  occ. eigenvalues --  -10.23670 -10.19779 -10.18620 -10.18164  -1.07288
 Alpha  occ. eigenvalues --   -1.02543  -0.79147  -0.76497  -0.74518  -0.67143
 Alpha  occ. eigenvalues --   -0.61773  -0.58047  -0.55744  -0.49384  -0.48288
 Alpha  occ. eigenvalues --   -0.46790  -0.43661  -0.42605  -0.41379  -0.40568
 Alpha  occ. eigenvalues --   -0.38858  -0.37081  -0.36506  -0.35112  -0.33918
 Alpha  occ. eigenvalues --   -0.32579  -0.30883  -0.24308  -0.23055
 Alpha virt. eigenvalues --    0.07733   0.08933   0.11373   0.12154   0.12611
 Alpha virt. eigenvalues --    0.13413   0.14530   0.14926   0.15453   0.16199
 Alpha virt. eigenvalues --    0.16800   0.17427   0.18272   0.19447   0.21928

 Mulliken charges:
               1
     1  C   -0.404993
     2  C    0.110763
     3  O   -0.292582
     4  C    0.051960
     5  C    0.018131
     6  O   -0.349614
     7  C    0.405036
     8  C   -0.532885
     9  C   -0.134928
    10  H    0.121835
    11  H    0.131051
    12  H    0.117099
    13  H    0.083258
    14  H    0.097153
    15  H    0.091683
    16  H    0.132488
    17  H    0.137035
    18  H    0.135653
    19  H    0.081854
 Sum of Mulliken charges =   0.00000

 Dipole moment (field-independent basis, Debye):
    X=              1.2337    Y=              0.6161    Z=             -0.7211  Tot=              1.5561
 Quadrupole moment (field-independent basis, Debye-Ang):
   XX=            -57.4134   YY=            -50.0313   ZZ=            -53.1449
   XY=             -0.1505   XZ=             -4.2918   YZ=              1.2006

  Exact polarizability:  80.527   0.178  75.638  -3.616   1.075  67.329
 Approx polarizability: 114.159  -0.638 108.628  -1.884   0.888 105.843

                      1                      2                      3
                      A                      A                      A
 Frequencies --    146.2895               162.8681               202.7064
 Red. masses --      2.2466                 1.3328                 1.3391
 Frc consts  --      0.0283                 0.0208                 0.0324
 IR Inten    --      0.0909                 0.4247                 0.2418

                      4                      5                      6
                      A                      A                      A
 Frequencies --    226.9521               278.4345               320.8794
 Red. masses --      1.5042                 2.9868                 2.4858
 Frc consts  --      0.0456                 0.1364                 0.1508
 IR Inten    --      0.1680                 0.8845                 1.1817

                      7                      8                      9
                      A                      A                      A
 Frequencies --    461.7550               483.7755               504.8804
 Red. masses --      4.4377                 3.5686                 4.1605
 Frc consts  --      0.5575                 0.4921                 0.6249
 IR Inten    --      7.1174                 1.5955                 9.3045

                     10                     11                     12
                      A                      A                      A
 Frequencies --    632.6157               687.8467               712.8841
 Red. masses --      3.5159                 4.3907                 3.7425
 Frc consts  --      0.8290                 1.2240                 1.1206
 IR Inten    --      0.4124                 0.5305                 1.7937

                     13                     14                     15
                      A                      A                      A
 Frequencies --    773.7649               808.8525               833.5443
 Red. masses --      3.6749                 3.5564                 2.6424
 Frc consts  --      1.2963                 1.3709                 1.0817
 IR Inten    --     17.9240                 7.2204                15.0601

                     16                     17                     18
                      A                      A                      A
 Frequencies --    882.6667               907.8102               923.1376
 Red. masses --      2.4583                 1.8086                 2.0395
 Frc consts  --      1.1285                 0.8782                 1.0240
 IR Inten    --      3.4375                 4.8818                 2.9929

                     19                     20                     21
                      A                      A                      A
 Frequencies --    944.1267              1006.1209              1026.0583
 Red. masses --      3.1522                 1.2273                 3.3834
 Frc consts  --      1.6555                 0.7320                 2.0987
 IR Inten    --      5.6192                 2.4499                23.3170

                     22                     23                     24
                      A                      A                      A
 Frequencies --   1040.8756              1081.4852              1096.2318
 Red. masses --      1.7820                 1.9443                 2.9232
 Frc consts  --      1.1375                 1.3398                 2.0697
 IR Inten    --     12.0384                52.7209                36.8146

                     25                     26                     27
                      A                      A                      A
 Frequencies --   1114.2489              1135.9311              1147.7894
 Red. masses --      1.8817                 2.1563                 1.5306
 Frc consts  --      1.3764                 1.6393                 1.1881
 IR Inten    --     33.9539                 4.7427                 2.4604

                     28                     29                     30
                      A                      A                      A
 Frequencies --   1184.5706              1213.4986              1235.3166
 Red. masses --      1.8871                 1.9140                 1.6406
 Frc consts  --      1.5601                 1.6606                 1.4751
 IR Inten    --      9.9948                 9.7411                15.2660

                     31                     32                     33
                      A                      A                      A
 Frequencies --   1265.2936              1281.6770              1327.4737
 Red. masses --      1.7796                 1.8119                 1.6979
 Frc consts  --      1.6787                 1.7537                 1.7628
 IR Inten    --     18.3304                11.3778                11.0575

                     34                     35                     36
                      A                      A                      A
 Frequencies --   1388.1282              1391.4114              1409.5968
 Red. masses --      1.5279                 1.3917                 1.3726
 Frc consts  --      1.7346                 1.5875                 1.6069
 IR Inten    --     11.7024                 2.5985                 8.4525

                     37                     38                     39
                      A                      A                      A
 Frequencies --   1420.5513              1474.5970              1484.6360
 Red. masses --      2.2132                 1.0465                 1.0558
 Frc consts  --      2.6314                 1.3408                 1.3711
 IR Inten    --     18.0575                 3.4274                 2.5939

                     40                     41                     42
                      A                      A                      A
 Frequencies --   1491.1785              1495.6906              3002.9795
 Red. masses --      1.0541                 1.0487                 1.0844
 Frc consts  --      1.3810                 1.3823                 5.7618
 IR Inten    --      3.6085                 4.4349                44.6895

                     43                     44                     45
                      A                      A                      A
 Frequencies --   3039.3362              3042.3058              3110.2309
 Red. masses --      1.0348                 1.0356                 1.1018
 Frc consts  --      5.6319                 5.6474                 6.2795
 IR Inten    --     11.7983                19.8949                10.0309

                     46                     47                     48
                      A                      A                      A
 Frequencies --   3112.0514              3117.2368              3124.7293
 Red. masses --      1.1004                 1.1008                 1.0979
 Frc consts  --      6.2790                 6.3026                 6.3161
 IR Inten    --     17.0048                25.7258                38.9703

                     49                     50                     51
                      A                      A                      A
 Frequencies --   3124.7763              3140.1845              3153.8380
 Red. masses --      1.0934                 1.0905                 1.0941
 Frc consts  --      6.2902                 6.3356                 6.4118
 IR Inten    --     14.4263                31.2263                22.7913

 - Thermochemistry -
 -------------------
 Temperature   298.150 Kelvin.  Pressure   1.00000 Atm.
 Atom     1 has atomic number  6 and mass  12.00000

 Molecular mass:   126.06808 amu.
 Principal axes and moments of inertia in atomic units:
                           1         2         3
     Eigenvalues --   647.902631093.420171300.40084
           X            0.99945   0.00314  -0.03313
           Y           -0.00213   0.99954   0.03025
           Z            0.03321  -0.03016   0.99899
 This molecule is an asymmetric top.
 Rotational symmetry number  1.
 Warning -- assumption of classical behavior for rotation
           may cause significant error
 Rotational temperatures (Kelvin)      0.13368     0.07921     0.06661
 Rotational constants (GHZ):           2.78551     1.65055     1.38783
 Zero-point vibrational energy     416155.8 (Joules/Mol)
                                   99.46363 (Kcal/Mol)
 Warning -- explicit consideration of   9 degrees of freedom as
           vibrations may cause significant error
 Vibrational temperatures:    210.48   234.33   291.65   326.53   400.60
          (Kelvin)            461.67   664.36   696.04   726.41   910.19
                              989.66  1025.68  1113.27  1163.76  1199.28
                             1269.96  1306.13  1328.19  1358.39  1447.58
                             1476.27  1497.59  1556.01  1577.23  1603.15
                             1634.35  1651.41  1704.33  1745.95  1777.34
                             1820.47  1844.05  1909.94  1997.20  2001.93
                             2028.09  2043.85  2121.61  2136.06  2145.47
                             2151.96  4320.61  4372.92  4377.19  4474.92
                             4477.54  4485.00  4495.78  4495.85  4518.02
                             4537.66

 Zero-point correction=                           0.158505 (Hartree/Particle)
 Thermal correction to Energy=                    0.166396
 Thermal correction to Enthalpy=                  0.167340
 Thermal correction to Gibbs Free Energy=         0.126503
 Sum of electronic and zero-point Energies=           -422.972651
 Sum of electronic and thermal Energies=              -422.964761
 Sum of electronic and thermal Enthalpies=            -422.963817
 Sum of electronic and thermal Free Energies=         -423.004653

                     E (Thermal)             CV                S
                      KCal/Mol        Cal/Mol-Kelvin    Cal/Mol-Kelvin
 Total                  104.415             31.257             85.949
 Electronic               0.000              0.000              0.000
 Translational            0.889              2.981             40.409
 Rotational               0.889              2.981             28.312
 Vibrational            102.637             25.295             17.228
 Vibration     1          0.617              1.907              2.720
 Vibration     2          0.623              1.888              2.516
 Vibration     3          0.639              1.836              2.108
 Vibration     4          0.651              1.800              1.903
 Vibration     5          0.679              1.713              1.543
 Vibration     6          0.706              1.634              1.306
 Vibration     7          0.819              1.335              0.761
 Vibration     8          0.840              1.286              0.700
 Vibration     9          0.860              1.239              0.646

 Optimization completed.
    -- Stationary point found.
 Normal termination of Gaussian 09 at Tue Jan 28 03:55:00 2020.
