 Gaussian 09, Revision D.01,
 Gaussian 09:  ES64L-G09RevD.01 24-Apr-2013

 -----------------------------
 # b3lyp 6-31G(2df,p) opt Freq
 -----------------------------

 -----
 titel
 -----
 Symbolic Z-matrix:
 Charge =  0 Multiplicity = 1

 SCF Done:  E(RB3LYP) =  -423.182956506     A.U. after   14 cycles
 Optimization completed.
    -- Stationary point found.
 Normal termination of Gaussian 09 at Tue Jan 28 00:01:33 2020.

 ----------------------------------------------------------------------
 #N Geom=AllCheck Guess=TCheck SCRF=Check GenChk RB3LYP/6-31G(2df,p) Fr
 eq
 ----------------------------------------------------------------------

 Structure from the checkpoint file:  "/scratch/puck/g09_2946c303-e02d-4f5f-9879-88c5518313c0/Gau-2006.chk"
 -----
 titel
 -----
 Charge =  0 Multiplicity = 1

                         Standard orientation:
 ---------------------------------------------------------------------
 Center     Atomic      Atomic             Coordinates (Angstroms)
 Number     Number       Type             X           Y           Z
 ---------------------------------------------------------------------
      1          6           0       -2.620597   -0.590597   -0.330411
      2          6           0       -1.185810   -0.523612    0.079744
      3          6           0       -0.271033   -1.496807    0.050294
      4          6           0        1.093941   -1.042956    0.489817
      5          6           0        2.028572   -0.565993   -0.649125
      6          8           0        1.648299    0.815315   -0.427870
      7          6           0        0.899642    0.465892    0.766960
      8          6           0       -0.601984    0.790599    0.588696
      9          8           0       -0.803221    1.877840   -0.295543
     10          1           0       -3.282474   -0.402501    0.525157
     11          1           0       -2.835353    0.192530   -1.065661
     12          1           0       -2.881914   -1.561734   -0.758660
     13          1           0       -0.461354   -2.511899   -0.285244
     14          1           0        1.558466   -1.663439    1.258878
     15          1           0        3.099116   -0.711661   -0.460217
     16          1           0        1.783368   -0.904030   -1.661657
     17          1           0        1.353698    0.905545    1.659419
     18          1           0       -1.067239    1.082072    1.540126
     19          1           0       -0.083320    1.810711   -0.940692
 ---------------------------------------------------------------------

 SCF Done:  E(RB3LYP) =  -423.182956506     A.U. after    1 cycles

 The electronic state is 1-A.
 Alpha  occ. eigenvalues --  -19.14500 -19.12559 -10.23589 -10.23426 -10.22841
 Alpha  occ. eigenvalues --  -10.19832 -10.18680 -10.18126 -10.17914  -1.04998
 Alpha  occ. eigenvalues --   -1.00557  -0.83253  -0.74686  -0.71964  -0.66833
 Alpha  occ. eigenvalues --   -0.64647  -0.55040  -0.53971  -0.51438  -0.49141
 Alpha  occ. eigenvalues --   -0.46454  -0.43652  -0.42984  -0.42367  -0.41410
 Alpha  occ. eigenvalues --   -0.39747  -0.36568  -0.35330  -0.35278  -0.31927
 Alpha  occ. eigenvalues --   -0.30825  -0.27226  -0.25176  -0.24213
 Alpha virt. eigenvalues --    0.01498   0.06676   0.09998   0.11549   0.12867
 Alpha virt. eigenvalues --    0.13407   0.14358   0.14781   0.15561   0.17271
 Alpha virt. eigenvalues --    0.17924   0.18675   0.18952   0.20469   0.22523

 Mulliken charges:
               1
     1  C   -0.490696
     2  C    0.293182
     3  C   -0.197666
     4  C   -0.117200
     5  C   -0.077379
     6  O   -0.307149
     7  C    0.078178
     8  C    0.031710
     9  O   -0.433754
    10  H    0.125991
    11  H    0.144375
    12  H    0.118770
    13  H    0.090381
    14  H    0.083294
    15  H    0.103545
    16  H    0.107194
    17  H    0.078260
    18  H    0.079538
    19  H    0.289426
 Sum of Mulliken charges =   0.00000

 Dipole moment (field-independent basis, Debye):
    X=              0.5746    Y=             -2.4151    Z=              0.5045  Tot=              2.5332
 Quadrupole moment (field-independent basis, Debye-Ang):
   XX=            -52.1737   YY=            -56.3059   ZZ=            -50.8012
   XY=             -0.4037   XZ=              0.3165   YZ=              1.2434

  Exact polarizability:  91.988  -6.883  75.531   0.075   3.210  63.188
 Approx polarizability: 124.394 -16.842 118.759  -2.003   2.366  97.012

                      1                      2                      3
                      A                      A                      A
 Frequencies --    101.8865               157.5164               182.3230
 Red. masses --      4.7097                 1.6655                 1.3193
 Frc consts  --      0.0288                 0.0243                 0.0258
 IR Inten    --      0.3551                 0.7700                 0.2596

                      4                      5                      6
                      A                      A                      A
 Frequencies --    235.3508               283.4748               334.3880
 Red. masses --      3.2982                 5.5442                 2.7734
 Frc consts  --      0.1076                 0.2625                 0.1827
 IR Inten    --      2.9585                 6.5210                 0.3101

                      7                      8                      9
                      A                      A                      A
 Frequencies --    401.2956               489.2582               515.0451
 Red. masses --      2.8111                 3.2963                 1.1537
 Frc consts  --      0.2667                 0.4649                 0.1803
 IR Inten    --      0.8970                 2.6986                77.0156

                     10                     11                     12
                      A                      A                      A
 Frequencies --    584.9723               632.9563               716.1243
 Red. masses --      3.8161                 4.4711                 4.1916
 Frc consts  --      0.7694                 1.0554                 1.2665
 IR Inten    --      3.6710                 2.1899                 7.0100

                     13                     14                     15
                      A                      A                      A
 Frequencies --    801.2319               835.7165               877.6009
 Red. masses --      2.5505                 1.9419                 2.0182
 Frc consts  --      0.9647                 0.7991                 0.9158
 IR Inten    --      6.3600                 0.2293                27.9220

                     16                     17                     18
                      A                      A                      A
 Frequencies --    884.7156               892.7341               952.8831
 Red. masses --      1.8128                 3.0527                 2.7275
 Frc consts  --      0.8360                 1.4334                 1.4591
 IR Inten    --      5.3671                20.7459                 2.2962

                     19                     20                     21
                      A                      A                      A
 Frequencies --    985.0901              1006.7412              1042.0321
 Red. masses --      2.2139                 3.4283                 2.3450
 Frc consts  --      1.2658                 2.0472                 1.5002
 IR Inten    --      8.7972                42.0128                55.5004

                     22                     23                     24
                      A                      A                      A
 Frequencies --   1062.6095              1071.6538              1083.1299
 Red. masses --      1.6999                 2.4090                 1.6719
 Frc consts  --      1.1309                 1.6300                 1.1556
 IR Inten    --      4.7270                 2.2811                 7.7078

                     25                     26                     27
                      A                      A                      A
 Frequencies --   1098.1440              1158.5497              1181.8298
 Red. masses --      3.2194                 1.3584                 1.6036
 Frc consts  --      2.2874                 1.0742                 1.3196
 IR Inten    --     75.0980                 3.2466                 1.3742

                     28                     29                     30
                      A                      A                      A
 Frequencies --   1240.2111              1254.3557              1266.2081
 Red. masses --      1.5851                 1.5577                 1.6725
 Frc consts  --      1.4364                 1.4440                 1.5799
 IR Inten    --      4.4993                 2.4772                18.7077

                     31                     32                     33
                      A                      A                      A
 Frequencies --   1292.1624              1311.3221              1331.1582
 Red. masses --      1.2967                 1.4043                 1.7809
 Frc consts  --      1.2756                 1.4227                 1.8593
 IR Inten    --      2.7416                 2.6146                 0.6829

                     34                     35                     36
                      A                      A                      A
 Frequencies --   1352.4439              1362.9898              1407.0723
 Red. masses --      1.3580                 1.8262                 1.2858
 Frc consts  --      1.4635                 1.9989                 1.4998
 IR Inten    --      4.2355                 1.7307                 3.2978

                     37                     38                     39
                      A                      A                      A
 Frequencies --   1445.9061              1474.0623              1489.3432
 Red. masses --      1.2201                 1.0454                 1.0613
 Frc consts  --      1.5029                 1.3383                 1.3870
 IR Inten    --     88.5321                 6.4881                 8.3342

                     40                     41                     42
                      A                      A                      A
 Frequencies --   1518.8711              1715.9315              3013.0750
 Red. masses --      1.0989                 7.3176                 1.0824
 Frc consts  --      1.4937                12.6946                 5.7895
 IR Inten    --      0.2174                 3.6981                28.1169

                     43                     44                     45
                      A                      A                      A
 Frequencies --   3020.7063              3022.2914              3066.8485
 Red. masses --      1.0561                 1.0422                 1.0882
 Frc consts  --      5.6775                 5.6089                 6.0306
 IR Inten    --     96.9379                18.5843                49.7603

                     46                     47                     48
                      A                      A                      A
 Frequencies --   3074.5846              3078.1638              3090.6911
 Red. masses --      1.1067                 1.0930                 1.0901
 Frc consts  --      6.1638                 6.1016                 6.1352
 IR Inten    --      9.3034                13.9459                62.9350

                     49                     50                     51
                      A                      A                      A
 Frequencies --   3117.2893              3174.7814              3720.0214
 Red. masses --      1.1016                 1.0930                 1.0648
 Frc consts  --      6.3073                 6.4910                 8.6814
 IR Inten    --     16.1714                17.5673                49.3095

 - Thermochemistry -
 -------------------
 Temperature   298.150 Kelvin.  Pressure   1.00000 Atm.
 Atom     1 has atomic number  6 and mass  12.00000

 Molecular mass:   126.06808 amu.
 Principal axes and moments of inertia in atomic units:
                           1         2         3
     Eigenvalues --   658.345951125.341581515.49599
           X            0.99997  -0.00014   0.00773
           Y           -0.00005   0.99970   0.02441
           Z           -0.00774  -0.02441   0.99967
 This molecule is an asymmetric top.
 Rotational symmetry number  1.
 Warning -- assumption of classical behavior for rotation
           may cause significant error
 Rotational temperatures (Kelvin)      0.13156     0.07697     0.05715
 Rotational constants (GHZ):           2.74133     1.60373     1.19086
 Zero-point vibrational energy     421143.8 (Joules/Mol)
                                  100.65578 (Kcal/Mol)
 Warning -- explicit consideration of  10 degrees of freedom as
           vibrations may cause significant error
 Vibrational temperatures:    146.59   226.63   262.32   338.62   407.86
          (Kelvin)            481.11   577.37   703.93   741.03   841.64
                              910.68  1030.34  1152.79  1202.41  1262.67
                             1272.91  1284.44  1370.98  1417.32  1448.47
                             1499.25  1528.86  1541.87  1558.38  1579.98
                             1666.89  1700.39  1784.38  1804.74  1821.79
                             1859.13  1886.70  1915.24  1945.86  1961.04
                             2024.46  2080.33  2120.84  2142.83  2185.31
                             2468.84  4335.14  4346.12  4348.40  4412.51
                             4423.64  4428.79  4446.81  4485.08  4567.80
                             5352.27

 Zero-point correction=                           0.160405 (Hartree/Particle)
 Thermal correction to Energy=                    0.168422
 Thermal correction to Enthalpy=                  0.169367
 Thermal correction to Gibbs Free Energy=         0.127979
 Sum of electronic and zero-point Energies=           -423.022551
 Sum of electronic and thermal Energies=              -423.014534
 Sum of electronic and thermal Enthalpies=            -423.013590
 Sum of electronic and thermal Free Energies=         -423.054977

                     E (Thermal)             CV                S
                      KCal/Mol        Cal/Mol-Kelvin    Cal/Mol-Kelvin
 Total                  105.687             31.177             87.107
 Electronic               0.000              0.000              0.000
 Translational            0.889              2.981             40.409
 Rotational               0.889              2.981             28.509
 Vibrational            103.909             25.215             18.189
 Vibration     1          0.604              1.948              3.418
 Vibration     2          0.621              1.894              2.579
 Vibration     3          0.630              1.864              2.304
 Vibration     4          0.655              1.787              1.838
 Vibration     5          0.682              1.704              1.513
 Vibration     6          0.716              1.607              1.239
 Vibration     7          0.767              1.467              0.958
 Vibration     8          0.845              1.274              0.686
 Vibration     9          0.870              1.217              0.622
 Vibration    10          0.942              1.064              0.476

 Optimization completed.
    -- Stationary point found.
 Normal termination of Gaussian 09 at Tue Jan 28 00:42:53 2020.
