 Gaussian 09, Revision D.01,
 Gaussian 09:  ES64L-G09RevD.01 24-Apr-2013

 -----------------------------
 # b3lyp 6-31G(2df,p) opt Freq
 -----------------------------

 -----
 titel
 -----
 Symbolic Z-matrix:
 Charge =  0 Multiplicity = 1

 SCF Done:  E(RB3LYP) =  -423.244800117     A.U. after   14 cycles
 Optimization completed.
    -- Stationary point found.
 Normal termination of Gaussian 09 at Mon Jan 27 15:53:47 2020.

 ----------------------------------------------------------------------
 #N Geom=AllCheck Guess=TCheck SCRF=Check GenChk RB3LYP/6-31G(2df,p) Fr
 eq
 ----------------------------------------------------------------------

 Structure from the checkpoint file:  "/scratch/puck/g09_3f84fe90-92b5-4696-8cc0-c5e4d6fcc217/Gau-162113.chk"
 -----
 titel
 -----
 Charge =  0 Multiplicity = 1

                         Standard orientation:
 ---------------------------------------------------------------------
 Center     Atomic      Atomic             Coordinates (Angstroms)
 Number     Number       Type             X           Y           Z
 ---------------------------------------------------------------------
      1          6           0       -0.015293   -1.644846   -1.146529
      2          6           0       -0.011425   -0.644832    0.019916
      3          6           0       -0.050255   -1.386859    1.374679
      4          6           0        1.218250    0.271066   -0.021054
      5          8           0        2.351390   -0.101011   -0.187378
      6          6           0        0.786017    1.728359    0.183807
      7          6           0       -0.707304    1.767592   -0.168687
      8          6           0       -1.202857    0.319166   -0.066009
      9          8           0       -2.359261   -0.016921   -0.058215
     10          1           0       -0.012353   -1.135182   -2.115171
     11          1           0        0.877176   -2.273582   -1.094481
     12          1           0       -0.908826   -2.272215   -1.094870
     13          1           0        0.808022   -2.059749    1.451643
     14          1           0       -0.019256   -0.695398    2.223259
     15          1           0       -0.975464   -1.965095    1.444149
     16          1           0        0.951748    1.975553    1.240127
     17          1           0        1.419162    2.397876   -0.401561
     18          1           0       -1.314397    2.422487    0.460111
     19          1           0       -0.865651    2.090884   -1.205197
 ---------------------------------------------------------------------

 SCF Done:  E(RB3LYP) =  -423.244800117     A.U. after    1 cycles

 The electronic state is 1-A.
 Alpha  occ. eigenvalues --  -19.14004 -19.13991 -10.27546 -10.27501 -10.20992
 Alpha  occ. eigenvalues --  -10.20590 -10.20535 -10.19489 -10.18836  -1.05277
 Alpha  occ. eigenvalues --   -1.04888  -0.84895  -0.78953  -0.70106  -0.68016
 Alpha  occ. eigenvalues --   -0.65237  -0.55535  -0.51823  -0.49492  -0.46926
 Alpha  occ. eigenvalues --   -0.45882  -0.44298  -0.42867  -0.42623  -0.40971
 Alpha  occ. eigenvalues --   -0.40754  -0.39319  -0.38116  -0.37536  -0.36153
 Alpha  occ. eigenvalues --   -0.34757  -0.34321  -0.26278  -0.23763
 Alpha virt. eigenvalues --   -0.03966  -0.01309   0.07237   0.10860   0.11776
 Alpha virt. eigenvalues --    0.13931   0.14236   0.14708   0.16054   0.17195
 Alpha virt. eigenvalues --    0.17812   0.18246   0.18866   0.21034   0.21562

 Mulliken charges:
               1
     1  C   -0.417607
     2  C    0.034130
     3  C   -0.416198
     4  C    0.378504
     5  O   -0.320239
     6  C   -0.336326
     7  C   -0.335392
     8  C    0.383862
     9  O   -0.323345
    10  H    0.118735
    11  H    0.138665
    12  H    0.136047
    13  H    0.138057
    14  H    0.118620
    15  H    0.142430
    16  H    0.140514
    17  H    0.137359
    18  H    0.138713
    19  H    0.143471
 Sum of Mulliken charges =   0.00000

 Dipole moment (field-independent basis, Debye):
    X=              0.0247    Y=              1.2738    Z=              0.4121  Tot=              1.3391
 Quadrupole moment (field-independent basis, Debye-Ang):
   XX=            -68.5335   YY=            -48.1676   ZZ=            -50.1774
   XY=              0.3217   XZ=              0.7506   YZ=             -0.2657

  Exact polarizability:  79.054   0.084  81.030  -0.680   0.115  64.499
 Approx polarizability: 127.416  -0.263 109.286  -2.905   0.348  95.539

                      1                      2                      3
                      A                      A                      A
 Frequencies --     13.0770                91.5265               190.4842
 Red. masses --      4.3738                 2.0460                 2.2350
 Frc consts  --      0.0004                 0.0101                 0.0478
 IR Inten    --      8.9455                 0.6679                 0.0329

                      4                      5                      6
                      A                      A                      A
 Frequencies --    193.9717               219.3994               227.5898
 Red. masses --      1.1533                 3.2530                 1.3531
 Frc consts  --      0.0256                 0.0923                 0.0413
 IR Inten    --      0.4572                 3.9188                 2.2091

                      7                      8                      9
                      A                      A                      A
 Frequencies --    283.3914               292.4264               403.2599
 Red. masses --      1.9945                 3.0531                 4.6819
 Frc consts  --      0.0944                 0.1538                 0.4486
 IR Inten    --      0.8165                 4.5101                10.5882

                     10                     11                     12
                      A                      A                      A
 Frequencies --    511.5060               525.2367               565.3526
 Red. masses --      3.2370                 2.2015                 3.5403
 Frc consts  --      0.4990                 0.3578                 0.6667
 IR Inten    --      2.3516                 2.8447                 1.8527

                     13                     14                     15
                      A                      A                      A
 Frequencies --    592.1828               656.1978               675.9309
 Red. masses --      3.4446                 4.5544                 4.6143
 Frc consts  --      0.7117                 1.1555                 1.2421
 IR Inten    --      1.1866                 0.9209                 8.5516

                     16                     17                     18
                      A                      A                      A
 Frequencies --    794.7432               807.2208               914.8929
 Red. masses --      1.9879                 1.9910                 2.9974
 Frc consts  --      0.7398                 0.7644                 1.4782
 IR Inten    --      3.3775                 5.2147                 3.1966

                     19                     20                     21
                      A                      A                      A
 Frequencies --    963.9895               967.2672              1002.9381
 Red. masses --      1.6374                 1.4574                 1.9377
 Frc consts  --      0.8965                 0.8034                 1.1484
 IR Inten    --      1.8001                 1.6471                 7.8255

                     22                     23                     24
                      A                      A                      A
 Frequencies --   1049.7633              1058.1660              1082.4249
 Red. masses --      1.7393                 1.7769                 3.1880
 Frc consts  --      1.1293                 1.1723                 2.2007
 IR Inten    --      4.8279                 7.1467                18.1154

                     25                     26                     27
                      A                      A                      A
 Frequencies --   1104.1312              1190.3603              1227.5263
 Red. masses --      2.4315                 2.3051                 2.8112
 Frc consts  --      1.7465                 1.9244                 2.4958
 IR Inten    --     93.3412                 0.3185                 0.2586

                     28                     29                     30
                      A                      A                      A
 Frequencies --   1228.8624              1272.2633              1289.3320
 Red. masses --      1.5062                 1.3615                 3.0733
 Frc consts  --      1.3401                 1.2984                 3.0101
 IR Inten    --      0.1529                 8.2248                62.0521

                     31                     32                     33
                      A                      A                      A
 Frequencies --   1301.5899              1384.2466              1409.9696
 Red. masses --      1.5824                 1.1876                 1.2166
 Frc consts  --      1.5795                 1.3407                 1.4250
 IR Inten    --      1.5907                 1.4496                11.8883

                     34                     35                     36
                      A                      A                      A
 Frequencies --   1448.3233              1462.3438              1480.3912
 Red. masses --      1.0683                 1.0992                 1.0513
 Frc consts  --      1.3203                 1.3850                 1.3574
 IR Inten    --      3.3286                12.7671                 4.4074

                     37                     38                     39
                      A                      A                      A
 Frequencies --   1483.3035              1498.5059              1506.7108
 Red. masses --      1.0437                 1.0614                 1.0539
 Frc consts  --      1.3530                 1.4043                 1.4097
 IR Inten    --      0.1380                14.8667                 7.8306

                     40                     41                     42
                      A                      A                      A
 Frequencies --   1822.1416              1860.3887              3036.2261
 Red. masses --     12.7535                12.3279                 1.0360
 Frc consts  --     24.9484                25.1389                 5.6272
 IR Inten    --    319.7733                23.6345                16.0661

                     43                     44                     45
                      A                      A                      A
 Frequencies --   3039.8303              3042.2247              3044.2267
 Red. masses --      1.0673                 1.0359                 1.0643
 Frc consts  --      5.8108                 5.6488                 5.8114
 IR Inten    --      6.8309                11.1267                14.8534

                     46                     47                     48
                      A                      A                      A
 Frequencies --   3107.6656              3109.0448              3113.1392
 Red. masses --      1.1006                 1.0936                 1.1004
 Frc consts  --      6.2623                 6.2280                 6.2835
 IR Inten    --     15.0101                 6.3231                17.7887

                     49                     50                     51
                      A                      A                      A
 Frequencies --   3117.8946              3127.8126              3132.6354
 Red. masses --      1.0967                 1.1042                 1.1034
 Frc consts  --      6.2815                 6.3648                 6.3798
 IR Inten    --      9.3426                 2.9192                12.3276

 - Thermochemistry -
 -------------------
 Temperature   298.150 Kelvin.  Pressure   1.00000 Atm.
 Atom     1 has atomic number  6 and mass  12.00000

 Molecular mass:   126.06808 amu.
 Principal axes and moments of inertia in atomic units:
                           1         2         3
     Eigenvalues --   842.504271050.436501468.78978
           X            0.99993   0.01088   0.00470
           Y           -0.01089   0.99994   0.00065
           Z           -0.00469  -0.00071   0.99999
 This molecule is an asymmetric top.
 Rotational symmetry number  1.
 Warning -- assumption of classical behavior for rotation
           may cause significant error
 Rotational temperatures (Kelvin)      0.10281     0.08246     0.05897
 Rotational constants (GHZ):           2.14212     1.71809     1.22873
 Zero-point vibrational energy     412257.2 (Joules/Mol)
                                   98.53185 (Kcal/Mol)
 Warning -- explicit consideration of  13 degrees of freedom as
           vibrations may cause significant error
 Vibrational temperatures:     18.81   131.69   274.06   279.08   315.67
          (Kelvin)            327.45   407.74   420.74   580.20   735.94
                              755.70   813.42   852.02   944.12   972.51
                             1143.46  1161.41  1316.33  1386.96  1391.68
                             1443.00  1510.37  1522.46  1557.37  1588.60
                             1712.66  1766.13  1768.06  1830.50  1855.06
                             1872.70  1991.62  2028.63  2083.81  2103.98
                             2129.95  2134.14  2156.01  2167.82  2621.65
                             2676.68  4368.45  4373.63  4377.08  4379.96
                             4471.23  4473.22  4479.11  4485.95  4500.22
                             4507.16

 Zero-point correction=                           0.157020 (Hartree/Particle)
 Thermal correction to Energy=                    0.166483
 Thermal correction to Enthalpy=                  0.167428
 Thermal correction to Gibbs Free Energy=         0.121472
 Sum of electronic and zero-point Energies=           -423.087780
 Sum of electronic and thermal Energies=              -423.078317
 Sum of electronic and thermal Enthalpies=            -423.077373
 Sum of electronic and thermal Free Energies=         -423.123328

                     E (Thermal)             CV                S
                      KCal/Mol        Cal/Mol-Kelvin    Cal/Mol-Kelvin
 Total                  104.470             34.426             96.722
 Electronic               0.000              0.000              0.000
 Translational            0.889              2.981             40.409
 Rotational               0.889              2.981             28.654
 Vibrational            102.692             28.465             27.659
 Vibration     1          0.593              1.987              7.478
 Vibration     2          0.602              1.955              3.627
 Vibration     3          0.634              1.853              2.223
 Vibration     4          0.635              1.848              2.190
 Vibration     5          0.647              1.812              1.964
 Vibration     6          0.651              1.799              1.898
 Vibration     7          0.682              1.704              1.513
 Vibration     8          0.688              1.688              1.460
 Vibration     9          0.769              1.463              0.951
 Vibration    10          0.867              1.225              0.630
 Vibration    11          0.880              1.194              0.598
 Vibration    12          0.921              1.106              0.513
 Vibration    13          0.950              1.048              0.463

 Optimization completed on the basis of negligible forces.
    -- Stationary point found.
 Normal termination of Gaussian 09 at Mon Jan 27 16:40:21 2020.
