 Gaussian 09, Revision D.01,
 Gaussian 09:  ES64L-G09RevD.01 24-Apr-2013

 -----------------------------
 # b3lyp 6-31G(2df,p) opt Freq
 -----------------------------

 -----
 titel
 -----
 Symbolic Z-matrix:
 Charge =  0 Multiplicity = 1

 SCF Done:  E(RB3LYP) =  -423.165882517     A.U. after   14 cycles
 Optimization completed.
    -- Stationary point found.
 Normal termination of Gaussian 09 at Tue Jan 28 12:08:53 2020.

 ----------------------------------------------------------------------
 #N Geom=AllCheck Guess=TCheck SCRF=Check GenChk RB3LYP/6-31G(2df,p) Fr
 eq
 ----------------------------------------------------------------------

 Structure from the checkpoint file:  "/scratch/puck/g09_1a158045-1618-42a7-bd59-29765baa49be/Gau-65844.chk"
 -----
 titel
 -----
 Charge =  0 Multiplicity = 1

                         Standard orientation:
 ---------------------------------------------------------------------
 Center     Atomic      Atomic             Coordinates (Angstroms)
 Number     Number       Type             X           Y           Z
 ---------------------------------------------------------------------
      1          6           0        2.893909   -0.630509   -0.171469
      2          6           0        1.736763   -0.314516    0.784953
      3          6           0        0.461760    0.066876    0.062199
      4          6           0        0.363761    1.439081   -0.633945
      5          8           0       -0.928637    1.710263   -0.038789
      6          6           0       -0.872027    0.509844    0.764233
      7          6           0       -1.604658   -0.634654    0.029220
      8          8           0       -2.720885   -1.059385    0.048236
      9          6           0       -0.313099   -1.045489   -0.712513
     10          1           0        3.798375   -0.899324    0.381739
     11          1           0        2.645264   -1.467103   -0.832911
     12          1           0        3.135212    0.231503   -0.803062
     13          1           0        1.542350   -1.184312    1.425981
     14          1           0        2.027608    0.502704    1.457059
     15          1           0        1.109565    2.171510   -0.297520
     16          1           0        0.325417    1.441752   -1.729522
     17          1           0       -1.035715    0.689431    1.830671
     18          1           0       -0.009829   -2.062730   -0.440633
     19          1           0       -0.340521   -0.974249   -1.803453
 ---------------------------------------------------------------------

 SCF Done:  E(RB3LYP) =  -423.165882517     A.U. after    1 cycles

 The electronic state is 1-A.
 Alpha  occ. eigenvalues --  -19.15084 -19.14351 -10.27240 -10.24100 -10.24061
 Alpha  occ. eigenvalues --  -10.21213 -10.19899 -10.19880 -10.18892  -1.06013
 Alpha  occ. eigenvalues --   -1.04465  -0.84148  -0.77423  -0.71168  -0.67413
 Alpha  occ. eigenvalues --   -0.63595  -0.56443  -0.53803  -0.49320  -0.48996
 Alpha  occ. eigenvalues --   -0.47641  -0.44849  -0.43315  -0.42084  -0.41787
 Alpha  occ. eigenvalues --   -0.40405  -0.39182  -0.37331  -0.36553  -0.34092
 Alpha  occ. eigenvalues --   -0.31763  -0.29666  -0.28501  -0.23366
 Alpha virt. eigenvalues --   -0.03451   0.05784   0.09275   0.11418   0.11957
 Alpha virt. eigenvalues --    0.12041   0.12748   0.14432   0.15102   0.15193
 Alpha virt. eigenvalues --    0.15496   0.18105   0.18271   0.19704   0.20803

 Mulliken charges:
               1
     1  C   -0.382329
     2  C   -0.297195
     3  C    0.314678
     4  C   -0.118969
     5  O   -0.287176
     6  C   -0.076326
     7  C    0.425637
     8  O   -0.289643
     9  C   -0.427386
    10  H    0.121092
    11  H    0.123297
    12  H    0.121636
    13  H    0.101754
    14  H    0.105005
    15  H    0.103911
    16  H    0.107662
    17  H    0.088816
    18  H    0.134068
    19  H    0.131468
 Sum of Mulliken charges =   0.00000

 Dipole moment (field-independent basis, Debye):
    X=              3.9242    Y=             -0.3758    Z=              0.0510  Tot=              3.9425
 Quadrupole moment (field-independent basis, Debye-Ang):
   XX=            -62.4524   YY=            -55.7319   ZZ=            -50.4060
   XY=             -0.9627   XZ=             -0.2343   YZ=             -0.1971

  Exact polarizability:  86.412   3.671  72.515  -2.737   1.112  67.498
 Approx polarizability: 120.179   7.056 109.022  -5.241   0.836 101.843

                      1                      2                      3
                      A                      A                      A
 Frequencies --     70.8274                99.9095               160.5170
 Red. masses --      4.1513                 2.3733                 3.0675
 Frc consts  --      0.0123                 0.0140                 0.0466
 IR Inten    --      2.7256                 0.1579                 3.8037

                      4                      5                      6
                      A                      A                      A
 Frequencies --    205.0637               218.1545               340.0693
 Red. masses --      3.4384                 1.2795                 2.4023
 Frc consts  --      0.0852                 0.0359                 0.1637
 IR Inten    --      3.1569                 0.5748                 0.0959

                      7                      8                      9
                      A                      A                      A
 Frequencies --    343.9619               365.7852               441.0153
 Red. masses --      2.0804                 2.7482                 3.7293
 Frc consts  --      0.1450                 0.2166                 0.4274
 IR Inten    --      0.2765                 1.2532                 2.5235

                     10                     11                     12
                      A                      A                      A
 Frequencies --    534.1746               600.9184               642.6986
 Red. masses --      2.3013                 4.3257                 2.9659
 Frc consts  --      0.3869                 0.9203                 0.7218
 IR Inten    --      5.6242                 1.1215                 0.2010

                     13                     14                     15
                      A                      A                      A
 Frequencies --    774.1097               793.4694               859.6860
 Red. masses --      2.2322                 1.2493                 2.3315
 Frc consts  --      0.7881                 0.4634                 1.0152
 IR Inten    --      1.2077                 2.7249                 8.4155

                     16                     17                     18
                      A                      A                      A
 Frequencies --    879.9287               916.9769               975.5965
 Red. masses --      2.3055                 3.0700                 3.0789
 Frc consts  --      1.0517                 1.5209                 1.7266
 IR Inten    --     17.8063                15.3379                 1.2106

                     19                     20                     21
                      A                      A                      A
 Frequencies --    993.1727              1006.1739              1010.5187
 Red. masses --      2.4268                 2.0140                 6.1677
 Frc consts  --      1.4104                 1.2013                 3.7108
 IR Inten    --      7.8913                 5.5739                47.5958

                     22                     23                     24
                      A                      A                      A
 Frequencies --   1034.3728              1082.0914              1089.9436
 Red. masses --      2.0971                 2.5312                 1.6487
 Frc consts  --      1.3220                 1.7463                 1.1540
 IR Inten    --      8.2161                30.8240                 1.2319

                     25                     26                     27
                      A                      A                      A
 Frequencies --   1122.3437              1148.9071              1173.7443
 Red. masses --      2.4185                 1.4554                 1.4010
 Frc consts  --      1.7950                 1.1319                 1.1372
 IR Inten    --     17.3964                 1.3784                 3.2917

                     28                     29                     30
                      A                      A                      A
 Frequencies --   1209.7517              1227.2306              1261.0406
 Red. masses --      1.7297                 2.0164                 1.3473
 Frc consts  --      1.4914                 1.7893                 1.2623
 IR Inten    --      3.6016                 0.2569                 2.2790

                     31                     32                     33
                      A                      A                      A
 Frequencies --   1291.7172              1323.0784              1358.2268
 Red. masses --      1.7882                 1.3846                 1.4148
 Frc consts  --      1.7580                 1.4281                 1.5378
 IR Inten    --      5.8015                 0.5247                 2.0180

                     34                     35                     36
                      A                      A                      A
 Frequencies --   1377.9115              1413.7780              1433.6931
 Red. masses --      2.0232                 1.2288                 1.1239
 Frc consts  --      2.2633                 1.4470                 1.3611
 IR Inten    --      0.5076                 3.1556                 8.5316

                     37                     38                     39
                      A                      A                      A
 Frequencies --   1486.0284              1499.6899              1506.4422
 Red. masses --      1.0607                 1.0393                 1.0779
 Frc consts  --      1.3800                 1.3771                 1.4412
 IR Inten    --      0.7106                 5.3949                 3.1340

                     40                     41                     42
                      A                      A                      A
 Frequencies --   1522.5703              1896.3919              3007.8065
 Red. masses --      1.0971                12.6801                 1.0576
 Frc consts  --      1.4985                26.8676                 5.6373
 IR Inten    --      0.6252               272.3236                64.0399

                     43                     44                     45
                      A                      A                      A
 Frequencies --   3018.6285              3034.9333              3048.4272
 Red. masses --      1.0599                 1.0357                 1.0605
 Frc consts  --      5.6905                 5.6205                 5.8064
 IR Inten    --     16.9613                22.0797                 6.3208

                     46                     47                     48
                      A                      A                      A
 Frequencies --   3050.9856              3061.0723              3075.8147
 Red. masses --      1.1011                 1.1078                 1.0892
 Frc consts  --      6.0389                 6.1160                 6.0715
 IR Inten    --     14.7615                36.9505                35.9935

                     49                     50                     51
                      A                      A                      A
 Frequencies --   3101.3214              3104.4471              3110.2835
 Red. masses --      1.1017                 1.1043                 1.1012
 Frc consts  --      6.2431                 6.2708                 6.2766
 IR Inten    --     34.1086                 7.8009                31.8932

 - Thermochemistry -
 -------------------
 Temperature   298.150 Kelvin.  Pressure   1.00000 Atm.
 Atom     1 has atomic number  6 and mass  12.00000

 Molecular mass:   126.06808 amu.
 Principal axes and moments of inertia in atomic units:
                           1         2         3
     Eigenvalues --   625.781631410.602321740.56244
           X            0.99974  -0.02264  -0.00128
           Y            0.02265   0.99973   0.00580
           Z            0.00115  -0.00582   0.99998
 This molecule is an asymmetric top.
 Rotational symmetry number  1.
 Warning -- assumption of classical behavior for rotation
           may cause significant error
 Rotational temperatures (Kelvin)      0.13841     0.06140     0.04976
 Rotational constants (GHZ):           2.88398     1.27941     1.03687
 Zero-point vibrational energy     414538.4 (Joules/Mol)
                                   99.07704 (Kcal/Mol)
 Warning -- explicit consideration of  11 degrees of freedom as
           vibrations may cause significant error
 Vibrational temperatures:    101.90   143.75   230.95   295.04   313.88
          (Kelvin)            489.28   494.88   526.28   634.52   768.56
                              864.59   924.70  1113.77  1141.62  1236.89
                             1266.02  1319.32  1403.66  1428.95  1447.66
                             1453.91  1488.23  1556.89  1568.18  1614.80
                             1653.02  1688.75  1740.56  1765.71  1814.35
                             1858.49  1903.61  1954.18  1982.50  2034.11
                             2062.76  2138.06  2157.72  2167.43  2190.64
                             2728.48  4327.56  4343.13  4366.59  4386.00
                             4389.68  4404.19  4425.41  4462.10  4466.60
                             4475.00

 Zero-point correction=                           0.157889 (Hartree/Particle)
 Thermal correction to Energy=                    0.166565
 Thermal correction to Enthalpy=                  0.167509
 Thermal correction to Gibbs Free Energy=         0.124237
 Sum of electronic and zero-point Energies=           -423.007993
 Sum of electronic and thermal Energies=              -422.999318
 Sum of electronic and thermal Enthalpies=            -422.998374
 Sum of electronic and thermal Free Energies=         -423.041646

                     E (Thermal)             CV                S
                      KCal/Mol        Cal/Mol-Kelvin    Cal/Mol-Kelvin
 Total                  104.521             32.354             91.074
 Electronic               0.000              0.000              0.000
 Translational            0.889              2.981             40.409
 Rotational               0.889              2.981             28.820
 Vibrational            102.744             26.392             21.845
 Vibration     1          0.598              1.968              4.130
 Vibration     2          0.604              1.949              3.456
 Vibration     3          0.622              1.891              2.544
 Vibration     4          0.640              1.833              2.087
 Vibration     5          0.646              1.813              1.974
 Vibration     6          0.720              1.595              1.212
 Vibration     7          0.723              1.588              1.194
 Vibration     8          0.739              1.543              1.097
 Vibration     9          0.801              1.381              0.823
 Vibration    10          0.889              1.174              0.578
 Vibration    11          0.959              1.030              0.448

 Normal termination of Gaussian 09 at Tue Jan 28 12:54:39 2020.
