 Gaussian 09, Revision D.01,
 Gaussian 09:  ES64L-G09RevD.01 24-Apr-2013

 -----------------------------
 # b3lyp 6-31G(2df,p) opt Freq
 -----------------------------

 -----
 titel
 -----
 Symbolic Z-matrix:
 Charge =  0 Multiplicity = 1

 SCF Done:  E(RB3LYP) =  -423.106197101     A.U. after   14 cycles
 Optimization completed.
    -- Stationary point found.
 Normal termination of Gaussian 09 at Tue Jan 28 13:41:02 2020.

 ----------------------------------------------------------------------
 #N Geom=AllCheck Guess=TCheck SCRF=Check GenChk RB3LYP/6-31G(2df,p) Fr
 eq
 ----------------------------------------------------------------------

 Structure from the checkpoint file:  "/scratch/puck/g09_baaed113-0425-4226-8424-4a566eba0feb/Gau-9218.chk"
 -----
 titel
 -----
 Charge =  0 Multiplicity = 1

                         Standard orientation:
 ---------------------------------------------------------------------
 Center     Atomic      Atomic             Coordinates (Angstroms)
 Number     Number       Type             X           Y           Z
 ---------------------------------------------------------------------
      1          6           0        3.101693   -0.127842    0.352710
      2          8           0        2.000836   -0.412882   -0.480285
      3          6           0        0.761807   -0.227735    0.160512
      4          6           0        0.280143    1.260352    0.285938
      5          6           0       -0.910079    0.951135   -0.666390
      6          6           0       -2.204101    0.388169   -0.025015
      7          8           0       -1.833284   -0.394067    1.116581
      8          6           0       -1.730438   -0.999373   -0.181109
      9          6           0       -0.404755   -0.520885   -0.819536
     10          1           0        3.105753   -0.766557    1.250081
     11          1           0        4.007752   -0.323573   -0.226076
     12          1           0        3.113122    0.922566    0.680753
     13          1           0        0.722991   -0.790756    1.102673
     14          1           0        0.016968    1.598791    1.289540
     15          1           0        1.000656    1.949967   -0.161006
     16          1           0       -1.068089    1.589009   -1.535512
     17          1           0       -3.203569    0.808862   -0.022247
     18          1           0       -2.265248   -1.931551   -0.325255
     19          1           0       -0.136369   -0.944090   -1.785980
 ---------------------------------------------------------------------

 SCF Done:  E(RB3LYP) =  -423.106197101     A.U. after    1 cycles

 The electronic state is 1-A.
 Alpha  occ. eigenvalues --  -19.15351 -19.13689 -10.23782 -10.23713 -10.22587
 Alpha  occ. eigenvalues --  -10.22070 -10.19025 -10.18667 -10.17631  -1.07872
 Alpha  occ. eigenvalues --   -1.03013  -0.84331  -0.72288  -0.69540  -0.65936
 Alpha  occ. eigenvalues --   -0.60193  -0.58789  -0.53369  -0.52277  -0.49056
 Alpha  occ. eigenvalues --   -0.47870  -0.44787  -0.43777  -0.42246  -0.39930
 Alpha  occ. eigenvalues --   -0.38560  -0.37725  -0.34115  -0.32714  -0.31950
 Alpha  occ. eigenvalues --   -0.29814  -0.26966  -0.25448  -0.24316
 Alpha virt. eigenvalues --    0.07135   0.08232   0.09309   0.12225   0.12639
 Alpha virt. eigenvalues --    0.13672   0.14506   0.15680   0.15948   0.16032
 Alpha virt. eigenvalues --    0.17450   0.18111   0.18920   0.19833   0.21012

 Mulliken charges:
               1
     1  C   -0.239347
     2  O   -0.253499
     3  C    0.161176
     4  C   -0.277488
     5  C   -0.060802
     6  C    0.013853
     7  O   -0.235348
     8  C    0.008830
     9  C   -0.107440
    10  H    0.105179
    11  H    0.124886
    12  H    0.106506
    13  H    0.075498
    14  H    0.107476
    15  H    0.104273
    16  H    0.076657
    17  H    0.102683
    18  H    0.104128
    19  H    0.082778
 Sum of Mulliken charges =   0.00000

 Dipole moment (field-independent basis, Debye):
    X=             -0.1444    Y=              0.5389    Z=             -0.7247  Tot=              0.9145
 Quadrupole moment (field-independent basis, Debye-Ang):
   XX=            -49.2102   YY=            -51.4243   ZZ=            -55.2509
   XY=              0.4615   XZ=              5.1996   YZ=              0.2926

  Exact polarizability:  89.857   0.082  71.331   1.067   0.193  63.552
 Approx polarizability: 111.091  -1.872 109.298  -1.756   0.500 103.750

                      1                      2                      3
                      A                      A                      A
 Frequencies --     93.3835               129.5435               184.4790
 Red. masses --      3.2881                 2.3630                 1.5962
 Frc consts  --      0.0169                 0.0234                 0.0320
 IR Inten    --      0.9401                 4.9039                 1.9318

                      4                      5                      6
                      A                      A                      A
 Frequencies --    226.7583               292.2291               344.8971
 Red. masses --      1.8733                 5.1052                 3.5595
 Frc consts  --      0.0568                 0.2569                 0.2495
 IR Inten    --      4.0911                 0.4523                 0.6438

                      7                      8                      9
                      A                      A                      A
 Frequencies --    390.9723               482.0291               594.2857
 Red. masses --      3.6249                 1.9343                 5.0008
 Frc consts  --      0.3265                 0.2648                 1.0406
 IR Inten    --      1.3399                 4.7806                12.1716

                     10                     11                     12
                      A                      A                      A
 Frequencies --    710.0648               747.1354               794.1580
 Red. masses --      3.5593                 4.0248                 2.6925
 Frc consts  --      1.0573                 1.3237                 1.0005
 IR Inten    --      0.7338                 1.8792                 2.7889

                     13                     14                     15
                      A                      A                      A
 Frequencies --    829.8016               848.1533               873.7825
 Red. masses --      1.8001                 2.7345                 2.0694
 Frc consts  --      0.7303                 1.1590                 0.9309
 IR Inten    --      8.7472                 5.0651                15.6311

                     16                     17                     18
                      A                      A                      A
 Frequencies --    896.8602               916.1276               968.2103
 Red. masses --      2.2506                 2.5125                 1.9201
 Frc consts  --      1.0666                 1.2424                 1.0605
 IR Inten    --      8.9242                 3.9830                 4.6878

                     19                     20                     21
                      A                      A                      A
 Frequencies --    986.9811              1013.7503              1031.1592
 Red. masses --      2.9073                 2.5116                 2.2333
 Frc consts  --      1.6686                 1.5208                 1.3991
 IR Inten    --      3.2927                10.4903                13.3820

                     22                     23                     24
                      A                      A                      A
 Frequencies --   1035.6400              1069.6981              1117.9003
 Red. masses --      1.7939                 1.8195                 1.9868
 Frc consts  --      1.1336                 1.2267                 1.4629
 IR Inten    --      2.8429                 5.4063                 3.7527

                     25                     26                     27
                      A                      A                      A
 Frequencies --   1142.4611              1163.1561              1185.0079
 Red. masses --      2.2108                 1.9618                 1.3028
 Frc consts  --      1.7001                 1.5638                 1.0779
 IR Inten    --     94.1070                67.8267                 2.2098

                     28                     29                     30
                      A                      A                      A
 Frequencies --   1199.1634              1203.5888              1233.1914
 Red. masses --      1.3895                 1.3733                 1.6202
 Frc consts  --      1.1772                 1.1721                 1.4517
 IR Inten    --      1.8950                 9.3796                10.1897

                     31                     32                     33
                      A                      A                      A
 Frequencies --   1240.0912              1250.9975              1269.4604
 Red. masses --      1.4420                 1.6752                 1.6170
 Frc consts  --      1.3066                 1.5447                 1.5353
 IR Inten    --      8.0790                25.4805                 8.1195

                     34                     35                     36
                      A                      A                      A
 Frequencies --   1287.5806              1302.5983              1365.0073
 Red. masses --      1.4779                 1.6377                 1.7840
 Frc consts  --      1.4436                 1.6372                 1.9584
 IR Inten    --      3.0542                 6.4841                32.4598

                     37                     38                     39
                      A                      A                      A
 Frequencies --   1387.9789              1452.5782              1481.0962
 Red. masses --      2.0396                 1.1273                 1.1263
 Frc consts  --      2.3150                 1.4014                 1.4557
 IR Inten    --     19.5218                 3.5250                 2.4808

                     40                     41                     42
                      A                      A                      A
 Frequencies --   1487.7788              1509.8074              2974.3344
 Red. masses --      1.0797                 1.0591                 1.0373
 Frc consts  --      1.4081                 1.4224                 5.4068
 IR Inten    --      2.4298                 6.6235                54.2809

                     43                     44                     45
                      A                      A                      A
 Frequencies --   3012.6473              3021.7039              3066.9110
 Red. masses --      1.0848                 1.1017                 1.0583
 Frc consts  --      5.8011                 5.9269                 5.8651
 IR Inten    --     53.6327                37.8436                25.9877

                     46                     47                     48
                      A                      A                      A
 Frequencies --   3112.4139              3115.0786              3130.9126
 Red. masses --      1.0964                 1.0898                 1.1063
 Frc consts  --      6.2579                 6.2306                 6.3897
 IR Inten    --     32.9990                18.0967                15.6558

                     49                     50                     51
                      A                      A                      A
 Frequencies --   3136.4060              3171.3558              3186.4656
 Red. masses --      1.0894                 1.0871                 1.1017
 Frc consts  --      6.3142                 6.4417                 6.5910
 IR Inten    --     17.0364                21.4595                32.3939

 - Thermochemistry -
 -------------------
 Temperature   298.150 Kelvin.  Pressure   1.00000 Atm.
 Atom     1 has atomic number  6 and mass  12.00000

 Molecular mass:   126.06808 amu.
 Principal axes and moments of inertia in atomic units:
                           1         2         3
     Eigenvalues --   429.018021613.642941680.48950
           X            0.99971   0.00203   0.02396
           Y           -0.00267   0.99965   0.02651
           Z           -0.02390  -0.02656   0.99936
 This molecule is an asymmetric top.
 Rotational symmetry number  1.
 Rotational temperatures (Kelvin)      0.20189     0.05368     0.05154
 Rotational constants (GHZ):           4.20668     1.11843     1.07394
 Zero-point vibrational energy     416705.8 (Joules/Mol)
                                   99.59508 (Kcal/Mol)
 Warning -- explicit consideration of   9 degrees of freedom as
           vibrations may cause significant error
 Vibrational temperatures:    134.36   186.38   265.42   326.25   420.45
          (Kelvin)            496.23   562.52   693.53   855.04  1021.62
                             1074.96  1142.61  1193.90  1220.30  1257.18
                             1290.38  1318.10  1393.04  1420.04  1458.56
                             1483.61  1490.05  1539.06  1608.41  1643.74
                             1673.52  1704.96  1725.33  1731.69  1774.29
                             1784.21  1799.90  1826.47  1852.54  1874.15
                             1963.94  1996.99  2089.93  2130.96  2140.58
                             2172.27  4279.40  4334.52  4347.55  4412.60
                             4478.06  4481.90  4504.68  4512.58  4562.87
                             4584.61

 Zero-point correction=                           0.158715 (Hartree/Particle)
 Thermal correction to Energy=                    0.166619
 Thermal correction to Enthalpy=                  0.167564
 Thermal correction to Gibbs Free Energy=         0.126165
 Sum of electronic and zero-point Energies=           -422.947482
 Sum of electronic and thermal Energies=              -422.939578
 Sum of electronic and thermal Enthalpies=            -422.938634
 Sum of electronic and thermal Free Energies=         -422.980032

                     E (Thermal)             CV                S
                      KCal/Mol        Cal/Mol-Kelvin    Cal/Mol-Kelvin
 Total                  104.555             30.582             87.130
 Electronic               0.000              0.000              0.000
 Translational            0.889              2.981             40.409
 Rotational               0.889              2.981             28.544
 Vibrational            102.778             24.620             18.178
 Vibration     1          0.602              1.954              3.588
 Vibration     2          0.612              1.924              2.953
 Vibration     3          0.631              1.861              2.283
 Vibration     4          0.650              1.800              1.904
 Vibration     5          0.688              1.688              1.461
 Vibration     6          0.723              1.586              1.189
 Vibration     7          0.759              1.489              0.996
 Vibration     8          0.838              1.290              0.705
 Vibration     9          0.952              1.044              0.460

 Optimization completed.
    -- Stationary point found.
 Normal termination of Gaussian 09 at Tue Jan 28 14:28:54 2020.
