 Gaussian 09, Revision D.01,
 Gaussian 09:  ES64L-G09RevD.01 24-Apr-2013

 -----------------------------
 # b3lyp 6-31G(2df,p) opt Freq
 -----------------------------

 -----
 titel
 -----
 Symbolic Z-matrix:
 Charge =  0 Multiplicity = 1

 SCF Done:  E(RB3LYP) =  -423.164033466     A.U. after   14 cycles
 Optimization completed.
    -- Stationary point found.
 Normal termination of Gaussian 09 at Tue Jan 28 08:17:07 2020.

 ----------------------------------------------------------------------
 #N Geom=AllCheck Guess=TCheck SCRF=Check GenChk RB3LYP/6-31G(2df,p) Fr
 eq
 ----------------------------------------------------------------------

 Structure from the checkpoint file:  "/scratch/puck/g09_fc5318f1-7154-4e1f-ab71-bb4e76215cd0/Gau-79690.chk"
 -----
 titel
 -----
 Charge =  0 Multiplicity = 1

                         Standard orientation:
 ---------------------------------------------------------------------
 Center     Atomic      Atomic             Coordinates (Angstroms)
 Number     Number       Type             X           Y           Z
 ---------------------------------------------------------------------
      1          6           0        2.763521   -0.832318    0.828814
      2          8           0        2.314184    0.269851    0.063278
      3          6           0        0.959605    0.585543    0.224284
      4          6           0        0.726773    1.959114   -0.411703
      5          6           0        0.030455   -0.462904   -0.420186
      6          8           0        0.443357   -1.357149   -1.125650
      7          6           0       -1.378367   -0.302731   -0.115469
      8          6           0       -2.549120   -0.169810    0.148641
      9          6           0       -3.962471   -0.026646    0.451937
     10          1           0        2.297877   -1.770708    0.508530
     11          1           0        3.843232   -0.900460    0.677590
     12          1           0        2.566257   -0.678898    1.901586
     13          1           0        0.691852    0.631753    1.296011
     14          1           0        0.993857    1.925607   -1.471645
     15          1           0       -0.318418    2.261982   -0.317324
     16          1           0        1.359745    2.699815    0.082357
     17          1           0       -4.512945    0.314523   -0.431705
     18          1           0       -4.393939   -0.984864    0.760516
     19          1           0       -4.130220    0.698139    1.255144
 ---------------------------------------------------------------------

 SCF Done:  E(RB3LYP) =  -423.164033466     A.U. after    1 cycles

 The electronic state is 1-A.
 Alpha  occ. eigenvalues --  -19.13992 -19.13394 -10.28096 -10.24129 -10.22289
 Alpha  occ. eigenvalues --  -10.21741 -10.20937 -10.18733 -10.18220  -1.05148
 Alpha  occ. eigenvalues --   -1.02600  -0.80317  -0.78006  -0.72867  -0.67431
 Alpha  occ. eigenvalues --   -0.65746  -0.58564  -0.51011  -0.49086  -0.47679
 Alpha  occ. eigenvalues --   -0.45854  -0.44689  -0.44636  -0.44002  -0.42352
 Alpha  occ. eigenvalues --   -0.40072  -0.38379  -0.37737  -0.35748  -0.31869
 Alpha  occ. eigenvalues --   -0.28668  -0.28044  -0.26835  -0.24145
 Alpha virt. eigenvalues --   -0.04997   0.03585   0.08734   0.09491   0.10205
 Alpha virt. eigenvalues --    0.12740   0.14441   0.15762   0.16512   0.16799
 Alpha virt. eigenvalues --    0.17575   0.17775   0.18597   0.18925   0.19660

 Mulliken charges:
               1
     1  C   -0.245919
     2  O   -0.226129
     3  C    0.027276
     4  C   -0.405215
     5  C    0.189942
     6  O   -0.291568
     7  C    0.031747
     8  C    0.102994
     9  C   -0.503911
    10  H    0.132375
    11  H    0.127600
    12  H    0.098282
    13  H    0.076572
    14  H    0.139187
    15  H    0.127793
    16  H    0.130519
    17  H    0.165336
    18  H    0.164865
    19  H    0.158255
 Sum of Mulliken charges =   0.00000

 Dipole moment (field-independent basis, Debye):
    X=             -2.8141    Y=              1.4600    Z=              2.3130  Tot=              3.9244
 Quadrupole moment (field-independent basis, Debye-Ang):
   XX=            -42.2344   YY=            -54.6386   ZZ=            -54.1391
   XY=             -1.5722   XZ=              1.0568   YZ=             -3.1856

  Exact polarizability: 118.591  -5.936  70.078  -5.871   2.035  62.438
 Approx polarizability: 165.307 -15.139 102.436 -19.462  10.352  97.554

                      1                      2                      3
                      A                      A                      A
 Frequencies --     26.7046                40.4318                80.5780
 Red. masses --      1.0219                 3.7553                 3.8938
 Frc consts  --      0.0004                 0.0036                 0.0149
 IR Inten    --      0.1401                 0.7543                 1.3705

                      4                      5                      6
                      A                      A                      A
 Frequencies --    122.6451               139.4454               192.1007
 Red. masses --      1.7499                 4.1384                 1.6838
 Frc consts  --      0.0155                 0.0474                 0.0366
 IR Inten    --      3.6796                 0.0805                 4.1600

                      7                      8                      9
                      A                      A                      A
 Frequencies --    215.6620               229.6774               258.2676
 Red. masses --      1.0645                 3.0943                 3.3773
 Frc consts  --      0.0292                 0.0962                 0.1327
 IR Inten    --      0.4906                 3.3411                 1.3490

                     10                     11                     12
                      A                      A                      A
 Frequencies --    306.4325               337.9831               394.9261
 Red. masses --      3.9033                 4.0175                 4.3104
 Frc consts  --      0.2160                 0.2704                 0.3961
 IR Inten    --      3.7617                 2.5934                 1.3146

                     13                     14                     15
                      A                      A                      A
 Frequencies --    451.1555               482.4948               566.2473
 Red. masses --      4.9430                 3.3760                 6.9194
 Frc consts  --      0.5928                 0.4631                 1.3072
 IR Inten    --      2.9252                 3.1769                 3.6220

                     16                     17                     18
                      A                      A                      A
 Frequencies --    710.1031               774.2417               874.8196
 Red. masses --      6.5496                 2.9295                 2.3415
 Frc consts  --      1.9459                 1.0346                 1.0558
 IR Inten    --      4.4767                 8.6035                32.9046

                     19                     20                     21
                      A                      A                      A
 Frequencies --    943.9531              1031.3252              1044.7505
 Red. masses --      3.3679                 2.4427                 1.4464
 Frc consts  --      1.7681                 1.5308                 0.9302
 IR Inten    --     76.5149                 9.9474                 3.5697

                     22                     23                     24
                      A                      A                      A
 Frequencies --   1054.3761              1085.3327              1128.3795
 Red. masses --      1.4114                 2.2687                 1.9838
 Frc consts  --      0.9245                 1.5745                 1.4882
 IR Inten    --      1.0685                13.9621                14.2721

                     25                     26                     27
                      A                      A                      A
 Frequencies --   1165.4769              1177.3808              1199.0639
 Red. masses --      5.2862                 1.3334                 2.5689
 Frc consts  --      4.2306                 1.0890                 2.1761
 IR Inten    --    224.4407                 7.8621                60.1629

                     28                     29                     30
                      A                      A                      A
 Frequencies --   1248.2542              1312.8031              1370.2762
 Red. masses --      1.9486                 1.4794                 1.3169
 Frc consts  --      1.7888                 1.5023                 1.4569
 IR Inten    --     27.3424                 1.7343                10.4705

                     31                     32                     33
                      A                      A                      A
 Frequencies --   1399.2416              1409.8475              1469.8246
 Red. masses --      1.2585                 1.2423                 1.0394
 Frc consts  --      1.4518                 1.4548                 1.3230
 IR Inten    --      8.0838                 3.5986                 8.2667

                     34                     35                     36
                      A                      A                      A
 Frequencies --   1473.2954              1478.3916              1483.8865
 Red. masses --      1.0404                 1.1420                 1.0468
 Frc consts  --      1.3305                 1.4705                 1.3580
 IR Inten    --      6.7019                 0.6167                 1.1106

                     37                     38                     39
                      A                      A                      A
 Frequencies --   1485.6749              1500.5517              1513.5322
 Red. masses --      1.0589                 1.0715                 1.0466
 Frc consts  --      1.3771                 1.4215                 1.4125
 IR Inten    --      8.6624                 1.4538                 5.6985

                     40                     41                     42
                      A                      A                      A
 Frequencies --   1765.8585              2334.7223              2937.3547
 Red. masses --     12.2603                11.9097                 1.0800
 Frc consts  --     22.5250                38.2493                 5.4902
 IR Inten    --    184.2224               140.1512                31.5283

                     43                     44                     45
                      A                      A                      A
 Frequencies --   2983.0624              3032.6403              3052.3804
 Red. masses --      1.0474                 1.0345                 1.0337
 Frc consts  --      5.4917                 5.6058                 5.6746
 IR Inten    --     64.9856                14.1709                12.4192

                     46                     47                     48
                      A                      A                      A
 Frequencies --   3070.2728              3096.4719              3100.2465
 Red. masses --      1.0870                 1.0996                 1.1010
 Frc consts  --      6.0370                 6.2117                 6.2347
 IR Inten    --     33.0514                 3.9867                 5.6269

                     49                     50                     51
                      A                      A                      A
 Frequencies --   3122.2784              3129.9534              3138.9081
 Red. masses --      1.1014                 1.1028                 1.1023
 Frc consts  --      6.3262                 6.3654                 6.3988
 IR Inten    --     27.0922                13.4233                18.3146

 - Thermochemistry -
 -------------------
 Temperature   298.150 Kelvin.  Pressure   1.00000 Atm.
 Atom     1 has atomic number  6 and mass  12.00000

 Molecular mass:   126.06808 amu.
 Principal axes and moments of inertia in atomic units:
                           1         2         3
     Eigenvalues --   579.891632217.304712465.88954
           X            0.99996  -0.00836   0.00368
           Y            0.00861   0.99721  -0.07410
           Z           -0.00305   0.07413   0.99724
 This molecule is an asymmetric top.
 Rotational symmetry number  1.
 Warning -- assumption of classical behavior for rotation
           may cause significant error
 Rotational temperatures (Kelvin)      0.14936     0.03906     0.03512
 Rotational constants (GHZ):           3.11220     0.81393     0.73188
 Zero-point vibrational energy     406393.5 (Joules/Mol)
                                   97.13037 (Kcal/Mol)
 Warning -- explicit consideration of  15 degrees of freedom as
           vibrations may cause significant error
 Vibrational temperatures:     38.42    58.17   115.93   176.46   200.63
          (Kelvin)            276.39   310.29   330.45   371.59   440.89
                              486.28   568.21   649.11   694.20   814.70
                             1021.68  1113.96  1258.67  1358.14  1483.85
                             1503.16  1517.01  1561.55  1623.48  1676.86
                             1693.99  1725.18  1795.96  1888.83  1971.52
                             2013.19  2028.45  2114.75  2119.74  2127.07
                             2134.98  2137.55  2158.96  2177.63  2540.67
                             3359.14  4226.19  4291.96  4363.29  4391.69
                             4417.43  4455.13  4460.56  4492.26  4503.30
                             4516.18

 Zero-point correction=                           0.154787 (Hartree/Particle)
 Thermal correction to Energy=                    0.165949
 Thermal correction to Enthalpy=                  0.166894
 Thermal correction to Gibbs Free Energy=         0.116607
 Sum of electronic and zero-point Energies=           -423.009246
 Sum of electronic and thermal Energies=              -422.998084
 Sum of electronic and thermal Enthalpies=            -422.997140
 Sum of electronic and thermal Free Energies=         -423.047426

                     E (Thermal)             CV                S
                      KCal/Mol        Cal/Mol-Kelvin    Cal/Mol-Kelvin
 Total                  104.135             37.348            105.837
 Electronic               0.000              0.000              0.000
 Translational            0.889              2.981             40.409
 Rotational               0.889              2.981             29.540
 Vibrational            102.357             31.387             35.888
 Vibration     1          0.593              1.984              6.060
 Vibration     2          0.594              1.981              5.238
 Vibration     3          0.600              1.962              3.877
 Vibration     4          0.610              1.930              3.058
 Vibration     5          0.615              1.914              2.811
 Vibration     6          0.634              1.851              2.207
 Vibration     7          0.645              1.817              1.995
 Vibration     8          0.652              1.796              1.881
 Vibration     9          0.667              1.749              1.673
 Vibration    10          0.697              1.661              1.382
 Vibration    11          0.718              1.600              1.222
 Vibration    12          0.762              1.481              0.981
 Vibration    13          0.810              1.358              0.792
 Vibration    14          0.839              1.289              0.703
 Vibration    15          0.922              1.104              0.512

 Optimization completed on the basis of negligible forces.
    -- Stationary point found.
 Normal termination of Gaussian 09 at Tue Jan 28 08:58:33 2020.
