 Gaussian 09, Revision D.01,
 Gaussian 09:  ES64L-G09RevD.01 24-Apr-2013

 -----------------------------
 # b3lyp 6-31G(2df,p) opt Freq
 -----------------------------

 -----
 titel
 -----
 Symbolic Z-matrix:
 Charge =  0 Multiplicity = 1

 SCF Done:  E(RB3LYP) =  -423.159246173     A.U. after   13 cycles
 Optimization completed.
    -- Stationary point found.
 Normal termination of Gaussian 09 at Tue Jan 28 02:56:28 2020.

 ----------------------------------------------------------------------
 #N Geom=AllCheck Guess=TCheck SCRF=Check GenChk RB3LYP/6-31G(2df,p) Fr
 eq
 ----------------------------------------------------------------------

 Structure from the checkpoint file:  "/scratch/puck/g09_ff2edb4b-56f3-44bd-b08b-434caeefcfd9/Gau-89751.chk"
 -----
 titel
 -----
 Charge =  0 Multiplicity = 1

                         Standard orientation:
 ---------------------------------------------------------------------
 Center     Atomic      Atomic             Coordinates (Angstroms)
 Number     Number       Type             X           Y           Z
 ---------------------------------------------------------------------
      1          6           0       -2.927789   -0.288242    0.105773
      2          6           0       -1.506365   -0.138614   -0.394113
      3          8           0       -1.043984    1.239840   -0.326424
      4          6           0        0.083944    0.881245    0.497731
      5          6           0        1.395550    0.858165   -0.259622
      6          6           0        2.542745    0.119412    0.405934
      7          6           0        1.658100   -0.579969   -0.591354
      8          8           0        0.649407   -1.411121   -0.053839
      9          6           0       -0.353308   -0.600941    0.535341
     10          1           0       -3.612656    0.302706   -0.510010
     11          1           0       -3.240124   -1.337232    0.058021
     12          1           0       -3.017682    0.056973    1.140816
     13          1           0       -1.398624   -0.539666   -1.409962
     14          1           0        0.107609    1.464459    1.424737
     15          1           0        1.596640    1.666987   -0.951876
     16          1           0        3.549271    0.391093    0.106101
     17          1           0        2.441143   -0.171202    1.447154
     18          1           0        2.035329   -0.927117   -1.546049
     19          1           0       -0.661543   -1.043090    1.485035
 ---------------------------------------------------------------------

 SCF Done:  E(RB3LYP) =  -423.159246173     A.U. after    1 cycles

 The electronic state is 1-A.
 Alpha  occ. eigenvalues --  -19.14605 -19.13115 -10.23692 -10.23654 -10.23492
 Alpha  occ. eigenvalues --  -10.23073 -10.19320 -10.18964 -10.17850  -1.05908
 Alpha  occ. eigenvalues --   -1.02239  -0.85264  -0.75577  -0.73269  -0.65254
 Alpha  occ. eigenvalues --   -0.60953  -0.58610  -0.55033  -0.52327  -0.49326
 Alpha  occ. eigenvalues --   -0.47239  -0.44752  -0.44299  -0.40965  -0.39394
 Alpha  occ. eigenvalues --   -0.38732  -0.37833  -0.37328  -0.36158  -0.31330
 Alpha  occ. eigenvalues --   -0.30165  -0.28711  -0.25273  -0.23322
 Alpha virt. eigenvalues --    0.07785   0.10037   0.10133   0.11111   0.11729
 Alpha virt. eigenvalues --    0.14272   0.14575   0.15637   0.15695   0.16380
 Alpha virt. eigenvalues --    0.17527   0.18249   0.19366   0.20640   0.22284

 Mulliken charges:
               1
     1  C   -0.405945
     2  C    0.133372
     3  O   -0.318334
     4  C    0.089062
     5  C   -0.099029
     6  C   -0.323113
     7  C    0.103847
     8  O   -0.271324
     9  C    0.027430
    10  H    0.129862
    11  H    0.120312
    12  H    0.118845
    13  H    0.084026
    14  H    0.081761
    15  H    0.104145
    16  H    0.116845
    17  H    0.118186
    18  H    0.102666
    19  H    0.087385
 Sum of Mulliken charges =   0.00000

 Dipole moment (field-independent basis, Debye):
    X=              0.4361    Y=             -0.0441    Z=              0.4471  Tot=              0.6261
 Quadrupole moment (field-independent basis, Debye-Ang):
   XX=            -49.3345   YY=            -58.0196   ZZ=            -50.6122
   XY=              3.9178   XZ=             -1.6382   YZ=              0.8078

  Exact polarizability:  92.619   3.062  65.139   0.168   1.314  65.693
 Approx polarizability: 113.947   1.388 104.755   1.650   1.633 100.320

                      1                      2                      3
                      A                      A                      A
 Frequencies --     59.4415               193.2664               215.1819
 Red. masses --      3.7112                 3.0323                 1.2629
 Frc consts  --      0.0077                 0.0667                 0.0345
 IR Inten    --      2.8029                 2.0453                 0.7414

                      4                      5                      6
                      A                      A                      A
 Frequencies --    259.5248               277.5836               388.0940
 Red. masses --      2.0714                 2.6914                 4.0754
 Frc consts  --      0.0822                 0.1222                 0.3617
 IR Inten    --      0.4538                 2.3236                 0.5843

                      7                      8                      9
                      A                      A                      A
 Frequencies --    411.1390               515.7901               646.2803
 Red. masses --      3.1808                 3.3275                 3.8784
 Frc consts  --      0.3168                 0.5216                 0.9544
 IR Inten    --      4.6517                 6.4879                 4.3999

                     10                     11                     12
                      A                      A                      A
 Frequencies --    719.0555               789.0756               809.6050
 Red. masses --      4.7193                 1.8498                 1.7235
 Frc consts  --      1.4376                 0.6786                 0.6656
 IR Inten    --      1.2042                10.3231                14.1040

                     13                     14                     15
                      A                      A                      A
 Frequencies --    824.7346               863.8306               883.5533
 Red. masses --      3.2436                 2.0461                 2.0294
 Frc consts  --      1.2999                 0.8996                 0.9334
 IR Inten    --      2.6854                13.5996                 4.5814

                     16                     17                     18
                      A                      A                      A
 Frequencies --    891.2351               920.8217               984.0604
 Red. masses --      2.3800                 2.2322                 2.4112
 Frc consts  --      1.1138                 1.1151                 1.3757
 IR Inten    --      4.7078                22.0531                 4.8511

                     19                     20                     21
                      A                      A                      A
 Frequencies --   1005.0641              1030.5849              1053.2452
 Red. masses --      3.1057                 2.7264                 1.5686
 Frc consts  --      1.8484                 1.7061                 1.0252
 IR Inten    --     33.8183                22.9365                28.9518

                     22                     23                     24
                      A                      A                      A
 Frequencies --   1061.1872              1075.4278              1096.1048
 Red. masses --      2.2144                 1.5803                 1.6881
 Frc consts  --      1.4692                 1.0768                 1.1950
 IR Inten    --     68.8742                18.5157                21.4159

                     25                     26                     27
                      A                      A                      A
 Frequencies --   1097.7009              1105.5003              1134.4687
 Red. masses --      1.9644                 1.5231                 2.2887
 Frc consts  --      1.3946                 1.0967                 1.7355
 IR Inten    --      4.6617                 4.5879                28.9002

                     28                     29                     30
                      A                      A                      A
 Frequencies --   1147.5026              1192.2902              1238.6402
 Red. masses --      3.3021                 1.7547                 1.6439
 Frc consts  --      2.5619                 1.4697                 1.4860
 IR Inten    --     86.1325                17.2322                 0.7037

                     31                     32                     33
                      A                      A                      A
 Frequencies --   1259.6180              1287.4903              1305.8613
 Red. masses --      1.5549                 1.4893                 1.4572
 Frc consts  --      1.4535                 1.4545                 1.4641
 IR Inten    --      2.0544                 2.3999                 2.2373

                     34                     35                     36
                      A                      A                      A
 Frequencies --   1317.5167              1362.3600              1373.3550
 Red. masses --      1.2356                 1.7207                 1.5792
 Frc consts  --      1.2637                 1.8816                 1.7549
 IR Inten    --     25.8395                 5.3413                 1.8161

                     37                     38                     39
                      A                      A                      A
 Frequencies --   1396.1605              1405.5129              1474.5643
 Red. masses --      1.4421                 1.3459                 1.2799
 Frc consts  --      1.6562                 1.5665                 1.6397
 IR Inten    --      9.3711                10.1206                 7.3515

                     40                     41                     42
                      A                      A                      A
 Frequencies --   1482.6660              1494.4240              3025.6248
 Red. masses --      1.0557                 1.0486                 1.0840
 Frc consts  --      1.3674                 1.3798                 5.8469
 IR Inten    --      4.1558                 3.5636                36.0820

                     43                     44                     45
                      A                      A                      A
 Frequencies --   3032.9258              3046.4099              3090.4667
 Red. masses --      1.0360                 1.0867                 1.0889
 Frc consts  --      5.6151                 5.9420                 6.1276
 IR Inten    --     16.4794                35.1890                33.4531

                     46                     47                     48
                      A                      A                      A
 Frequencies --   3106.3829              3111.3646              3125.3393
 Red. masses --      1.1013                 1.1017                 1.0539
 Frc consts  --      6.2612                 6.2837                 6.0653
 IR Inten    --     23.6265                23.3020                11.0121

                     49                     50                     51
                      A                      A                      A
 Frequencies --   3178.5443              3187.2325              3215.9552
 Red. masses --      1.0892                 1.0959                 1.1155
 Frc consts  --      6.4834                 6.5591                 6.7974
 IR Inten    --     14.3462                 6.7232                10.8202

 - Thermochemistry -
 -------------------
 Temperature   298.150 Kelvin.  Pressure   1.00000 Atm.
 Atom     1 has atomic number  6 and mass  12.00000

 Molecular mass:   126.06808 amu.
 Principal axes and moments of inertia in atomic units:
                           1         2         3
     Eigenvalues --   442.538221361.004041586.35195
           X            0.99968   0.02478  -0.00418
           Y           -0.02473   0.99963   0.01164
           Z            0.00446  -0.01153   0.99992
 This molecule is an asymmetric top.
 Rotational symmetry number  1.
 Warning -- assumption of classical behavior for rotation
           may cause significant error
 Rotational temperatures (Kelvin)      0.19572     0.06364     0.05460
 Rotational constants (GHZ):           4.07816     1.32604     1.13767
 Zero-point vibrational energy     419708.4 (Joules/Mol)
                                  100.31271 (Kcal/Mol)
 Warning -- explicit consideration of   8 degrees of freedom as
           vibrations may cause significant error
 Vibrational temperatures:     85.52   278.07   309.60   373.40   399.38
          (Kelvin)            558.38   591.54   742.11   929.85  1034.56
                             1135.30  1164.84  1186.61  1242.86  1271.23
                             1282.29  1324.86  1415.84  1446.06  1482.78
                             1515.38  1526.81  1547.30  1577.05  1579.34
                             1590.57  1632.25  1651.00  1715.44  1782.12
                             1812.31  1852.41  1878.84  1895.61  1960.13
                             1975.95  2008.76  2022.22  2121.57  2133.22
                             2150.14  4353.19  4363.70  4383.10  4446.49
                             4469.39  4476.55  4496.66  4573.21  4585.71
                             4627.04

 Zero-point correction=                           0.159858 (Hartree/Particle)
 Thermal correction to Energy=                    0.167502
 Thermal correction to Enthalpy=                  0.168446
 Thermal correction to Gibbs Free Energy=         0.127523
 Sum of electronic and zero-point Energies=           -422.999388
 Sum of electronic and thermal Energies=              -422.991744
 Sum of electronic and thermal Enthalpies=            -422.990800
 Sum of electronic and thermal Free Energies=         -423.031723

                     E (Thermal)             CV                S
                      KCal/Mol        Cal/Mol-Kelvin    Cal/Mol-Kelvin
 Total                  105.109             29.993             86.130
 Electronic               0.000              0.000              0.000
 Translational            0.889              2.981             40.409
 Rotational               0.889              2.981             28.348
 Vibrational            103.332             24.031             17.373
 Vibration     1          0.597              1.974              4.476
 Vibration     2          0.635              1.849              2.196
 Vibration     3          0.645              1.818              1.999
 Vibration     4          0.668              1.747              1.665
 Vibration     5          0.679              1.715              1.549
 Vibration     6          0.756              1.496              1.007
 Vibration     7          0.775              1.446              0.923
 Vibration     8          0.871              1.215              0.620

 Optimization completed.
    -- Stationary point found.
 Normal termination of Gaussian 09 at Tue Jan 28 03:51:11 2020.
