 Gaussian 09, Revision D.01,
 Gaussian 09:  ES64L-G09RevD.01 24-Apr-2013

 -----------------------------
 # b3lyp 6-31G(2df,p) opt Freq
 -----------------------------

 -----
 titel
 -----
 Symbolic Z-matrix:
 Charge =  0 Multiplicity = 1

 SCF Done:  E(RB3LYP) =  -423.168474371     A.U. after   14 cycles
 Optimization completed.
    -- Stationary point found.
 Normal termination of Gaussian 09 at Tue Jan 28 08:13:51 2020.

 ----------------------------------------------------------------------
 #N Geom=AllCheck Guess=TCheck SCRF=Check GenChk RB3LYP/6-31G(2df,p) Fr
 eq
 ----------------------------------------------------------------------

 Structure from the checkpoint file:  "/scratch/puck/g09_a33ef5fb-d711-46d1-943d-d4c9796fc43c/Gau-91947.chk"
 -----
 titel
 -----
 Charge =  0 Multiplicity = 1

                         Standard orientation:
 ---------------------------------------------------------------------
 Center     Atomic      Atomic             Coordinates (Angstroms)
 Number     Number       Type             X           Y           Z
 ---------------------------------------------------------------------
      1          6           0       -2.372402   -1.160692   -0.458557
      2          6           0       -2.090456    0.065471    0.427833
      3          6           0       -0.842444    0.842417    0.044233
      4          8           0       -0.886172    1.984356   -0.364859
      5          6           0        0.488952    0.191662    0.203984
      6          6           0        1.859141    0.884878    0.212207
      7          6           0        2.476067   -0.399041   -0.442369
      8          6           0        1.079060   -1.027810   -0.422370
      9          8           0        0.618967   -1.045808    0.923508
     10          1           0       -1.612142   -1.932710   -0.321635
     11          1           0       -3.339233   -1.596940   -0.192065
     12          1           0       -2.411027   -0.886432   -1.517357
     13          1           0       -2.919983    0.775386    0.375288
     14          1           0       -1.981607   -0.264238    1.467719
     15          1           0        1.877030    1.751853   -0.448314
     16          1           0        2.224664    1.162798    1.202646
     17          1           0        2.850782   -0.218944   -1.452031
     18          1           0        3.226849   -0.941626    0.136255
     19          1           0        0.634793   -1.738837   -1.109469
 ---------------------------------------------------------------------

 SCF Done:  E(RB3LYP) =  -423.168474371     A.U. after    1 cycles

 The electronic state is 1-A.
 Alpha  occ. eigenvalues --  -19.16795 -19.13032 -10.27129 -10.25452 -10.24830
 Alpha  occ. eigenvalues --  -10.19927 -10.19517 -10.19132 -10.18721  -1.09459
 Alpha  occ. eigenvalues --   -1.03947  -0.81130  -0.78289  -0.69988  -0.65847
 Alpha  occ. eigenvalues --   -0.63921  -0.58611  -0.55132  -0.49059  -0.47298
 Alpha  occ. eigenvalues --   -0.46288  -0.44571  -0.44032  -0.43026  -0.40341
 Alpha  occ. eigenvalues --   -0.38238  -0.37294  -0.36684  -0.35397  -0.35127
 Alpha  occ. eigenvalues --   -0.33758  -0.30713  -0.26700  -0.24643
 Alpha virt. eigenvalues --   -0.02932   0.08430   0.09986   0.11365   0.11819
 Alpha virt. eigenvalues --    0.12530   0.13625   0.14497   0.15006   0.15477
 Alpha virt. eigenvalues --    0.16861   0.17816   0.18902   0.20337   0.21768

 Mulliken charges:
               1
     1  C   -0.395631
     2  C   -0.274880
     3  C    0.263997
     4  O   -0.313634
     5  C    0.337858
     6  C   -0.290803
     7  C   -0.245424
     8  C   -0.034760
     9  O   -0.279304
    10  H    0.138745
    11  H    0.125319
    12  H    0.125487
    13  H    0.119754
    14  H    0.127441
    15  H    0.135925
    16  H    0.114035
    17  H    0.115999
    18  H    0.118082
    19  H    0.111792
 Sum of Mulliken charges =   0.00000

 Dipole moment (field-independent basis, Debye):
    X=              0.6451    Y=             -1.8146    Z=             -0.6789  Tot=              2.0420
 Quadrupole moment (field-independent basis, Debye-Ang):
   XX=            -48.5764   YY=            -58.8633   ZZ=            -52.9573
   XY=              2.9098   XZ=             -2.1507   YZ=              3.7812

  Exact polarizability:  89.667  -1.291  78.171  -2.083   1.318  61.702
 Approx polarizability: 111.188  -7.321 129.032  -3.671  -4.421  99.431

                      1                      2                      3
                      A                      A                      A
 Frequencies --     61.1593                74.3126               155.9316
 Red. masses --      2.7567                 3.3034                 2.7568
 Frc consts  --      0.0061                 0.0107                 0.0395
 IR Inten    --      0.9222                 2.9596                 2.0676

                      4                      5                      6
                      A                      A                      A
 Frequencies --    173.2712               233.5660               255.5458
 Red. masses --      3.5345                 1.6633                 1.6750
 Frc consts  --      0.0625                 0.0535                 0.0644
 IR Inten    --      5.8375                 0.5126                 1.7889

                      7                      8                      9
                      A                      A                      A
 Frequencies --    315.1094               360.4807               491.6549
 Red. masses --      2.1418                 3.2173                 3.6552
 Frc consts  --      0.1253                 0.2463                 0.5206
 IR Inten    --      0.7254                 0.6806                24.1766

                     10                     11                     12
                      A                      A                      A
 Frequencies --    513.4607               586.9379               703.4700
 Red. masses --      5.5706                 3.5909                 3.1071
 Frc consts  --      0.8653                 0.7288                 0.9059
 IR Inten    --      1.9576                 6.4800                 3.7027

                     13                     14                     15
                      A                      A                      A
 Frequencies --    743.1938               773.3331               808.5882
 Red. masses --      4.7701                 1.3574                 1.3961
 Frc consts  --      1.5523                 0.4783                 0.5378
 IR Inten    --      0.5664                 0.5761                 6.6393

                     16                     17                     18
                      A                      A                      A
 Frequencies --    867.4460               880.8091               918.1630
 Red. masses --      3.0661                 2.9469                 2.1268
 Frc consts  --      1.3593                 1.3470                 1.0564
 IR Inten    --     23.2100                11.8838                12.8215

                     19                     20                     21
                      A                      A                      A
 Frequencies --    935.9405               964.0513              1009.1844
 Red. masses --      2.3913                 2.4758                 1.6564
 Frc consts  --      1.2342                 1.3557                 0.9939
 IR Inten    --      0.9241                22.4317                 4.4466

                     22                     23                     24
                      A                      A                      A
 Frequencies --   1027.7849              1052.3777              1086.9860
 Red. masses --      2.5605                 2.0458                 1.8305
 Frc consts  --      1.5936                 1.3349                 1.2743
 IR Inten    --     16.6010                 9.7662                 3.3371

                     25                     26                     27
                      A                      A                      A
 Frequencies --   1120.5383              1148.7776              1207.0736
 Red. masses --      1.6317                 1.7573                 1.6194
 Frc consts  --      1.2071                 1.3664                 1.3902
 IR Inten    --      9.8554                24.8445                 7.4436

                     28                     29                     30
                      A                      A                      A
 Frequencies --   1213.1514              1227.1347              1269.8229
 Red. masses --      1.3567                 1.4310                 1.5848
 Frc consts  --      1.1764                 1.2696                 1.5056
 IR Inten    --      7.5793                15.6459                 4.6037

                     31                     32                     33
                      A                      A                      A
 Frequencies --   1272.2394              1319.2916              1342.0994
 Red. masses --      1.3312                 1.7528                 1.6216
 Frc consts  --      1.2695                 1.7975                 1.7209
 IR Inten    --      2.6943                14.0027                 3.1528

                     34                     35                     36
                      A                      A                      A
 Frequencies --   1403.2194              1416.9444              1463.7784
 Red. masses --      1.3260                 3.6134                 1.0887
 Frc consts  --      1.5383                 4.2744                 1.3744
 IR Inten    --      4.7161                55.7549                 0.9209

                     37                     38                     39
                      A                      A                      A
 Frequencies --   1467.8014              1484.8155              1500.4760
 Red. masses --      1.0857                 1.1586                 1.0470
 Frc consts  --      1.3782                 1.5049                 1.3888
 IR Inten    --      4.7537                 2.1442                 5.5841

                     40                     41                     42
                      A                      A                      A
 Frequencies --   1512.4174              1779.5516              3043.0564
 Red. masses --      1.0540                11.7432                 1.0563
 Frc consts  --      1.4205                21.9107                 5.7633
 IR Inten    --      8.8125               155.8878                 2.9449

                     43                     44                     45
                      A                      A                      A
 Frequencies --   3046.6536              3072.9310              3084.9096
 Red. masses --      1.0400                 1.0574                 1.0606
 Frc consts  --      5.6875                 5.8828                 5.9467
 IR Inten    --     26.6596                29.3358                22.5570

                     46                     47                     48
                      A                      A                      A
 Frequencies --   3102.5379              3112.3005              3127.8552
 Red. masses --      1.1001                 1.1024                 1.1087
 Frc consts  --      6.2391                 6.2913                 6.3906
 IR Inten    --      6.0319                20.4599                 6.7027

                     49                     50                     51
                      A                      A                      A
 Frequencies --   3135.2571              3152.5669              3186.9842
 Red. masses --      1.1013                 1.1067                 1.0935
 Frc consts  --      6.3782                 6.4805                 6.5439
 IR Inten    --     26.5802                13.2487                15.5597

 - Thermochemistry -
 -------------------
 Temperature   298.150 Kelvin.  Pressure   1.00000 Atm.
 Atom     1 has atomic number  6 and mass  12.00000

 Molecular mass:   126.06808 amu.
 Principal axes and moments of inertia in atomic units:
                           1         2         3
     Eigenvalues --   646.649841339.445061731.76223
           X            0.99867   0.05148  -0.00421
           Y           -0.05124   0.99771   0.04422
           Z            0.00648  -0.04395   0.99901
 This molecule is an asymmetric top.
 Rotational symmetry number  1.
 Warning -- assumption of classical behavior for rotation
           may cause significant error
 Rotational temperatures (Kelvin)      0.13394     0.06466     0.05001
 Rotational constants (GHZ):           2.79091     1.34738     1.04214
 Zero-point vibrational energy     413949.4 (Joules/Mol)
                                   98.93629 (Kcal/Mol)
 Warning -- explicit consideration of  11 degrees of freedom as
           vibrations may cause significant error
 Vibrational temperatures:     87.99   106.92   224.35   249.30   336.05
          (Kelvin)            367.67   453.37   518.65   707.38   738.75
                              844.47  1012.14  1069.29  1112.65  1163.38
                             1248.06  1267.29  1321.03  1346.61  1387.05
                             1451.99  1478.75  1514.13  1563.93  1612.20
                             1652.83  1736.71  1745.45  1765.57  1826.99
                             1830.47  1898.16  1930.98  2018.92  2038.66
                             2106.05  2111.84  2136.32  2158.85  2176.03
                             2560.37  4378.27  4383.45  4421.26  4438.49
                             4463.85  4477.90  4500.28  4510.93  4535.84
                             4585.35

 Zero-point correction=                           0.157665 (Hartree/Particle)
 Thermal correction to Energy=                    0.166615
 Thermal correction to Enthalpy=                  0.167559
 Thermal correction to Gibbs Free Energy=         0.123446
 Sum of electronic and zero-point Energies=           -423.010809
 Sum of electronic and thermal Energies=              -423.001859
 Sum of electronic and thermal Enthalpies=            -423.000915
 Sum of electronic and thermal Free Energies=         -423.045029

                     E (Thermal)             CV                S
                      KCal/Mol        Cal/Mol-Kelvin    Cal/Mol-Kelvin
 Total                  104.552             32.924             92.845
 Electronic               0.000              0.000              0.000
 Translational            0.889              2.981             40.409
 Rotational               0.889              2.981             28.796
 Vibrational            102.775             26.962             23.640
 Vibration     1          0.597              1.973              4.419
 Vibration     2          0.599              1.966              4.036
 Vibration     3          0.620              1.896              2.599
 Vibration     4          0.627              1.875              2.400
 Vibration     5          0.654              1.790              1.851
 Vibration     6          0.666              1.753              1.692
 Vibration     7          0.702              1.645              1.335
 Vibration     8          0.735              1.554              1.120
 Vibration     9          0.847              1.269              0.679
 Vibration    10          0.869              1.220              0.625
 Vibration    11          0.944              1.060              0.473

 Optimization completed.
    -- Stationary point found.
 Normal termination of Gaussian 09 at Tue Jan 28 08:55:52 2020.
