 Gaussian 09, Revision D.01,
 Gaussian 09:  ES64L-G09RevD.01 24-Apr-2013

 -----------------------------
 # b3lyp 6-31G(2df,p) opt Freq
 -----------------------------

 -----
 titel
 -----
 Symbolic Z-matrix:
 Charge =  0 Multiplicity = 1

 SCF Done:  E(RB3LYP) =  -423.134797905     A.U. after   14 cycles
 Optimization completed.
    -- Stationary point found.
 Normal termination of Gaussian 09 at Tue Jan 28 09:15:02 2020.

 ----------------------------------------------------------------------
 #N Geom=AllCheck Guess=TCheck SCRF=Check GenChk RB3LYP/6-31G(2df,p) Fr
 eq
 ----------------------------------------------------------------------

 Structure from the checkpoint file:  "/scratch/puck/g09_34358fd1-ae9b-4de9-861c-c84ecc72b10f/Gau-130457.chk"
 -----
 titel
 -----
 Charge =  0 Multiplicity = 1

                         Standard orientation:
 ---------------------------------------------------------------------
 Center     Atomic      Atomic             Coordinates (Angstroms)
 Number     Number       Type             X           Y           Z
 ---------------------------------------------------------------------
      1          6           0       -2.510292   -0.346405    0.173052
      2          8           0       -1.385392   -1.056629   -0.320413
      3          6           0       -0.145991   -0.502105   -0.061897
      4          6           0        0.367386   -0.003275    1.339530
      5          6           0        1.502882    0.594015    0.443121
      6          6           0        2.101639   -0.664435   -0.174842
      7          6           0        1.022241   -1.379454   -0.507202
      8          6           0        0.372735    0.884232   -0.629711
      9          8           0       -0.494303    1.957235   -0.348923
     10          1           0       -2.588928    0.651681   -0.268650
     11          1           0       -3.388850   -0.937307   -0.096477
     12          1           0       -2.475742   -0.245848    1.266477
     13          1           0       -0.261170    0.768925    1.786318
     14          1           0        0.652919   -0.767748    2.064930
     15          1           0        2.158859    1.385757    0.801050
     16          1           0        3.149359   -0.872947   -0.338542
     17          1           0        0.915032   -2.330934   -1.007344
     18          1           0        0.697423    0.880346   -1.677772
     19          1           0       -0.084941    2.767791   -0.667618
 ---------------------------------------------------------------------

 SCF Done:  E(RB3LYP) =  -423.134797905     A.U. after    1 cycles

 The electronic state is 1-A.
 Alpha  occ. eigenvalues --  -19.14591 -19.13798 -10.23753 -10.23280 -10.21351
 Alpha  occ. eigenvalues --  -10.19168 -10.17805 -10.17643 -10.17440  -1.03808
 Alpha  occ. eigenvalues --   -1.02329  -0.88286  -0.71821  -0.70452  -0.65280
 Alpha  occ. eigenvalues --   -0.63632  -0.55213  -0.52573  -0.51778  -0.50243
 Alpha  occ. eigenvalues --   -0.46335  -0.44724  -0.43283  -0.40972  -0.39926
 Alpha  occ. eigenvalues --   -0.37049  -0.36058  -0.34508  -0.34279  -0.33419
 Alpha  occ. eigenvalues --   -0.29287  -0.26939  -0.24252  -0.22558
 Alpha virt. eigenvalues --    0.01546   0.07135   0.10886   0.11929   0.14304
 Alpha virt. eigenvalues --    0.14865   0.15869   0.16248   0.17072   0.17948
 Alpha virt. eigenvalues --    0.18022   0.18492   0.19284   0.21236   0.22743

 Mulliken charges:
               1
     1  C   -0.262107
     2  O   -0.318532
     3  C    0.395105
     4  C   -0.286901
     5  C   -0.133130
     6  C   -0.104727
     7  C   -0.128834
     8  C    0.088970
     9  O   -0.440144
    10  H    0.135151
    11  H    0.119580
    12  H    0.109059
    13  H    0.109697
    14  H    0.093573
    15  H    0.062086
    16  H    0.101616
    17  H    0.106601
    18  H    0.066530
    19  H    0.286408
 Sum of Mulliken charges =   0.00000

 Dipole moment (field-independent basis, Debye):
    X=              0.9205    Y=              1.6106    Z=             -0.1056  Tot=              1.8582
 Quadrupole moment (field-independent basis, Debye-Ang):
   XX=            -50.3831   YY=            -49.8727   ZZ=            -53.2449
   XY=              1.0380   XZ=             -1.5637   YZ=             -1.6898

  Exact polarizability:  87.678   0.340  75.637  -0.663   2.344  64.447
 Approx polarizability: 125.021   5.439 116.140   2.202   6.072  98.867

                      1                      2                      3
                      A                      A                      A
 Frequencies --     84.0393               192.2939               207.9464
 Red. masses --      2.2265                 1.1842                 3.8475
 Frc consts  --      0.0093                 0.0258                 0.0980
 IR Inten    --      1.8877                 3.2504                 2.1786

                      4                      5                      6
                      A                      A                      A
 Frequencies --    235.2982               255.8912               311.4296
 Red. masses --      1.1909                 3.0813                 3.8471
 Frc consts  --      0.0388                 0.1189                 0.2198
 IR Inten    --     83.8188                14.4564                 7.4613

                      7                      8                      9
                      A                      A                      A
 Frequencies --    403.9540               423.5050               456.5208
 Red. masses --      3.2065                 4.2735                 2.1529
 Frc consts  --      0.3083                 0.4516                 0.2644
 IR Inten    --     11.2841                 2.7132                 3.9263

                     10                     11                     12
                      A                      A                      A
 Frequencies --    538.4081               585.6174               632.5914
 Red. masses --      2.9952                 3.6619                 4.2843
 Frc consts  --      0.5116                 0.7399                 1.0101
 IR Inten    --      0.2188                 6.0365                15.0046

                     13                     14                     15
                      A                      A                      A
 Frequencies --    697.3347               703.2409               852.3395
 Red. masses --      1.4595                 3.7776                 3.1252
 Frc consts  --      0.4182                 1.1007                 1.3377
 IR Inten    --     33.8651                 4.7883                 0.5736

                     16                     17                     18
                      A                      A                      A
 Frequencies --    859.9432               908.8309               931.6880
 Red. masses --      3.1182                 1.3420                 1.9976
 Frc consts  --      1.3586                 0.6531                 1.0216
 IR Inten    --      3.4389                 1.0637                 1.7723

                     19                     20                     21
                      A                      A                      A
 Frequencies --    938.7354               957.3613              1021.4329
 Red. masses --      3.1026                 2.5765                 2.2776
 Frc consts  --      1.6109                 1.3913                 1.4000
 IR Inten    --     11.0249                 0.9802                10.2000

                     22                     23                     24
                      A                      A                      A
 Frequencies --   1032.5028              1073.3884              1087.9761
 Red. masses --      1.6164                 1.8810                 2.4753
 Frc consts  --      1.0153                 1.2769                 1.7263
 IR Inten    --     10.5884                29.2541                31.9582

                     25                     26                     27
                      A                      A                      A
 Frequencies --   1103.9850              1136.1202              1158.2959
 Red. masses --      2.0848                 1.7295                 1.6562
 Frc consts  --      1.4970                 1.3153                 1.3092
 IR Inten    --     42.2266                21.2591                26.0446

                     28                     29                     30
                      A                      A                      A
 Frequencies --   1184.5278              1189.5842              1209.3855
 Red. masses --      1.2783                 1.4097                 1.5956
 Frc consts  --      1.0568                 1.1754                 1.3750
 IR Inten    --      1.8711                57.5663                11.8471

                     31                     32                     33
                      A                      A                      A
 Frequencies --   1236.4077              1252.0029              1276.9380
 Red. masses --      1.5368                 1.5407                 1.7102
 Frc consts  --      1.3842                 1.4229                 1.6430
 IR Inten    --      0.6842                 3.0780               137.5172

                     34                     35                     36
                      A                      A                      A
 Frequencies --   1285.7625              1346.7078              1409.7109
 Red. masses --      2.0455                 1.9776                 1.4090
 Frc consts  --      1.9924                 2.1132                 1.6498
 IR Inten    --     54.8172                90.8177                19.0175

                     37                     38                     39
                      A                      A                      A
 Frequencies --   1484.4842              1489.8568              1490.7595
 Red. masses --      1.1297                 1.1841                 1.0738
 Frc consts  --      1.4668                 1.5485                 1.4060
 IR Inten    --      4.1079                14.4005                 2.7122

                     40                     41                     42
                      A                      A                      A
 Frequencies --   1513.6269              1628.2929              3009.4432
 Red. masses --      1.0542                 5.9387                 1.0397
 Frc consts  --      1.4230                 9.2770                 5.5479
 IR Inten    --      9.1753                 2.0224                44.7686

                     43                     44                     45
                      A                      A                      A
 Frequencies --   3030.1459              3072.2795              3085.2237
 Red. masses --      1.0866                 1.0559                 1.0925
 Frc consts  --      5.8780                 5.8719                 6.1270
 IR Inten    --     61.5987                26.8976                42.1969

                     46                     47                     48
                      A                      A                      A
 Frequencies --   3123.7666              3131.7430              3143.7771
 Red. masses --      1.1046                 1.0908                 1.1099
 Frc consts  --      6.3507                 6.3033                 6.4628
 IR Inten    --     24.1733                32.1471                22.9399

                     49                     50                     51
                      A                      A                      A
 Frequencies --   3221.7283              3250.3503              3815.6823
 Red. masses --      1.0871                 1.1096                 1.0663
 Frc consts  --      6.6482                 6.9069                 9.1470
 IR Inten    --      5.2692                 7.4678                29.3300

 - Thermochemistry -
 -------------------
 Temperature   298.150 Kelvin.  Pressure   1.00000 Atm.
 Atom     1 has atomic number  6 and mass  12.00000

 Molecular mass:   126.06808 amu.
 Principal axes and moments of inertia in atomic units:
                           1         2         3
     Eigenvalues --   695.978311063.440411400.04931
           X            0.99991  -0.00126  -0.01318
           Y            0.00123   1.00000  -0.00168
           Z            0.01318   0.00167   0.99991
 This molecule is an asymmetric top.
 Rotational symmetry number  1.
 Warning -- assumption of classical behavior for rotation
           may cause significant error
 Rotational temperatures (Kelvin)      0.12445     0.08145     0.06186
 Rotational constants (GHZ):           2.59310     1.69708     1.28906
 Zero-point vibrational energy     416736.2 (Joules/Mol)
                                   99.60235 (Kcal/Mol)
 Warning -- explicit consideration of  11 degrees of freedom as
           vibrations may cause significant error
 Vibrational temperatures:    120.91   276.67   299.19   338.54   368.17
          (Kelvin)            448.08   581.20   609.33   656.83   774.65
                              842.57   910.16  1003.31  1011.81  1226.32
                             1237.26  1307.60  1340.49  1350.63  1377.43
                             1469.61  1485.54  1544.36  1565.35  1588.39
                             1634.62  1666.53  1704.27  1711.54  1740.03
                             1778.91  1801.35  1837.23  1849.92  1937.61
                             2028.26  2135.84  2143.57  2144.87  2177.77
                             2342.75  4329.91  4359.70  4420.32  4438.94
                             4494.40  4505.87  4523.19  4635.34  4676.52
                             5489.91

 Zero-point correction=                           0.158726 (Hartree/Particle)
 Thermal correction to Energy=                    0.167069
 Thermal correction to Enthalpy=                  0.168013
 Thermal correction to Gibbs Free Energy=         0.126165
 Sum of electronic and zero-point Energies=           -422.976071
 Sum of electronic and thermal Energies=              -422.967729
 Sum of electronic and thermal Enthalpies=            -422.966785
 Sum of electronic and thermal Free Energies=         -423.008633

                     E (Thermal)             CV                S
                      KCal/Mol        Cal/Mol-Kelvin    Cal/Mol-Kelvin
 Total                  104.837             32.747             88.076
 Electronic               0.000              0.000              0.000
 Translational            0.889              2.981             40.409
 Rotational               0.889              2.981             28.429
 Vibrational            103.060             26.785             19.239
 Vibration     1          0.601              1.960              3.794
 Vibration     2          0.634              1.851              2.206
 Vibration     3          0.641              1.829              2.062
 Vibration     4          0.655              1.787              1.838
 Vibration     5          0.666              1.753              1.690
 Vibration     6          0.700              1.652              1.355
 Vibration     7          0.769              1.462              0.948
 Vibration     8          0.786              1.419              0.880
 Vibration     9          0.815              1.346              0.776
 Vibration    10          0.893              1.165              0.569
 Vibration    11          0.943              1.062              0.475

 Optimization completed.
    -- Stationary point found.
 Normal termination of Gaussian 09 at Tue Jan 28 09:57:17 2020.
