 Gaussian 09, Revision D.01,
 Gaussian 09:  ES64L-G09RevD.01 24-Apr-2013

 -----------------------------
 # b3lyp 6-31G(2df,p) opt Freq
 -----------------------------

 -----
 titel
 -----
 Symbolic Z-matrix:
 Charge =  0 Multiplicity = 1

 SCF Done:  E(RB3LYP) =  -423.082541151     A.U. after   14 cycles
 Optimization completed.
    -- Stationary point found.
 Normal termination of Gaussian 09 at Mon Jan 27 16:21:36 2020.

 ----------------------------------------------------------------------
 #N Geom=AllCheck Guess=TCheck SCRF=Check GenChk RB3LYP/6-31G(2df,p) Fr
 eq
 ----------------------------------------------------------------------

 Structure from the checkpoint file:  "/scratch/puck/g09_cd5005b5-59c9-48bb-8ff9-0abb863b7fda/Gau-83635.chk"
 -----
 titel
 -----
 Charge =  0 Multiplicity = 1

                         Standard orientation:
 ---------------------------------------------------------------------
 Center     Atomic      Atomic             Coordinates (Angstroms)
 Number     Number       Type             X           Y           Z
 ---------------------------------------------------------------------
      1          6           0        0.281207    2.014060   -0.038238
      2          6           0        0.131346    0.497025   -0.144428
      3          6           0       -1.300002    0.180630   -0.522998
      4          6           0       -2.382472    0.142975    0.471872
      5          8           0       -1.917299   -1.054372   -0.152551
      6          6           0        1.327496   -0.256849   -0.829371
      7          6           0        0.970434   -1.560827   -0.082351
      8          6           0        0.907108   -0.371648    0.905587
      9          8           0        2.179967    0.119367    0.323283
     10          1           0       -0.359051    2.414490    0.755090
     11          1           0        1.316544    2.277925    0.175604
     12          1           0       -0.019534    2.499048   -0.974222
     13          1           0       -1.570133    0.513048   -1.528093
     14          1           0       -2.139978    0.238206    1.529543
     15          1           0       -3.388452    0.455206    0.196270
     16          1           0        1.746350   -0.113427   -1.827028
     17          1           0        0.051319   -2.087265   -0.326431
     18          1           0        1.825532   -2.217407    0.079317
     19          1           0        0.825350   -0.371981    1.993656
 ---------------------------------------------------------------------

 SCF Done:  E(RB3LYP) =  -423.082541151     A.U. after    1 cycles

 The electronic state is 1-A.
 Alpha  occ. eigenvalues --  -19.15808 -19.13114 -10.24793 -10.24673 -10.24429
 Alpha  occ. eigenvalues --  -10.23969 -10.21002 -10.18433 -10.17589  -1.07819
 Alpha  occ. eigenvalues --   -1.05442  -0.80468  -0.74464  -0.67489  -0.65251
 Alpha  occ. eigenvalues --   -0.64548  -0.61687  -0.53106  -0.51944  -0.50274
 Alpha  occ. eigenvalues --   -0.47044  -0.45088  -0.42127  -0.41402  -0.39462
 Alpha  occ. eigenvalues --   -0.38845  -0.37854  -0.34600  -0.33217  -0.32801
 Alpha  occ. eigenvalues --   -0.31662  -0.29412  -0.27146  -0.23882
 Alpha virt. eigenvalues --    0.08370   0.08800   0.09178   0.10650   0.11647
 Alpha virt. eigenvalues --    0.12691   0.13084   0.14198   0.15660   0.16212
 Alpha virt. eigenvalues --    0.16383   0.17954   0.18621   0.19048   0.20039

 Mulliken charges:
               1
     1  C   -0.470004
     2  C    0.316604
     3  C   -0.010381
     4  C   -0.174909
     5  O   -0.235468
     6  C   -0.005713
     7  C   -0.233840
     8  C    0.002324
     9  O   -0.313890
    10  H    0.114373
    11  H    0.146928
    12  H    0.113229
    13  H    0.096742
    14  H    0.115911
    15  H    0.117686
    16  H    0.089780
    17  H    0.135428
    18  H    0.104063
    19  H    0.091137
 Sum of Mulliken charges =   0.00000

 Dipole moment (field-independent basis, Debye):
    X=             -1.4921    Y=              1.0361    Z=             -0.2275  Tot=              1.8307
 Quadrupole moment (field-independent basis, Debye-Ang):
   XX=            -57.4958   YY=            -54.8687   ZZ=            -49.4739
   XY=             -4.5122   XZ=             -2.4704   YZ=             -0.7009

  Exact polarizability:  81.558  -3.998  73.800  -3.451  -0.872  69.448
 Approx polarizability: 114.740  -0.766 108.032  -5.037  -0.295 111.149

                      1                      2                      3
                      A                      A                      A
 Frequencies --     63.6215               158.8036               210.4520
 Red. masses --      3.3519                 3.0766                 1.1052
 Frc consts  --      0.0080                 0.0457                 0.0288
 IR Inten    --      4.2599                 1.0791                 0.0623

                      4                      5                      6
                      A                      A                      A
 Frequencies --    228.4043               278.7283               339.4764
 Red. masses --      4.2991                 2.6360                 2.9094
 Frc consts  --      0.1321                 0.1207                 0.1975
 IR Inten    --      5.2173                 0.2791                 2.9017

                      7                      8                      9
                      A                      A                      A
 Frequencies --    409.2671               441.2077               566.8880
 Red. masses --      4.1093                 3.1165                 2.8136
 Frc consts  --      0.4055                 0.3574                 0.5327
 IR Inten    --      1.0686                 1.2421                 7.3082

                     10                     11                     12
                      A                      A                      A
 Frequencies --    613.5206               675.3371               737.6931
 Red. masses --      2.9688                 3.5509                 4.7274
 Frc consts  --      0.6584                 0.9542                 1.5157
 IR Inten    --      7.7884                 5.2570                 7.8541

                     13                     14                     15
                      A                      A                      A
 Frequencies --    810.4163               847.6523               870.0844
 Red. masses --      2.7784                 2.8102                 2.5259
 Frc consts  --      1.0751                 1.1897                 1.1267
 IR Inten    --      2.5419                 4.8238                 6.0366

                     16                     17                     18
                      A                      A                      A
 Frequencies --    881.5311               892.9793               920.4214
 Red. masses --      3.2873                 2.6131                 2.7351
 Frc consts  --      1.5051                 1.2277                 1.3652
 IR Inten    --     48.5621                10.8733                11.0550

                     19                     20                     21
                      A                      A                      A
 Frequencies --    955.9218              1009.3057              1027.7814
 Red. masses --      2.6395                 1.2937                 1.2687
 Frc consts  --      1.4211                 0.7765                 0.7896
 IR Inten    --     31.0345                 3.1818                 0.3255

                     22                     23                     24
                      A                      A                      A
 Frequencies --   1035.6389              1090.1164              1108.0945
 Red. masses --      1.5277                 1.3267                 1.6691
 Frc consts  --      0.9654                 0.9289                 1.2075
 IR Inten    --      2.1918                 3.2717                 5.6153

                     25                     26                     27
                      A                      A                      A
 Frequencies --   1118.7333              1150.4106              1157.6864
 Red. masses --      2.1509                 1.6198                 1.5724
 Frc consts  --      1.5861                 1.2630                 1.2417
 IR Inten    --      3.1032                 4.9100                 1.2027

                     28                     29                     30
                      A                      A                      A
 Frequencies --   1172.3065              1173.4259              1186.4107
 Red. masses --      1.3936                 1.2918                 2.9132
 Frc consts  --      1.1285                 1.0480                 2.4160
 IR Inten    --      0.6578                 0.7589                 1.1391

                     31                     32                     33
                      A                      A                      A
 Frequencies --   1210.0203              1235.1304              1274.5393
 Red. masses --      1.4794                 2.1011                 1.7472
 Frc consts  --      1.2762                 1.8885                 1.6723
 IR Inten    --     11.5500                14.9873                 3.9173

                     34                     35                     36
                      A                      A                      A
 Frequencies --   1281.9619              1326.9029              1394.8515
 Red. masses --      1.7763                 2.0752                 1.2781
 Frc consts  --      1.7199                 2.1527                 1.4652
 IR Inten    --      4.6241                 2.8538                 5.1045

                     37                     38                     39
                      A                      A                      A
 Frequencies --   1426.3713              1487.4573              1494.1958
 Red. masses --      1.8142                 1.0881                 1.1260
 Frc consts  --      2.1747                 1.4184                 1.4811
 IR Inten    --     10.5298                 4.3208                 5.8550

                     40                     41                     42
                      A                      A                      A
 Frequencies --   1506.4284              1528.4899              3033.7235
 Red. masses --      1.0486                 1.3074                 1.0398
 Frc consts  --      1.4021                 1.7996                 5.6383
 IR Inten    --      6.1896                 2.6894                26.7742

                     43                     44                     45
                      A                      A                      A
 Frequencies --   3079.5353              3085.5921              3088.9893
 Red. masses --      1.0789                 1.0583                 1.0989
 Frc consts  --      6.0283                 5.9367                 6.1779
 IR Inten    --     15.9549                24.2466                25.9991

                     46                     47                     48
                      A                      A                      A
 Frequencies --   3095.2771              3101.5074              3112.1501
 Red. masses --      1.0638                 1.0887                 1.0884
 Frc consts  --      6.0049                 6.1705                 6.2109
 IR Inten    --     21.4240                94.2094                10.6037

                     49                     50                     51
                      A                      A                      A
 Frequencies --   3153.1126              3171.7836              3189.2213
 Red. masses --      1.0969                 1.1196                 1.1101
 Frc consts  --      6.4252                 6.6365                 6.6525
 IR Inten    --      5.0376                26.1854                 7.2267

 - Thermochemistry -
 -------------------
 Temperature   298.150 Kelvin.  Pressure   1.00000 Atm.
 Atom     1 has atomic number  6 and mass  12.00000

 Molecular mass:   126.06808 amu.
 Principal axes and moments of inertia in atomic units:
                           1         2         3
     Eigenvalues --   604.668131195.390721512.93439
           X            0.99939  -0.03294  -0.01149
           Y            0.03287   0.99944  -0.00562
           Z            0.01166   0.00524   0.99992
 This molecule is an asymmetric top.
 Rotational symmetry number  1.
 Warning -- assumption of classical behavior for rotation
           may cause significant error
 Rotational temperatures (Kelvin)      0.14324     0.07246     0.05725
 Rotational constants (GHZ):           2.98468     1.50975     1.19287
 Zero-point vibrational energy     415161.3 (Joules/Mol)
                                   99.22594 (Kcal/Mol)
 Warning -- explicit consideration of  10 degrees of freedom as
           vibrations may cause significant error
 Vibrational temperatures:     91.54   228.48   302.79   328.62   401.03
          (Kelvin)            488.43   588.84   634.80   815.62   882.72
                              971.66  1061.37  1166.01  1219.58  1251.86
                             1268.33  1284.80  1324.28  1375.36  1452.16
                             1478.75  1490.05  1568.43  1594.30  1609.61
                             1655.18  1665.65  1686.69  1688.30  1706.98
                             1740.95  1777.07  1833.78  1844.45  1909.11
                             2006.88  2052.23  2140.12  2149.81  2167.41
                             2199.15  4364.85  4430.76  4439.47  4444.36
                             4453.41  4462.37  4477.68  4536.62  4563.48
                             4588.57

 Zero-point correction=                           0.158127 (Hartree/Particle)
 Thermal correction to Energy=                    0.166178
 Thermal correction to Enthalpy=                  0.167122
 Thermal correction to Gibbs Free Energy=         0.125429
 Sum of electronic and zero-point Energies=           -422.924415
 Sum of electronic and thermal Energies=              -422.916363
 Sum of electronic and thermal Enthalpies=            -422.915419
 Sum of electronic and thermal Free Energies=         -422.957112

                     E (Thermal)             CV                S
                      KCal/Mol        Cal/Mol-Kelvin    Cal/Mol-Kelvin
 Total                  104.278             31.369             87.751
 Electronic               0.000              0.000              0.000
 Translational            0.889              2.981             40.409
 Rotational               0.889              2.981             28.482
 Vibrational            102.501             25.408             18.860
 Vibration     1          0.597              1.972              4.342
 Vibration     2          0.621              1.893              2.564
 Vibration     3          0.643              1.825              2.040
 Vibration     4          0.651              1.798              1.891
 Vibration     5          0.679              1.713              1.541
 Vibration     6          0.719              1.597              1.215
 Vibration     7          0.774              1.450              0.929
 Vibration     8          0.801              1.380              0.823
 Vibration     9          0.923              1.103              0.510
 Vibration    10          0.973              1.003              0.427

 Optimization completed.
    -- Stationary point found.
 Normal termination of Gaussian 09 at Mon Jan 27 17:06:35 2020.
