 Gaussian 09, Revision D.01,
 Gaussian 09:  ES64L-G09RevD.01 24-Apr-2013

 -----------------------------
 # b3lyp 6-31G(2df,p) opt Freq
 -----------------------------

 -----
 titel
 -----
 Symbolic Z-matrix:
 Charge =  0 Multiplicity = 1

 SCF Done:  E(RB3LYP) =  -423.158973314     A.U. after   14 cycles
 Optimization completed.
    -- Stationary point found.
 Normal termination of Gaussian 09 at Mon Jan 27 13:57:18 2020.

 ----------------------------------------------------------------------
 #N Geom=AllCheck Guess=TCheck SCRF=Check GenChk RB3LYP/6-31G(2df,p) Fr
 eq
 ----------------------------------------------------------------------

 Structure from the checkpoint file:  "/scratch/puck/g09_a051a0b2-d89a-4f06-a8cf-796eefe23094/Gau-76323.chk"
 -----
 titel
 -----
 Charge =  0 Multiplicity = 1

                         Standard orientation:
 ---------------------------------------------------------------------
 Center     Atomic      Atomic             Coordinates (Angstroms)
 Number     Number       Type             X           Y           Z
 ---------------------------------------------------------------------
      1          6           0       -3.796594   -0.485106    0.120106
      2          6           0       -2.375176   -0.180318    0.042511
      3          6           0       -1.197795    0.069689   -0.012444
      4          6           0        0.223345    0.404515   -0.100799
      5          8           0        0.401145    1.805321   -0.325708
      6          6           0        0.997705   -0.441561   -1.168089
      7          6           0        2.208974   -0.999709   -0.390101
      8          8           0        2.329877   -0.196756    0.774137
      9          6           0        1.009295    0.074356    1.192181
     10          1           0       -4.021883   -1.097864    0.999837
     11          1           0       -4.393654    0.430439    0.193817
     12          1           0       -4.137714   -1.034730   -0.764072
     13          1           0       -0.166604    2.052501   -1.063514
     14          1           0        0.378613   -1.232577   -1.594269
     15          1           0        1.309289    0.230910   -1.970151
     16          1           0        2.036200   -2.052500   -0.112980
     17          1           0        3.151257   -0.939112   -0.939621
     18          1           0        0.558366   -0.800238    1.686484
     19          1           0        1.019425    0.923460    1.876856
 ---------------------------------------------------------------------

 SCF Done:  E(RB3LYP) =  -423.158973314     A.U. after    1 cycles

 The electronic state is 1-A.
 Alpha  occ. eigenvalues --  -19.13731 -19.13541 -10.25792 -10.22613 -10.22254
 Alpha  occ. eigenvalues --  -10.20901 -10.18485 -10.18205 -10.17124  -1.04235
 Alpha  occ. eigenvalues --   -1.01557  -0.79229  -0.76746  -0.73899  -0.69444
 Alpha  occ. eigenvalues --   -0.60453  -0.60016  -0.54363  -0.50125  -0.46647
 Alpha  occ. eigenvalues --   -0.46192  -0.43988  -0.43260  -0.43187  -0.42574
 Alpha  occ. eigenvalues --   -0.39761  -0.37890  -0.35528  -0.34238  -0.32339
 Alpha  occ. eigenvalues --   -0.28350  -0.25935  -0.25693  -0.24243
 Alpha virt. eigenvalues --    0.04003   0.05247   0.08462   0.10564   0.11141
 Alpha virt. eigenvalues --    0.11518   0.14216   0.15066   0.16433   0.16978
 Alpha virt. eigenvalues --    0.17812   0.17983   0.19243   0.20310   0.21757

 Mulliken charges:
               1
     1  C   -0.499579
     2  C    0.008736
     3  C    0.069865
     4  C    0.205043
     5  O   -0.453621
     6  C   -0.292217
     7  C   -0.070103
     8  O   -0.242356
     9  C   -0.104386
    10  H    0.152565
    11  H    0.152166
    12  H    0.149028
    13  H    0.279356
    14  H    0.111035
    15  H    0.113697
    16  H    0.090514
    17  H    0.112059
    18  H    0.091381
    19  H    0.126816
 Sum of Mulliken charges =   0.00000

 Dipole moment (field-independent basis, Debye):
    X=             -2.4914    Y=             -1.1748    Z=             -1.5096  Tot=              3.1411
 Quadrupole moment (field-independent basis, Debye-Ang):
   XX=            -49.8439   YY=            -53.3389   ZZ=            -50.7730
   XY=             -1.6116   XZ=             -2.8046   YZ=             -1.3894

  Exact polarizability: 108.305   2.799  66.850  -3.715   0.011  65.692
 Approx polarizability: 149.626  10.998  98.948  -3.583  -0.060  94.265

                      1                      2                      3
                      A                      A                      A
 Frequencies --     23.9413                47.0970               100.8104
 Red. masses --      1.0234                 2.5631                 3.5425
 Frc consts  --      0.0003                 0.0033                 0.0212
 IR Inten    --      0.0423                 0.0256                 0.7302

                      4                      5                      6
                      A                      A                      A
 Frequencies --    118.6455               239.1498               267.9813
 Red. masses --      3.2807                 2.8985                 1.2622
 Frc consts  --      0.0272                 0.0977                 0.0534
 IR Inten    --      0.9962                 7.9410                75.6967

                      7                      8                      9
                      A                      A                      A
 Frequencies --    288.3615               319.4035               386.5153
 Red. masses --      3.0739                 3.0733                 3.1618
 Frc consts  --      0.1506                 0.1847                 0.2783
 IR Inten    --      3.8805                23.1632                21.3579

                     10                     11                     12
                      A                      A                      A
 Frequencies --    410.6793               453.6873               538.9264
 Red. masses --      2.8517                 4.8732                 5.6761
 Frc consts  --      0.2834                 0.5910                 0.9713
 IR Inten    --      4.7749                 0.5533                 5.1900

                     13                     14                     15
                      A                      A                      A
 Frequencies --    573.0699               661.4054               769.8682
 Red. masses --      4.9728                 3.1285                 3.2121
 Frc consts  --      0.9622                 0.8064                 1.1217
 IR Inten    --      5.0095                 5.5562                17.9330

                     16                     17                     18
                      A                      A                      A
 Frequencies --    843.7849               906.0332               954.4199
 Red. masses --      2.1121                 2.7848                 2.5538
 Frc consts  --      0.8860                 1.3469                 1.3706
 IR Inten    --      4.5138                 9.9667                35.7152

                     19                     20                     21
                      A                      A                      A
 Frequencies --    957.5805               974.7485              1006.6077
 Red. masses --      2.9540                 2.9264                 2.4448
 Frc consts  --      1.5959                 1.6382                 1.4595
 IR Inten    --     27.0816                31.5794                14.2990

                     22                     23                     24
                      A                      A                      A
 Frequencies --   1052.1272              1054.5999              1082.8536
 Red. masses --      1.4105                 1.3981                 2.4280
 Frc consts  --      0.9200                 0.9162                 1.6774
 IR Inten    --      0.8374                 0.7769                15.7732

                     25                     26                     27
                      A                      A                      A
 Frequencies --   1113.9283              1141.3831              1188.2808
 Red. masses --      5.1791                 2.9927                 1.9983
 Frc consts  --      3.7863                 2.2971                 1.6624
 IR Inten    --     81.4626                33.8002                 4.6642

                     28                     29                     30
                      A                      A                      A
 Frequencies --   1236.2078              1264.9002              1272.1445
 Red. masses --      1.1812                 1.6888                 1.3746
 Frc consts  --      1.0636                 1.5920                 1.3107
 IR Inten    --     28.7952                11.1711                 9.3053

                     31                     32                     33
                      A                      A                      A
 Frequencies --   1304.8791              1335.2225              1382.8511
 Red. masses --      1.2926                 1.2592                 1.4460
 Frc consts  --      1.2967                 1.3227                 1.6292
 IR Inten    --     33.9160                16.7656                41.0601

                     34                     35                     36
                      A                      A                      A
 Frequencies --   1405.0185              1414.3107              1477.1426
 Red. masses --      1.4344                 1.2533                 1.0397
 Frc consts  --      1.6683                 1.4770                 1.3366
 IR Inten    --      7.1007                 6.1214                 6.6399

                     37                     38                     39
                      A                      A                      A
 Frequencies --   1478.1345              1478.3940              1493.1431
 Red. masses --      1.0501                 1.0774                 1.0867
 Frc consts  --      1.3518                 1.3874                 1.4274
 IR Inten    --      4.0685                 4.0457                 1.9109

                     40                     41                     42
                      A                      A                      A
 Frequencies --   1520.0351              2364.3809              2970.3949
 Red. masses --      1.1012                11.8896                 1.0717
 Frc consts  --      1.4991                39.1607                 5.5714
 IR Inten    --      1.7271                 6.9007                63.5389

                     43                     44                     45
                      A                      A                      A
 Frequencies --   2986.3566              3028.1933              3075.3108
 Red. masses --      1.0700                 1.0347                 1.0609
 Frc consts  --      5.6226                 5.5904                 5.9118
 IR Inten    --     55.7176                30.2771                14.0938

                     46                     47                     48
                      A                      A                      A
 Frequencies --   3089.3416              3090.5747              3097.9283
 Red. masses --      1.1004                 1.1000                 1.0906
 Frc consts  --      6.1876                 6.1907                 6.1670
 IR Inten    --      9.5463                 8.3606                30.3011

                     49                     50                     51
                      A                      A                      A
 Frequencies --   3127.4435              3131.9155              3811.2602
 Red. masses --      1.0947                 1.1069                 1.0663
 Frc consts  --      6.3086                 6.3968                 9.1253
 IR Inten    --     11.7575                21.4233                20.4126

 - Thermochemistry -
 -------------------
 Temperature   298.150 Kelvin.  Pressure   1.00000 Atm.
 Atom     1 has atomic number  6 and mass  12.00000

 Molecular mass:   126.06808 amu.
 Principal axes and moments of inertia in atomic units:
                           1         2         3
     Eigenvalues --   537.740962015.179152100.63152
           X            0.99994  -0.00022  -0.01132
           Y            0.00052   0.99964   0.02683
           Z            0.01131  -0.02683   0.99958
 This molecule is an asymmetric top.
 Rotational symmetry number  1.
 Warning -- assumption of classical behavior for rotation
           may cause significant error
 Rotational temperatures (Kelvin)      0.16107     0.04298     0.04123
 Rotational constants (GHZ):           3.35615     0.89557     0.85914
 Zero-point vibrational energy     414574.1 (Joules/Mol)
                                   99.08558 (Kcal/Mol)
 Warning -- explicit consideration of  13 degrees of freedom as
           vibrations may cause significant error
 Vibrational temperatures:     34.45    67.76   145.04   170.70   344.08
          (Kelvin)            385.56   414.89   459.55   556.11   590.88
                              652.75   775.39   824.52   951.61  1107.67
                             1214.02  1303.58  1373.20  1377.74  1402.44
                             1448.28  1513.77  1517.33  1557.98  1602.69
                             1642.19  1709.67  1778.63  1819.91  1830.33
                             1877.43  1921.08  1989.61  2021.51  2034.88
                             2125.28  2126.70  2127.08  2148.30  2186.99
                             3401.81  4273.73  4296.70  4356.89  4424.68
                             4444.87  4446.64  4457.22  4499.69  4506.12
                             5483.55

 Zero-point correction=                           0.157903 (Hartree/Particle)
 Thermal correction to Energy=                    0.167707
 Thermal correction to Enthalpy=                  0.168651
 Thermal correction to Gibbs Free Energy=         0.121447
 Sum of electronic and zero-point Energies=           -423.001070
 Sum of electronic and thermal Energies=              -422.991266
 Sum of electronic and thermal Enthalpies=            -422.990322
 Sum of electronic and thermal Free Energies=         -423.037527

                     E (Thermal)             CV                S
                      KCal/Mol        Cal/Mol-Kelvin    Cal/Mol-Kelvin
 Total                  105.238             34.681             99.351
 Electronic               0.000              0.000              0.000
 Translational            0.889              2.981             40.409
 Rotational               0.889              2.981             29.211
 Vibrational            103.460             28.720             29.731
 Vibration     1          0.593              1.985              6.277
 Vibration     2          0.595              1.979              4.936
 Vibration     3          0.604              1.948              3.439
 Vibration     4          0.609              1.934              3.122
 Vibration     5          0.657              1.781              1.809
 Vibration     6          0.673              1.732              1.609
 Vibration     7          0.685              1.695              1.484
 Vibration     8          0.705              1.636              1.313
 Vibration     9          0.755              1.499              1.014
 Vibration    10          0.775              1.447              0.924
 Vibration    11          0.812              1.353              0.785
 Vibration    12          0.894              1.164              0.568
 Vibration    13          0.929              1.090              0.498

 Normal termination of Gaussian 09 at Mon Jan 27 14:34:38 2020.
