 Gaussian 09, Revision D.01,
 Gaussian 09:  ES64L-G09RevD.01 24-Apr-2013

 -----------------------------
 # b3lyp 6-31G(2df,p) opt Freq
 -----------------------------

 -----
 titel
 -----
 Symbolic Z-matrix:
 Charge =  0 Multiplicity = 1

 SCF Done:  E(RB3LYP) =  -423.107507004     A.U. after   13 cycles
 Optimization completed.
    -- Stationary point found.
 Normal termination of Gaussian 09 at Tue Jan 28 12:07:49 2020.

 ----------------------------------------------------------------------
 #N Geom=AllCheck Guess=TCheck SCRF=Check GenChk RB3LYP/6-31G(2df,p) Fr
 eq
 ----------------------------------------------------------------------

 Structure from the checkpoint file:  "/scratch/puck/g09_6bf2e556-75f5-42dd-ada4-208db80c8aa4/Gau-138092.chk"
 -----
 titel
 -----
 Charge =  0 Multiplicity = 1

                         Standard orientation:
 ---------------------------------------------------------------------
 Center     Atomic      Atomic             Coordinates (Angstroms)
 Number     Number       Type             X           Y           Z
 ---------------------------------------------------------------------
      1          6           0        3.094308   -0.373114   -0.001809
      2          8           0        1.782630   -0.012717    0.363885
      3          6           0        0.828368   -0.338059   -0.616158
      4          6           0       -0.548177    0.110945   -0.120999
      5          6           0       -1.697158   -0.615349   -0.880891
      6          8           0       -1.879850   -1.543526    0.201501
      7          6           0       -1.045819   -0.754616    1.073771
      8          6           0       -0.649092    1.551863    0.008209
      9          6           0       -0.762831    2.744878    0.102710
     10          1           0        3.419258    0.146948   -0.916308
     11          1           0        3.752178   -0.085415    0.821370
     12          1           0        3.187836   -1.457462   -0.171169
     13          1           0        1.061188    0.154775   -1.574575
     14          1           0        0.805497   -1.426904   -0.792972
     15          1           0       -2.578556    0.016126   -1.044095
     16          1           0       -1.422090   -1.113271   -1.818285
     17          1           0       -1.632025   -0.193184    1.810301
     18          1           0       -0.280435   -1.349988    1.579919
     19          1           0       -0.852695    3.799019    0.193740
 ---------------------------------------------------------------------

 SCF Done:  E(RB3LYP) =  -423.107507004     A.U. after    1 cycles

 The electronic state is 1-A.
 Alpha  occ. eigenvalues --  -19.14785 -19.13736 -10.23911 -10.23862 -10.23393
 Alpha  occ. eigenvalues --  -10.22951 -10.22331 -10.18183 -10.17455  -1.04736
 Alpha  occ. eigenvalues --   -1.03956  -0.81158  -0.73357  -0.70142  -0.69529
 Alpha  occ. eigenvalues --   -0.63984  -0.58750  -0.53233  -0.50554  -0.49969
 Alpha  occ. eigenvalues --   -0.49460  -0.46713  -0.44666  -0.44359  -0.40845
 Alpha  occ. eigenvalues --   -0.39781  -0.37945  -0.35069  -0.32823  -0.32448
 Alpha  occ. eigenvalues --   -0.26672  -0.26456  -0.26142  -0.25233
 Alpha virt. eigenvalues --    0.04180   0.04802   0.08427   0.08965   0.10933
 Alpha virt. eigenvalues --    0.12194   0.13024   0.13814   0.15064   0.15630
 Alpha virt. eigenvalues --    0.16871   0.17238   0.18635   0.18732   0.20171

 Mulliken charges:
               1
     1  C   -0.226347
     2  O   -0.235002
     3  C   -0.107874
     4  C    0.058060
     5  C   -0.122893
     6  O   -0.272852
     7  C   -0.101933
     8  C    0.276062
     9  C   -0.445641
    10  H    0.108244
    11  H    0.131723
    12  H    0.106075
    13  H    0.096018
    14  H    0.096249
    15  H    0.109871
    16  H    0.106427
    17  H    0.108968
    18  H    0.119808
    19  H    0.195035
 Sum of Mulliken charges =   0.00000

 Dipole moment (field-independent basis, Debye):
    X=              1.4301    Y=              0.4776    Z=             -1.0513  Tot=              1.8381
 Quadrupole moment (field-independent basis, Debye-Ang):
   XX=            -51.9250   YY=            -52.7673   ZZ=            -51.7562
   XY=             -4.9514   XZ=             -0.2374   YZ=              0.7886

  Exact polarizability:  78.246  -3.353  90.019   1.623   1.753  66.087
 Approx polarizability:  97.015  -3.081 140.766   2.194   3.831  97.579

                      1                      2                      3
                      A                      A                      A
 Frequencies --     65.9866               100.9871               108.3646
 Red. masses --      3.4592                 3.2373                 2.6945
 Frc consts  --      0.0089                 0.0195                 0.0186
 IR Inten    --      1.0546                 4.6015                 2.6900

                      4                      5                      6
                      A                      A                      A
 Frequencies --    136.6762               177.1322               203.6184
 Red. masses --      3.2474                 3.2877                 1.8558
 Frc consts  --      0.0357                 0.0608                 0.0453
 IR Inten    --      1.9225                 0.1470                 0.6347

                      7                      8                      9
                      A                      A                      A
 Frequencies --    241.0397               335.5675               374.6473
 Red. masses --      1.5880                 2.4513                 3.0089
 Frc consts  --      0.0544                 0.1626                 0.2488
 IR Inten    --      3.6192                 0.7017                 1.2632

                     10                     11                     12
                      A                      A                      A
 Frequencies --    403.9101               526.6596               533.8989
 Red. masses --      3.2720                 5.8845                 5.2353
 Frc consts  --      0.3145                 0.9617                 0.8793
 IR Inten    --      0.7283                 3.8080                 7.6832

                     13                     14                     15
                      A                      A                      A
 Frequencies --    627.8893               634.8675               675.1570
 Red. masses --      1.2535                 1.2271                 3.3970
 Frc consts  --      0.2912                 0.2914                 0.9123
 IR Inten    --     38.0155                40.5817                 7.5016

                     16                     17                     18
                      A                      A                      A
 Frequencies --    845.3020               921.0167               941.5059
 Red. masses --      3.5773                 1.9484                 2.0545
 Frc consts  --      1.5060                 0.9738                 1.0730
 IR Inten    --     14.1695                 6.0647                 8.0044

                     19                     20                     21
                      A                      A                      A
 Frequencies --    971.8435               991.1008              1010.8718
 Red. masses --      1.7257                 3.1812                 3.2808
 Frc consts  --      0.9603                 1.8411                 1.9752
 IR Inten    --      3.8057                 9.1915                18.2221

                     22                     23                     24
                      A                      A                      A
 Frequencies --   1034.1360              1083.5063              1153.5307
 Red. masses --     10.7708                 3.3235                 1.1348
 Frc consts  --      6.7866                 2.2989                 0.8897
 IR Inten    --     73.0854                10.6754                 3.5840

                     25                     26                     27
                      A                      A                      A
 Frequencies --   1160.2965              1165.2139              1177.7703
 Red. masses --      2.4529                 1.8288                 1.3780
 Frc consts  --      1.9456                 1.4630                 1.1262
 IR Inten    --     83.8524                78.5922                 2.7713

                     28                     29                     30
                      A                      A                      A
 Frequencies --   1204.6196              1230.1730              1257.5451
 Red. masses --      2.1878                 1.8168                 1.6303
 Frc consts  --      1.8705                 1.6199                 1.5190
 IR Inten    --      1.2146                50.2683                 1.4293

                     31                     32                     33
                      A                      A                      A
 Frequencies --   1299.0716              1311.2789              1369.3889
 Red. masses --      1.2844                 1.6293                 1.5182
 Frc consts  --      1.2771                 1.6506                 1.6773
 IR Inten    --      1.1199                17.1274                 2.4855

                     34                     35                     36
                      A                      A                      A
 Frequencies --   1414.6526              1479.4937              1485.7879
 Red. masses --      1.3479                 1.1515                 1.0467
 Frc consts  --      1.5893                 1.4850                 1.3614
 IR Inten    --     26.3616                 2.0426                 5.3010

                     37                     38                     39
                      A                      A                      A
 Frequencies --   1500.7052              1509.1257              1525.0140
 Red. masses --      1.0604                 1.0752                 1.0891
 Frc consts  --      1.4071                 1.4427                 1.4923
 IR Inten    --     11.4799                 0.0693                 1.8323

                     40                     41                     42
                      A                      A                      A
 Frequencies --   1535.2436              2237.0964              2953.7071
 Red. masses --      1.1079                 5.9631                 1.0526
 Frc consts  --      1.5385                17.5830                 5.4107
 IR Inten    --      1.4827                 1.3568                29.4771

                     43                     44                     45
                      A                      A                      A
 Frequencies --   2974.4374              2991.9671              3016.6923
 Red. masses --      1.0390                 1.1053                 1.0534
 Frc consts  --      5.4158                 5.8297                 5.6483
 IR Inten    --     72.2503                52.5723                79.8855

                     46                     47                     48
                      A                      A                      A
 Frequencies --   3019.1061              3033.4843              3068.4625
 Red. masses --      1.1031                 1.0589                 1.1121
 Frc consts  --      5.9239                 5.7408                 6.1692
 IR Inten    --     50.1646                21.1586                37.0151

                     49                     50                     51
                      A                      A                      A
 Frequencies --   3093.8336              3119.1991              3502.1873
 Red. masses --      1.1094                 1.0961                 1.1616
 Frc consts  --      6.2563                 6.2835                 8.3942
 IR Inten    --     31.8882                25.4701                69.1652

 - Thermochemistry -
 -------------------
 Temperature   298.150 Kelvin.  Pressure   1.00000 Atm.
 Atom     1 has atomic number  6 and mass  12.00000

 Molecular mass:   126.06808 amu.
 Principal axes and moments of inertia in atomic units:
                           1         2         3
     Eigenvalues --   854.641291392.031701920.24383
           X            0.99907  -0.04285  -0.00441
           Y            0.04288   0.99905   0.00832
           Z            0.00405  -0.00851   0.99996
 This molecule is an asymmetric top.
 Rotational symmetry number  1.
 Warning -- assumption of classical behavior for rotation
           may cause significant error
 Rotational temperatures (Kelvin)      0.10135     0.06222     0.04511
 Rotational constants (GHZ):           2.11169     1.29648     0.93985
 Zero-point vibrational energy     411125.2 (Joules/Mol)
                                   98.26128 (Kcal/Mol)
 Warning -- explicit consideration of  12 degrees of freedom as
           vibrations may cause significant error
 Vibrational temperatures:     94.94   145.30   155.91   196.65   254.85
          (Kelvin)            292.96   346.80   482.81   539.03   581.14
                              757.74   768.16   903.39   913.43   971.40
                             1216.20  1325.14  1354.62  1398.26  1425.97
                             1454.42  1487.89  1558.92  1659.67  1669.41
                             1676.48  1694.55  1733.18  1769.94  1809.32
                             1869.07  1886.64  1970.24  2035.37  2128.66
                             2137.71  2159.18  2171.29  2194.15  2208.87
                             3218.68  4249.72  4279.55  4304.77  4340.34
                             4343.81  4364.50  4414.83  4451.33  4487.83
                             5038.86

 Zero-point correction=                           0.156589 (Hartree/Particle)
 Thermal correction to Energy=                    0.166351
 Thermal correction to Enthalpy=                  0.167295
 Thermal correction to Gibbs Free Energy=         0.121397
 Sum of electronic and zero-point Energies=           -422.950918
 Sum of electronic and thermal Energies=              -422.941156
 Sum of electronic and thermal Enthalpies=            -422.940212
 Sum of electronic and thermal Free Energies=         -422.986110

                     E (Thermal)             CV                S
                      KCal/Mol        Cal/Mol-Kelvin    Cal/Mol-Kelvin
 Total                  104.387             34.715             96.601
 Electronic               0.000              0.000              0.000
 Translational            0.889              2.981             40.409
 Rotational               0.889              2.981             29.214
 Vibrational            102.609             28.754             26.978
 Vibration     1          0.597              1.970              4.270
 Vibration     2          0.604              1.948              3.435
 Vibration     3          0.606              1.943              3.298
 Vibration     4          0.614              1.917              2.850
 Vibration     5          0.628              1.871              2.358
 Vibration     6          0.639              1.835              2.100
 Vibration     7          0.658              1.778              1.795
 Vibration     8          0.717              1.604              1.233
 Vibration     9          0.746              1.524              1.061
 Vibration    10          0.769              1.462              0.948
 Vibration    11          0.882              1.191              0.595
 Vibration    12          0.889              1.175              0.579

 Optimization completed.
    -- Stationary point found.
 Normal termination of Gaussian 09 at Tue Jan 28 12:50:06 2020.
