 Gaussian 09, Revision D.01,
 Gaussian 09:  ES64L-G09RevD.01 24-Apr-2013

 -----------------------------
 # b3lyp 6-31G(2df,p) opt Freq
 -----------------------------

 -----
 titel
 -----
 Symbolic Z-matrix:
 Charge =  0 Multiplicity = 1

 SCF Done:  E(RB3LYP) =  -423.161644668     A.U. after   15 cycles
 Optimization completed.
    -- Stationary point found.
 Normal termination of Gaussian 09 at Tue Jan 28 08:20:57 2020.

 ----------------------------------------------------------------------
 #N Geom=AllCheck Guess=TCheck SCRF=Check GenChk RB3LYP/6-31G(2df,p) Fr
 eq
 ----------------------------------------------------------------------

 Structure from the checkpoint file:  "/scratch/puck/g09_c049b003-16f6-42d0-9a9f-70b6e89d3789/Gau-60230.chk"
 -----
 titel
 -----
 Charge =  0 Multiplicity = 1

                         Standard orientation:
 ---------------------------------------------------------------------
 Center     Atomic      Atomic             Coordinates (Angstroms)
 Number     Number       Type             X           Y           Z
 ---------------------------------------------------------------------
      1          6           0       -1.533398    2.081143   -0.041431
      2          6           0       -1.699032    0.738054   -0.752462
      3          6           0       -1.092683   -0.464375    0.017200
      4          6           0       -1.338596   -1.778972   -0.750494
      5          8           0       -1.646120   -0.551756    1.334577
      6          6           0        0.351337   -0.274846    0.185221
      7          6           0        1.547832   -0.126416    0.256046
      8          6           0        2.969833    0.047816    0.398413
      9          8           0        3.739662    0.189658   -0.524295
     10          1           0       -2.050122    2.873425   -0.590346
     11          1           0       -1.944126    2.035252    0.970306
     12          1           0       -0.477976    2.357933    0.036604
     13          1           0       -2.765492    0.515179   -0.894997
     14          1           0       -1.252290    0.772614   -1.752111
     15          1           0       -2.416292   -1.926837   -0.884524
     16          1           0       -0.870645   -1.754596   -1.737872
     17          1           0       -0.935622   -2.623699   -0.187806
     18          1           0       -2.588310   -0.729352    1.233198
     19          1           0        3.320774    0.042446    1.450327
 ---------------------------------------------------------------------

 SCF Done:  E(RB3LYP) =  -423.161644668     A.U. after    1 cycles

 The electronic state is 1-A.
 Alpha  occ. eigenvalues --  -19.15230 -19.14277 -10.28855 -10.27659 -10.20912
 Alpha  occ. eigenvalues --  -10.19888 -10.19511 -10.19509 -10.17880  -1.04852
 Alpha  occ. eigenvalues --   -1.03771  -0.82118  -0.76999  -0.74280  -0.67767
 Alpha  occ. eigenvalues --   -0.64397  -0.61500  -0.51907  -0.50554  -0.48735
 Alpha  occ. eigenvalues --   -0.46502  -0.44531  -0.43966  -0.42254  -0.40461
 Alpha  occ. eigenvalues --   -0.40025  -0.38119  -0.36218  -0.35448  -0.34028
 Alpha  occ. eigenvalues --   -0.29746  -0.29029  -0.27614  -0.26585
 Alpha virt. eigenvalues --   -0.06044   0.01998   0.05900   0.09963   0.11534
 Alpha virt. eigenvalues --    0.12294   0.12774   0.13866   0.14784   0.16815
 Alpha virt. eigenvalues --    0.17319   0.17727   0.19506   0.19974   0.21855

 Mulliken charges:
               1
     1  C   -0.388941
     2  C   -0.196369
     3  C    0.132899
     4  C   -0.418684
     5  O   -0.451893
     6  C    0.232216
     7  C   -0.049751
     8  C    0.020088
     9  O   -0.232014
    10  H    0.114466
    11  H    0.128766
    12  H    0.131990
    13  H    0.090473
    14  H    0.114517
    15  H    0.111524
    16  H    0.136504
    17  H    0.138915
    18  H    0.282562
    19  H    0.102735
 Sum of Mulliken charges =   0.00000

 Dipole moment (field-independent basis, Debye):
    X=             -3.9150    Y=             -0.6035    Z=              0.1469  Tot=              3.9639
 Quadrupole moment (field-independent basis, Debye-Ang):
   XX=            -56.5365   YY=            -52.0218   ZZ=            -55.2229
   XY=              0.5797   XZ=              6.3405   YZ=              0.6122

  Exact polarizability: 116.589   4.548  68.410   1.611   0.601  66.130
 Approx polarizability: 178.216  11.717  89.647  -6.922  -1.708 102.298

                      1                      2                      3
                      A                      A                      A
 Frequencies --     44.7125                83.4550                85.4471
 Red. masses --      4.3243                 4.1119                 2.7248
 Frc consts  --      0.0051                 0.0169                 0.0117
 IR Inten    --      6.2606                 3.8789                 3.7463

                      4                      5                      6
                      A                      A                      A
 Frequencies --    127.3700               206.2369               214.6809
 Red. masses --      1.9538                 2.6171                 1.5256
 Frc consts  --      0.0187                 0.0656                 0.0414
 IR Inten    --      0.7984                 2.5278                 0.1926

                      7                      8                      9
                      A                      A                      A
 Frequencies --    237.8377               250.1849               258.4592
 Red. masses --      2.8422                 1.1331                 1.1268
 Frc consts  --      0.0947                 0.0418                 0.0444
 IR Inten    --      3.1001                56.9162                50.7718

                     10                     11                     12
                      A                      A                      A
 Frequencies --    274.5653               349.1648               369.5217
 Red. masses --      3.1987                 3.1986                 3.0064
 Frc consts  --      0.1421                 0.2298                 0.2419
 IR Inten    --      0.3037                 5.8322                 5.2093

                     13                     14                     15
                      A                      A                      A
 Frequencies --    451.5875               558.9527               566.7316
 Red. masses --      4.2683                 6.2414                 3.5249
 Frc consts  --      0.5128                 1.1489                 0.6670
 IR Inten    --      5.5839                 8.5598                 0.5852

                     16                     17                     18
                      A                      A                      A
 Frequencies --    606.7710               723.3922               789.5847
 Red. masses --      4.7208                 5.6529                 1.3199
 Frc consts  --      1.0240                 1.7429                 0.4848
 IR Inten    --      2.9158                21.2011                 4.9983

                     19                     20                     21
                      A                      A                      A
 Frequencies --    861.7540               927.9775               999.4951
 Red. masses --      2.0861                 2.3972                 1.4662
 Frc consts  --      0.9127                 1.2163                 0.8630
 IR Inten    --     16.9125                23.8223                 8.0936

                     22                     23                     24
                      A                      A                      A
 Frequencies --   1022.7024              1028.6791              1052.4672
 Red. masses --      1.7742                 2.8893                 1.6374
 Frc consts  --      1.0933                 1.8014                 1.0686
 IR Inten    --      0.5292                15.7353                13.3292

                     25                     26                     27
                      A                      A                      A
 Frequencies --   1086.2302              1134.9262              1168.9315
 Red. masses --      2.5032                 3.0021                 1.7841
 Frc consts  --      1.7402                 2.2783                 1.4363
 IR Inten    --     58.2411                20.6059               153.5920

                     28                     29                     30
                      A                      A                      A
 Frequencies --   1188.6805              1283.7108              1356.1704
 Red. masses --      2.5807                 1.2136                 1.4661
 Frc consts  --      2.1484                 1.1783                 1.5887
 IR Inten    --     12.6441                15.9846                 0.9712

                     31                     32                     33
                      A                      A                      A
 Frequencies --   1395.2861              1404.8557              1412.8383
 Red. masses --      1.5499                 1.2442                 1.2859
 Frc consts  --      1.7778                 1.4468                 1.5123
 IR Inten    --     48.6761                 8.0938                11.2967

                     34                     35                     36
                      A                      A                      A
 Frequencies --   1421.1718              1474.5074              1486.8672
 Red. masses --      1.1934                 1.0715                 1.0510
 Frc consts  --      1.4202                 1.3726                 1.3690
 IR Inten    --     17.3133                 0.7804                 1.8181

                     37                     38                     39
                      A                      A                      A
 Frequencies --   1493.3075              1498.0909              1508.9122
 Red. masses --      1.0449                 1.0865                 1.0555
 Frc consts  --      1.3729                 1.4366                 1.4159
 IR Inten    --      2.3233                 4.5100                 3.3080

                     40                     41                     42
                      A                      A                      A
 Frequencies --   1766.5849              2326.9254              2921.8670
 Red. masses --     10.5052                11.9526                 1.0817
 Frc consts  --     19.3163                38.1309                 5.4412
 IR Inten    --    249.5381               120.7235                93.0886

                     43                     44                     45
                      A                      A                      A
 Frequencies --   3015.2057              3036.5741              3047.9850
 Red. masses --      1.0652                 1.0385                 1.0351
 Frc consts  --      5.7057                 5.6417                 5.6659
 IR Inten    --     24.5310                24.5664                19.6509

                     46                     47                     48
                      A                      A                      A
 Frequencies --   3070.7767              3112.2013              3116.2124
 Red. masses --      1.0959                 1.0975                 1.1018
 Frc consts  --      6.0886                 6.2629                 6.3037
 IR Inten    --     10.9862                15.8520                30.4862

                     49                     50                     51
                      A                      A                      A
 Frequencies --   3127.9794              3138.2812              3799.9347
 Red. masses --      1.1016                 1.1031                 1.0657
 Frc consts  --      6.3507                 6.4012                 9.0667
 IR Inten    --     19.7483                13.8893                17.2396

 - Thermochemistry -
 -------------------
 Temperature   298.150 Kelvin.  Pressure   1.00000 Atm.
 Atom     1 has atomic number  6 and mass  12.00000

 Molecular mass:   126.06808 amu.
 Principal axes and moments of inertia in atomic units:
                           1         2         3
     Eigenvalues --   717.608672163.310882438.45682
           X            0.99978  -0.00782   0.01960
           Y            0.00710   0.99929   0.03696
           Z           -0.01987  -0.03681   0.99912
 This molecule is an asymmetric top.
 Rotational symmetry number  1.
 Warning -- assumption of classical behavior for rotation
           may cause significant error
 Rotational temperatures (Kelvin)      0.12070     0.04004     0.03552
 Rotational constants (GHZ):           2.51494     0.83425     0.74012
 Zero-point vibrational energy     406052.9 (Joules/Mol)
                                   97.04897 (Kcal/Mol)
 Warning -- explicit consideration of  16 degrees of freedom as
           vibrations may cause significant error
 Vibrational temperatures:     64.33   120.07   122.94   183.26   296.73
          (Kelvin)            308.88   342.19   359.96   371.86   395.04
                              502.37   531.66   649.73   804.21   815.40
                              873.01  1040.80  1136.03  1239.87  1335.15
                             1438.05  1471.44  1480.04  1514.26  1562.84
                             1632.90  1681.83  1710.24  1846.97  1951.22
                             2007.50  2021.27  2032.76  2044.75  2121.48
                             2139.27  2148.53  2155.42  2170.99  2541.72
                             3347.92  4203.91  4338.20  4368.95  4385.37
                             4418.16  4477.76  4483.53  4500.46  4515.28
                             5467.25

 Zero-point correction=                           0.154657 (Hartree/Particle)
 Thermal correction to Energy=                    0.165631
 Thermal correction to Enthalpy=                  0.166575
 Thermal correction to Gibbs Free Energy=         0.117817
 Sum of electronic and zero-point Energies=           -423.006987
 Sum of electronic and thermal Energies=              -422.996013
 Sum of electronic and thermal Enthalpies=            -422.995069
 Sum of electronic and thermal Free Energies=         -423.043827

                     E (Thermal)             CV                S
                      KCal/Mol        Cal/Mol-Kelvin    Cal/Mol-Kelvin
 Total                  103.935             38.122            102.620
 Electronic               0.000              0.000              0.000
 Translational            0.889              2.981             40.409
 Rotational               0.889              2.981             29.716
 Vibrational            102.158             32.161             32.495
 Vibration     1          0.595              1.980              5.039
 Vibration     2          0.600              1.961              3.808
 Vibration     3          0.601              1.959              3.762
 Vibration     4          0.611              1.926              2.985
 Vibration     5          0.641              1.831              2.077
 Vibration     6          0.645              1.819              2.004
 Vibration     7          0.656              1.783              1.819
 Vibration     8          0.663              1.762              1.729
 Vibration     9          0.667              1.748              1.672
 Vibration    10          0.677              1.720              1.567
 Vibration    11          0.726              1.577              1.170
 Vibration    12          0.742              1.535              1.082
 Vibration    13          0.810              1.357              0.791
 Vibration    14          0.915              1.120              0.526
 Vibration    15          0.923              1.103              0.511
 Vibration    16          0.965              1.017              0.438

 Normal termination of Gaussian 09 at Tue Jan 28 10:00:58 2020.
