 Gaussian 09, Revision D.01,
 Gaussian 09:  ES64L-G09RevD.01 24-Apr-2013

 -----------------------------
 # b3lyp 6-31G(2df,p) opt Freq
 -----------------------------

 -----
 titel
 -----
 Symbolic Z-matrix:
 Charge =  0 Multiplicity = 1

 SCF Done:  E(RB3LYP) =  -423.128319517     A.U. after   14 cycles
 Optimization completed.
    -- Stationary point found.
 Normal termination of Gaussian 09 at Tue Jan 28 08:11:32 2020.

 ----------------------------------------------------------------------
 #N Geom=AllCheck Guess=TCheck SCRF=Check GenChk RB3LYP/6-31G(2df,p) Fr
 eq
 ----------------------------------------------------------------------

 Structure from the checkpoint file:  "/scratch/puck/g09_f0a7cf72-2b60-4b5a-a09d-5e22f055540b/Gau-102034.chk"
 -----
 titel
 -----
 Charge =  0 Multiplicity = 1

                         Standard orientation:
 ---------------------------------------------------------------------
 Center     Atomic      Atomic             Coordinates (Angstroms)
 Number     Number       Type             X           Y           Z
 ---------------------------------------------------------------------
      1          6           0       -3.922556    0.743015   -0.285339
      2          6           0       -2.813415    0.302550    0.677759
      3          6           0       -1.473704    0.205394   -0.009610
      4          8           0       -1.263128   -0.921529   -0.859403
      5          6           0       -0.475168   -0.825858    0.343979
      6          6           0        0.937433   -0.603942    0.203526
      7          6           0        2.128521   -0.439229    0.116420
      8          6           0        3.561984   -0.193965   -0.033103
      9          8           0        3.911366    1.182649   -0.010673
     10          1           0       -4.014189    0.036052   -1.115163
     11          1           0       -4.887842    0.796514    0.226061
     12          1           0       -3.712164    1.731718   -0.707302
     13          1           0       -2.729316    1.014163    1.508998
     14          1           0       -3.059645   -0.672721    1.112420
     15          1           0       -1.084920    1.139171   -0.420974
     16          1           0       -0.757984   -1.549879    1.108070
     17          1           0        4.107965   -0.653564    0.798223
     18          1           0        3.916423   -0.684608   -0.953779
     19          1           0        3.377196    1.626394   -0.677741
 ---------------------------------------------------------------------

 SCF Done:  E(RB3LYP) =  -423.128319517     A.U. after    1 cycles

 The electronic state is 1-A.
 Alpha  occ. eigenvalues --  -19.15578 -19.14400 -10.25886 -10.25583 -10.24473
 Alpha  occ. eigenvalues --  -10.19377 -10.18667 -10.18419 -10.18088  -1.07591
 Alpha  occ. eigenvalues --   -1.02586  -0.78333  -0.77878  -0.72143  -0.67557
 Alpha  occ. eigenvalues --   -0.64990  -0.59217  -0.54156  -0.51891  -0.48797
 Alpha  occ. eigenvalues --   -0.47537  -0.45613  -0.44755  -0.41694  -0.40136
 Alpha  occ. eigenvalues --   -0.38877  -0.36145  -0.35937  -0.34987  -0.33001
 Alpha  occ. eigenvalues --   -0.29168  -0.27735  -0.26498  -0.25478
 Alpha virt. eigenvalues --    0.01686   0.02908   0.09092   0.10280   0.11150
 Alpha virt. eigenvalues --    0.12079   0.12828   0.14207   0.15574   0.16162
 Alpha virt. eigenvalues --    0.16904   0.17550   0.18432   0.20892   0.21532

 Mulliken charges:
               1
     1  C   -0.376899
     2  C   -0.215486
     3  C    0.092454
     4  O   -0.244587
     5  C   -0.180043
     6  C    0.026412
     7  C    0.148231
     8  C   -0.199993
     9  O   -0.399912
    10  H    0.136170
    11  H    0.117148
    12  H    0.117778
    13  H    0.106740
    14  H    0.106894
    15  H    0.095189
    16  H    0.113864
    17  H    0.143881
    18  H    0.123798
    19  H    0.288361
 Sum of Mulliken charges =   0.00000

 Dipole moment (field-independent basis, Debye):
    X=             -0.9846    Y=              0.5346    Z=              0.4712  Tot=              1.2154
 Quadrupole moment (field-independent basis, Debye-Ang):
   XX=            -53.4057   YY=            -52.6981   ZZ=            -53.5030
   XY=             -4.9315   XZ=             -5.5491   YZ=             -4.2269

  Exact polarizability: 125.533  -2.557  66.649  -1.040  -3.226  59.785
 Approx polarizability: 162.810   2.838  99.733   0.987  -2.217  91.530

                      1                      2                      3
                      A                      A                      A
 Frequencies --     25.6194                54.4425                87.8865
 Red. masses --      2.7052                 4.3738                 2.9398
 Frc consts  --      0.0010                 0.0076                 0.0134
 IR Inten    --      4.5418                 0.1764                 1.7354

                      4                      5                      6
                      A                      A                      A
 Frequencies --     97.4455               177.5487               203.7855
 Red. masses --      3.0353                 3.2138                 1.9936
 Frc consts  --      0.0170                 0.0597                 0.0488
 IR Inten    --      0.8233                 5.0478                 1.8843

                      7                      8                      9
                      A                      A                      A
 Frequencies --    238.9397               285.1892               333.7840
 Red. masses --      1.5740                 1.6800                 4.4071
 Frc consts  --      0.0529                 0.0805                 0.2893
 IR Inten    --      0.5939                59.8072                 0.9770

                     10                     11                     12
                      A                      A                      A
 Frequencies --    354.0204               404.5764               476.3472
 Red. masses --      1.9961                 2.8975                 4.5497
 Frc consts  --      0.1474                 0.2794                 0.6082
 IR Inten    --     71.7760                 2.5120                 3.5326

                     13                     14                     15
                      A                      A                      A
 Frequencies --    562.5085               594.1428               750.6699
 Red. masses --      4.2807                 7.9909                 2.2644
 Frc consts  --      0.7980                 1.6620                 0.7518
 IR Inten    --     11.8466                14.0364                 4.8726

                     16                     17                     18
                      A                      A                      A
 Frequencies --    797.7187               838.5258               909.3377
 Red. masses --      2.3882                 2.5886                 3.0317
 Frc consts  --      0.8954                 1.0724                 1.4770
 IR Inten    --     10.2286                 4.6064                29.6181

                     19                     20                     21
                      A                      A                      A
 Frequencies --    921.8133               982.8208              1020.8078
 Red. masses --      2.6523                 1.6006                 2.4500
 Frc consts  --      1.3279                 0.9109                 1.5042
 IR Inten    --     30.8914                30.0932                 4.3400

                     22                     23                     24
                      A                      A                      A
 Frequencies --   1049.1599              1074.2824              1080.9004
 Red. masses --      5.1004                 1.5695                 1.3963
 Frc consts  --      3.3078                 1.0672                 0.9612
 IR Inten    --     82.0681                 1.7401                 1.3841

                     25                     26                     27
                      A                      A                      A
 Frequencies --   1152.0700              1170.4910              1172.9821
 Red. masses --      1.6921                 3.0281                 2.0134
 Frc consts  --      1.3232                 2.4443                 1.6322
 IR Inten    --     17.6775                27.3624                 0.5156

                     28                     29                     30
                      A                      A                      A
 Frequencies --   1215.0933              1272.0023              1292.6912
 Red. masses --      1.0878                 1.4678                 1.2124
 Frc consts  --      0.9462                 1.3992                 1.1936
 IR Inten    --     14.6676                 5.0337                 1.9529

                     31                     32                     33
                      A                      A                      A
 Frequencies --   1334.8108              1359.8960              1378.5127
 Red. masses --      1.2547                 1.2221                 1.3946
 Frc consts  --      1.3171                 1.3315                 1.5614
 IR Inten    --     21.7937                 6.8347                16.5774

                     34                     35                     36
                      A                      A                      A
 Frequencies --   1410.5014              1417.3552              1470.5864
 Red. masses --      1.2415                 1.2284                 1.6271
 Frc consts  --      1.4552                 1.4539                 2.0732
 IR Inten    --      1.5055                92.0263                 7.2003

                     37                     38                     39
                      A                      A                      A
 Frequencies --   1475.7056              1487.3497              1499.2343
 Red. masses --      1.4015                 1.0777                 1.0453
 Frc consts  --      1.7982                 1.4047                 1.3843
 IR Inten    --      6.1735                 0.5253                 6.3291

                     40                     41                     42
                      A                      A                      A
 Frequencies --   1508.1382              2355.8776              2978.0774
 Red. masses --      1.0884                11.8747                 1.0711
 Frc consts  --      1.4586                38.8311                 5.5968
 IR Inten    --      4.5803                 0.8210                46.0272

                     43                     44                     45
                      A                      A                      A
 Frequencies --   3029.3250              3038.1175              3064.7812
 Red. masses --      1.0606                 1.0358                 1.0885
 Frc consts  --      5.7342                 5.6332                 6.0239
 IR Inten    --     18.7903                26.6396                15.9489

                     46                     47                     48
                      A                      A                      A
 Frequencies --   3068.1589              3094.5520              3107.4855
 Red. masses --      1.0987                 1.0900                 1.0992
 Frc consts  --      6.0936                 6.1502                 6.2538
 IR Inten    --      3.8086                10.1829                22.3360

                     49                     50                     51
                      A                      A                      A
 Frequencies --   3111.6427              3118.3739              3816.7601
 Red. masses --      1.0865                 1.1025                 1.0663
 Frc consts  --      6.1984                 6.3165                 9.1520
 IR Inten    --     46.4134                26.4571                19.1436

 - Thermochemistry -
 -------------------
 Temperature   298.150 Kelvin.  Pressure   1.00000 Atm.
 Atom     1 has atomic number  6 and mass  12.00000

 Molecular mass:   126.06808 amu.
 Principal axes and moments of inertia in atomic units:
                           1         2         3
     Eigenvalues --   360.363453360.771513514.77664
           X            0.99990  -0.01371  -0.00428
           Y            0.01333   0.99685  -0.07817
           Z            0.00534   0.07811   0.99693
 This molecule is an asymmetric top.
 Rotational symmetry number  1.
 Rotational temperatures (Kelvin)      0.24035     0.02577     0.02464
 Rotational constants (GHZ):           5.00811     0.53700     0.51347
 Zero-point vibrational energy     411053.9 (Joules/Mol)
                                   98.24424 (Kcal/Mol)
 Warning -- explicit consideration of  14 degrees of freedom as
           vibrations may cause significant error
 Vibrational temperatures:     36.86    78.33   126.45   140.20   255.45
          (Kelvin)            293.20   343.78   410.32   480.24   509.36
                              582.09   685.36   809.32   854.84  1080.05
                             1147.74  1206.45  1308.33  1326.28  1414.06
                             1468.71  1509.51  1545.65  1555.17  1657.57
                             1684.07  1687.66  1748.25  1830.13  1859.89
                             1920.49  1956.58  1983.37  2029.39  2039.26
                             2115.84  2123.21  2139.96  2157.06  2169.87
                             3389.58  4284.78  4358.52  4371.17  4409.53
                             4414.39  4452.36  4470.97  4476.95  4486.64
                             5491.46

 Zero-point correction=                           0.156562 (Hartree/Particle)
 Thermal correction to Energy=                    0.166992
 Thermal correction to Enthalpy=                  0.167936
 Thermal correction to Gibbs Free Energy=         0.119117
 Sum of electronic and zero-point Energies=           -422.971757
 Sum of electronic and thermal Energies=              -422.961328
 Sum of electronic and thermal Enthalpies=            -422.960384
 Sum of electronic and thermal Free Energies=         -423.009202

                     E (Thermal)             CV                S
                      KCal/Mol        Cal/Mol-Kelvin    Cal/Mol-Kelvin
 Total                  104.789             35.886            102.748
 Electronic               0.000              0.000              0.000
 Translational            0.889              2.981             40.409
 Rotational               0.889              2.981             29.833
 Vibrational            103.011             29.925             32.506
 Vibration     1          0.593              1.985              6.143
 Vibration     2          0.596              1.976              4.649
 Vibration     3          0.601              1.958              3.707
 Vibration     4          0.603              1.951              3.505
 Vibration     5          0.628              1.870              2.354
 Vibration     6          0.639              1.835              2.099
 Vibration     7          0.657              1.781              1.811
 Vibration     8          0.683              1.701              1.502
 Vibration     9          0.715              1.608              1.242
 Vibration    10          0.730              1.567              1.148
 Vibration    11          0.770              1.460              0.946
 Vibration    12          0.833              1.303              0.720
 Vibration    13          0.918              1.112              0.519
 Vibration    14          0.952              1.044              0.460

 Optimization completed.
    -- Stationary point found.
 Normal termination of Gaussian 09 at Tue Jan 28 08:41:46 2020.
