 Gaussian 09, Revision D.01,
 Gaussian 09:  ES64L-G09RevD.01 24-Apr-2013

 -----------------------------
 # b3lyp 6-31G(2df,p) opt Freq
 -----------------------------

 -----
 titel
 -----
 Symbolic Z-matrix:
 Charge =  0 Multiplicity = 1

 SCF Done:  E(RB3LYP) =  -423.169014748     A.U. after   14 cycles
 Optimization completed.
    -- Stationary point found.
 Normal termination of Gaussian 09 at Mon Jan 27 14:07:44 2020.

 ----------------------------------------------------------------------
 #N Geom=AllCheck Guess=TCheck SCRF=Check GenChk RB3LYP/6-31G(2df,p) Fr
 eq
 ----------------------------------------------------------------------

 Structure from the checkpoint file:  "/scratch/puck/g09_a2c8a15b-75e8-4a11-9a66-c4710f09eca7/Gau-171891.chk"
 -----
 titel
 -----
 Charge =  0 Multiplicity = 1

                         Standard orientation:
 ---------------------------------------------------------------------
 Center     Atomic      Atomic             Coordinates (Angstroms)
 Number     Number       Type             X           Y           Z
 ---------------------------------------------------------------------
      1          6           0        2.576281   -0.829055    0.819118
      2          6           0        2.040759    0.334089    0.011603
      3          8           0        2.624726    1.388458   -0.101684
      4          6           0        0.723907    0.140784   -0.691013
      5          8           0        0.209262   -1.190858   -0.809914
      6          6           0       -0.494022   -0.285740    0.037380
      7          6           0       -1.853048    0.147319   -0.386266
      8          6           0       -3.068287   -0.463225    0.273740
      9          6           0       -2.696407    0.964861    0.564313
     10          1           0        3.506917   -0.533306    1.303892
     11          1           0        1.853077   -1.160214    1.571583
     12          1           0        2.747547   -1.686037    0.159631
     13          1           0        0.594822    0.779724   -1.563814
     14          1           0       -0.394229   -0.506357    1.102639
     15          1           0       -1.933992    0.378726   -1.443578
     16          1           0       -3.934449   -0.659471   -0.347566
     17          1           0       -2.902360   -1.201050    1.051768
     18          1           0       -3.303461    1.758586    0.144847
     19          1           0       -2.280871    1.194399    1.540132
 ---------------------------------------------------------------------

 SCF Done:  E(RB3LYP) =  -423.169014748     A.U. after    1 cycles

 The electronic state is 1-A.
 Alpha  occ. eigenvalues --  -19.16559 -19.13058 -10.27300 -10.25692 -10.24451
 Alpha  occ. eigenvalues --  -10.20676 -10.19934 -10.19804 -10.18843  -1.08707
 Alpha  occ. eigenvalues --   -1.04034  -0.87089  -0.75356  -0.70248  -0.67537
 Alpha  occ. eigenvalues --   -0.61170  -0.59090  -0.55171  -0.51457  -0.49392
 Alpha  occ. eigenvalues --   -0.47977  -0.44946  -0.43970  -0.42894  -0.40824
 Alpha  occ. eigenvalues --   -0.39476  -0.37874  -0.37572  -0.36895  -0.33866
 Alpha  occ. eigenvalues --   -0.31270  -0.28933  -0.28285  -0.24470
 Alpha virt. eigenvalues --   -0.02282   0.08158   0.08845   0.09849   0.10088
 Alpha virt. eigenvalues --    0.12283   0.13190   0.14007   0.15441   0.16290
 Alpha virt. eigenvalues --    0.16735   0.17987   0.20150   0.21541   0.21899

 Mulliken charges:
               1
     1  C   -0.483696
     2  C    0.359943
     3  O   -0.302609
     4  C   -0.068074
     5  O   -0.246684
     6  C    0.060413
     7  C   -0.004440
     8  C   -0.267719
     9  C   -0.268458
    10  H    0.140200
    11  H    0.140448
    12  H    0.156933
    13  H    0.112711
    14  H    0.092199
    15  H    0.096187
    16  H    0.122292
    17  H    0.118716
    18  H    0.122735
    19  H    0.118903
 Sum of Mulliken charges =   0.00000

 Dipole moment (field-independent basis, Debye):
    X=             -2.2178    Y=             -0.8550    Z=              0.9614  Tot=              2.5639
 Quadrupole moment (field-independent basis, Debye-Ang):
   XX=            -54.2619   YY=            -58.1711   ZZ=            -50.9790
   XY=             -6.7538   XZ=              1.7126   YZ=             -2.4012

  Exact polarizability:  98.781   2.909  70.839  -0.178  -3.411  64.961
 Approx polarizability: 122.485  11.869 116.160  -4.387  -2.836  99.046

                      1                      2                      3
                      A                      A                      A
 Frequencies --     52.9875                82.8947               114.3181
 Red. masses --      3.2413                 3.1379                 3.0348
 Frc consts  --      0.0054                 0.0127                 0.0234
 IR Inten    --      2.7719                 1.8213                 1.3276

                      4                      5                      6
                      A                      A                      A
 Frequencies --    117.6861               155.5854               252.4713
 Red. masses --      1.1711                 3.1991                 3.4569
 Frc consts  --      0.0096                 0.0456                 0.1298
 IR Inten    --      0.1062                 3.5217                 6.9976

                      7                      8                      9
                      A                      A                      A
 Frequencies --    297.8966               348.0248               462.2434
 Red. masses --      3.1432                 3.8502                 3.3828
 Frc consts  --      0.1643                 0.2748                 0.4259
 IR Inten    --      2.8189                 1.6141                 4.3674

                     10                     11                     12
                      A                      A                      A
 Frequencies --    493.5687               531.3849               591.2483
 Red. masses --      6.9339                 3.2045                 2.4758
 Frc consts  --      0.9952                 0.5331                 0.5099
 IR Inten    --      1.2784                25.8450                 3.5374

                     13                     14                     15
                      A                      A                      A
 Frequencies --    766.7235               787.3170               827.9126
 Red. masses --      1.1833                 2.8838                 1.4084
 Frc consts  --      0.4099                 1.0532                 0.5688
 IR Inten    --      1.3694                 4.2523                 1.0440

                     16                     17                     18
                      A                      A                      A
 Frequencies --    856.5027               885.0229               897.2462
 Red. masses --      2.0253                 4.8125                 4.4187
 Frc consts  --      0.8754                 2.2209                 2.0959
 IR Inten    --      2.6232                15.8043                40.6241

                     19                     20                     21
                      A                      A                      A
 Frequencies --    927.2659               982.6557              1005.4967
 Red. masses --      3.0886                 2.3161                 1.8300
 Frc consts  --      1.5647                 1.3177                 1.0901
 IR Inten    --      3.8059                41.7991                 0.7632

                     22                     23                     24
                      A                      A                      A
 Frequencies --   1027.8168              1064.0550              1081.4841
 Red. masses --      1.5477                 1.3270                 1.3375
 Frc consts  --      0.9633                 0.8852                 0.9217
 IR Inten    --      0.2768                 3.2744                 1.8510

                     25                     26                     27
                      A                      A                      A
 Frequencies --   1096.1598              1123.8302              1141.4740
 Red. masses --      1.4943                 1.2197                 1.2281
 Frc consts  --      1.0578                 0.9076                 0.9428
 IR Inten    --      3.7038                 2.4374                 2.2519

                     28                     29                     30
                      A                      A                      A
 Frequencies --   1197.9249              1208.6897              1224.0075
 Red. masses --      1.3783                 2.2693                 1.8390
 Frc consts  --      1.1653                 1.9533                 1.6233
 IR Inten    --      0.1642                 1.8168                10.8023

                     31                     32                     33
                      A                      A                      A
 Frequencies --   1239.0549              1265.2796              1321.6438
 Red. masses --      2.4027                 1.7516                 1.2679
 Frc consts  --      2.1734                 1.6522                 1.3049
 IR Inten    --     14.7832                83.8163                 1.7450

                     34                     35                     36
                      A                      A                      A
 Frequencies --   1369.0574              1385.2960              1453.9649
 Red. masses --      1.8651                 1.3276                 1.0675
 Frc consts  --      2.0596                 1.5011                 1.3296
 IR Inten    --     20.5109                35.8278                15.1056

                     37                     38                     39
                      A                      A                      A
 Frequencies --   1468.4827              1470.1877              1482.5009
 Red. masses --      1.1285                 1.0860                 1.6453
 Frc consts  --      1.4337                 1.3830                 2.1305
 IR Inten    --     19.5059                 1.4859                21.4929

                     40                     41                     42
                      A                      A                      A
 Frequencies --   1508.5599              1804.2877              3046.3192
 Red. masses --      1.6156                10.9036                 1.0361
 Frc consts  --      2.1663                20.9137                 5.6651
 IR Inten    --      6.0956               179.9166                 1.3437

                     43                     44                     45
                      A                      A                      A
 Frequencies --   3083.9701              3107.1006              3128.8848
 Red. masses --      1.0867                 1.0972                 1.0882
 Frc consts  --      6.0894                 6.2409                 6.2766
 IR Inten    --     14.4978                 6.7020                11.9267

                     46                     47                     48
                      A                      A                      A
 Frequencies --   3134.3680              3138.5200              3158.5130
 Red. masses --      1.0511                 1.0588                 1.1033
 Frc consts  --      6.0841                 6.1449                 6.4851
 IR Inten    --     16.2333                 9.4062                 9.8988

                     49                     50                     51
                      A                      A                      A
 Frequencies --   3161.8854              3214.1516              3228.9275
 Red. masses --      1.0896                 1.1176                 1.1152
 Frc consts  --      6.4180                 6.8024                 6.8502
 IR Inten    --      6.7082                 0.2077                14.6776

 - Thermochemistry -
 -------------------
 Temperature   298.150 Kelvin.  Pressure   1.00000 Atm.
 Atom     1 has atomic number  6 and mass  12.00000

 Molecular mass:   126.06808 amu.
 Principal axes and moments of inertia in atomic units:
                           1         2         3
     Eigenvalues --   480.446122154.690602319.86437
           X            0.99971  -0.02269   0.00864
           Y            0.02338   0.99569  -0.08972
           Z           -0.00657   0.08990   0.99593
 This molecule is an asymmetric top.
 Rotational symmetry number  1.
 Warning -- assumption of classical behavior for rotation
           may cause significant error
 Rotational temperatures (Kelvin)      0.18028     0.04020     0.03734
 Rotational constants (GHZ):           3.75639     0.83759     0.77795
 Zero-point vibrational energy     411353.0 (Joules/Mol)
                                   98.31572 (Kcal/Mol)
 Warning -- explicit consideration of  12 degrees of freedom as
           vibrations may cause significant error
 Vibrational temperatures:     76.24   119.27   164.48   169.32   223.85
          (Kelvin)            363.25   428.61   500.73   665.06   710.13
                              764.54   850.67  1103.14  1132.77  1191.18
                             1232.31  1273.35  1290.94  1334.13  1413.82
                             1446.68  1478.80  1530.94  1556.01  1577.13
                             1616.94  1642.32  1723.54  1739.03  1761.07
                             1782.72  1820.45  1901.55  1969.77  1993.13
                             2091.93  2112.82  2115.27  2132.99  2170.48
                             2595.96  4382.97  4437.14  4470.42  4501.76
                             4509.65  4515.62  4544.39  4549.24  4624.44
                             4645.70

 Zero-point correction=                           0.156676 (Hartree/Particle)
 Thermal correction to Energy=                    0.166095
 Thermal correction to Enthalpy=                  0.167040
 Thermal correction to Gibbs Free Energy=         0.121399
 Sum of electronic and zero-point Energies=           -423.012339
 Sum of electronic and thermal Energies=              -423.002919
 Sum of electronic and thermal Enthalpies=            -423.001975
 Sum of electronic and thermal Free Energies=         -423.047615

                     E (Thermal)             CV                S
                      KCal/Mol        Cal/Mol-Kelvin    Cal/Mol-Kelvin
 Total                  104.226             33.803             96.058
 Electronic               0.000              0.000              0.000
 Translational            0.889              2.981             40.409
 Rotational               0.889              2.981             29.264
 Vibrational            102.449             27.841             26.385
 Vibration     1          0.596              1.976              4.703
 Vibration     2          0.600              1.961              3.821
 Vibration     3          0.607              1.938              3.194
 Vibration     4          0.608              1.935              3.138
 Vibration     5          0.620              1.896              2.603
 Vibration     6          0.664              1.759              1.713
 Vibration     7          0.691              1.678              1.429
 Vibration     8          0.726              1.579              1.175
 Vibration     9          0.820              1.334              0.760
 Vibration    10          0.849              1.264              0.674
 Vibration    11          0.886              1.181              0.584
 Vibration    12          0.949              1.050              0.465

 Optimization completed.
    -- Stationary point found.
 Normal termination of Gaussian 09 at Mon Jan 27 14:44:55 2020.
