 Gaussian 09, Revision D.01,
 Gaussian 09:  ES64L-G09RevD.01 24-Apr-2013

 -----------------------------
 # b3lyp 6-31G(2df,p) opt Freq
 -----------------------------

 -----
 titel
 -----
 Symbolic Z-matrix:
 Charge =  0 Multiplicity = 1

 SCF Done:  E(RB3LYP) =  -423.194227719     A.U. after   14 cycles
 Optimization completed.
    -- Stationary point found.
 Normal termination of Gaussian 09 at Tue Jan 28 09:59:25 2020.

 ----------------------------------------------------------------------
 #N Geom=AllCheck Guess=TCheck SCRF=Check GenChk RB3LYP/6-31G(2df,p) Fr
 eq
 ----------------------------------------------------------------------

 Structure from the checkpoint file:  "/scratch/puck/g09_f79e3e3b-bbdc-4f60-96ec-a8653b2bcf07/Gau-83954.chk"
 -----
 titel
 -----
 Charge =  0 Multiplicity = 1

                         Standard orientation:
 ---------------------------------------------------------------------
 Center     Atomic      Atomic             Coordinates (Angstroms)
 Number     Number       Type             X           Y           Z
 ---------------------------------------------------------------------
      1          6           0        2.365091   -0.015448    0.800504
      2          8           0        1.699947   -0.501319   -0.359542
      3          6           0        0.332229   -0.336186   -0.346396
      4          6           0       -0.471060   -1.361423   -1.114096
      5          6           0       -0.647623   -1.273364    0.372795
      6          6           0       -1.835432   -0.456463    0.875307
      7          6           0       -1.738281    0.904163    0.146468
      8          6           0       -0.269272    1.039108   -0.276268
      9          8           0        0.330179    2.073402   -0.442231
     10          1           0        1.980626   -0.498284    1.710322
     11          1           0        3.419832   -0.271362    0.681309
     12          1           0        2.263215    1.070387    0.894264
     13          1           0       -1.263255   -1.041442   -1.783214
     14          1           0        0.133994   -2.181329   -1.484333
     15          1           0       -0.261658   -2.084371    0.979395
     16          1           0       -2.789960   -0.962234    0.695983
     17          1           0       -1.746603   -0.306924    1.956408
     18          1           0       -2.367118    0.939931   -0.751033
     19          1           0       -2.023985    1.756641    0.765205
 ---------------------------------------------------------------------

 SCF Done:  E(RB3LYP) =  -423.194227719     A.U. after    1 cycles

 The electronic state is 1-A.
 Alpha  occ. eigenvalues --  -19.15161 -19.12673 -10.26461 -10.24537 -10.22250
 Alpha  occ. eigenvalues --  -10.20594 -10.20022 -10.19963 -10.19402  -1.05352
 Alpha  occ. eigenvalues --   -1.03004  -0.88711  -0.77300  -0.70260  -0.67550
 Alpha  occ. eigenvalues --   -0.63168  -0.57712  -0.53856  -0.50430  -0.47839
 Alpha  occ. eigenvalues --   -0.46137  -0.45071  -0.44258  -0.42682  -0.41545
 Alpha  occ. eigenvalues --   -0.40313  -0.38531  -0.36077  -0.35365  -0.34484
 Alpha  occ. eigenvalues --   -0.31468  -0.29575  -0.26550  -0.22706
 Alpha virt. eigenvalues --   -0.01472   0.08377   0.09051   0.11191   0.12027
 Alpha virt. eigenvalues --    0.13662   0.13934   0.15301   0.15751   0.17495
 Alpha virt. eigenvalues --    0.18200   0.18985   0.19465   0.20797   0.22273

 Mulliken charges:
               1
     1  C   -0.262425
     2  O   -0.280583
     3  C    0.340733
     4  C   -0.337318
     5  C   -0.113809
     6  C   -0.226218
     7  C   -0.338825
     8  C    0.342551
     9  O   -0.336052
    10  H    0.102098
    11  H    0.129293
    12  H    0.142193
    13  H    0.119001
    14  H    0.135579
    15  H    0.101027
    16  H    0.107172
    17  H    0.111928
    18  H    0.131754
    19  H    0.131901
 Sum of Mulliken charges =   0.00000

 Dipole moment (field-independent basis, Debye):
    X=             -1.7133    Y=             -2.1147    Z=              1.4587  Tot=              3.0879
 Quadrupole moment (field-independent basis, Debye-Ang):
   XX=            -50.2148   YY=            -58.2250   ZZ=            -51.4971
   XY=             -1.5436   XZ=              3.2379   YZ=              1.5690

  Exact polarizability:  83.221   2.287  77.340   0.502   1.271  65.820
 Approx polarizability: 113.023   9.373 120.007  -1.172   0.013 100.625

                      1                      2                      3
                      A                      A                      A
 Frequencies --     98.9150               117.3816               174.1917
 Red. masses --      2.5760                 2.9546                 1.3741
 Frc consts  --      0.0148                 0.0240                 0.0246
 IR Inten    --      4.0758                 2.3492                 0.1732

                      4                      5                      6
                      A                      A                      A
 Frequencies --    197.7170               217.5414               321.0464
 Red. masses --      2.1729                 2.3592                 5.4944
 Frc consts  --      0.0500                 0.0658                 0.3337
 IR Inten    --      3.9662                 1.7659                 3.0668

                      7                      8                      9
                      A                      A                      A
 Frequencies --    375.0894               454.3512               476.7338
 Red. masses --      2.4220                 3.3110                 3.2584
 Frc consts  --      0.2008                 0.4027                 0.4363
 IR Inten    --      0.7825                 2.2800                 1.9468

                     10                     11                     12
                      A                      A                      A
 Frequencies --    534.6409               596.2791               660.7816
 Red. masses --      4.5289                 2.6755                 4.0964
 Frc consts  --      0.7627                 0.5605                 1.0538
 IR Inten    --      6.5293                 1.7898                 7.8035

                     13                     14                     15
                      A                      A                      A
 Frequencies --    673.7604               802.5346               823.3250
 Red. masses --      3.4252                 1.9885                 1.7245
 Frc consts  --      0.9161                 0.7546                 0.6887
 IR Inten    --     10.4293                 5.5783                 2.1077

                     16                     17                     18
                      A                      A                      A
 Frequencies --    874.9696               906.9960               941.7300
 Red. masses --      2.3804                 2.3702                 1.9536
 Frc consts  --      1.0737                 1.1488                 1.0208
 IR Inten    --      3.0952                 5.5706                 1.4857

                     19                     20                     21
                      A                      A                      A
 Frequencies --    976.5331              1024.1458              1042.7807
 Red. masses --      2.2551                 2.9066                 1.4767
 Frc consts  --      1.2670                 1.7962                 0.9461
 IR Inten    --      8.5399                30.3840                16.3980

                     22                     23                     24
                      A                      A                      A
 Frequencies --   1052.3058              1087.4367              1100.3814
 Red. masses --      1.6854                 1.6712                 1.9161
 Frc consts  --      1.0996                 1.1644                 1.3669
 IR Inten    --     24.8454                15.2261                 8.8003

                     25                     26                     27
                      A                      A                      A
 Frequencies --   1110.9847              1177.3459              1179.4245
 Red. masses --      3.2401                 1.3120                 1.3314
 Frc consts  --      2.3563                 1.0715                 1.0912
 IR Inten    --     64.7718                 3.4362                 3.1037

                     28                     29                     30
                      A                      A                      A
 Frequencies --   1219.1512              1224.4390              1266.3825
 Red. masses --      1.4300                 1.4554                 1.9586
 Frc consts  --      1.2523                 1.2856                 1.8507
 IR Inten    --      5.6276                 1.9173                44.2848

                     31                     32                     33
                      A                      A                      A
 Frequencies --   1281.8947              1325.5679              1336.9708
 Red. masses --      1.4736                 2.6310                 1.9024
 Frc consts  --      1.4267                 2.7238                 2.0035
 IR Inten    --      2.1130                 7.2650                32.2737

                     34                     35                     36
                      A                      A                      A
 Frequencies --   1387.7137              1458.3570              1471.7794
 Red. masses --      1.9865                 1.1070                 1.1326
 Frc consts  --      2.2539                 1.3872                 1.4454
 IR Inten    --     33.2231                 4.3018                 2.3402

                     37                     38                     39
                      A                      A                      A
 Frequencies --   1486.3910              1490.6826              1503.5976
 Red. masses --      1.0504                 1.3024                 1.1441
 Frc consts  --      1.3674                 1.7051                 1.5240
 IR Inten    --      6.2083                10.4596                 6.2967

                     40                     41                     42
                      A                      A                      A
 Frequencies --   1512.7979              1825.9637              3000.3807
 Red. masses --      1.0477                12.5328                 1.0426
 Frc consts  --      1.4127                24.6198                 5.5298
 IR Inten    --      8.8684               240.5925                46.8440

                     43                     44                     45
                      A                      A                      A
 Frequencies --   3041.5719              3047.3901              3079.5697
 Red. masses --      1.0596                 1.0690                 1.1032
 Frc consts  --      5.7755                 5.8492                 6.1640
 IR Inten    --     44.0160                 6.1153                22.8144

                     46                     47                     48
                      A                      A                      A
 Frequencies --   3083.9760              3119.0700              3130.9377
 Red. masses --      1.0918                 1.0957                 1.1018
 Frc consts  --      6.1179                 6.2806                 6.3637
 IR Inten    --     28.1186                 9.2227                22.3918

                     49                     50                     51
                      A                      A                      A
 Frequencies --   3131.4665              3181.7697              3224.0651
 Red. masses --      1.0560                 1.0914                 1.1156
 Frc consts  --      6.1010                 6.5096                 6.8321
 IR Inten    --      9.8984                 7.3631                 4.1367

 - Thermochemistry -
 -------------------
 Temperature   298.150 Kelvin.  Pressure   1.00000 Atm.
 Atom     1 has atomic number  6 and mass  12.00000

 Molecular mass:   126.06808 amu.
 Principal axes and moments of inertia in atomic units:
                           1         2         3
     Eigenvalues --   767.601441078.912081438.54368
           X            0.99972  -0.00574   0.02281
           Y            0.00524   0.99975   0.02193
           Z           -0.02293  -0.02180   0.99950
 This molecule is an asymmetric top.
 Rotational symmetry number  1.
 Warning -- assumption of classical behavior for rotation
           may cause significant error
 Rotational temperatures (Kelvin)      0.11284     0.08028     0.06021
 Rotational constants (GHZ):           2.35114     1.67274     1.25456
 Zero-point vibrational energy     417683.4 (Joules/Mol)
                                   99.82873 (Kcal/Mol)
 Warning -- explicit consideration of  11 degrees of freedom as
           vibrations may cause significant error
 Vibrational temperatures:    142.32   168.89   250.62   284.47   312.99
          (Kelvin)            461.91   539.67   653.71   685.91   769.23
                              857.91   950.72   969.39  1154.67  1184.58
                             1258.88  1304.96  1354.94  1405.01  1473.52
                             1500.33  1514.03  1564.58  1583.20  1598.46
                             1693.94  1696.93  1754.08  1761.69  1822.04
                             1844.36  1907.19  1923.60  1996.61  2098.25
                             2117.56  2138.58  2144.76  2163.34  2176.58
                             2627.15  4316.87  4376.14  4384.51  4430.81
                             4437.15  4487.64  4504.72  4505.48  4577.85
                             4638.70

 Zero-point correction=                           0.159087 (Hartree/Particle)
 Thermal correction to Energy=                    0.167574
 Thermal correction to Enthalpy=                  0.168519
 Thermal correction to Gibbs Free Energy=         0.126034
 Sum of electronic and zero-point Energies=           -423.035141
 Sum of electronic and thermal Energies=              -423.026653
 Sum of electronic and thermal Enthalpies=            -423.025709
 Sum of electronic and thermal Free Energies=         -423.068193

                     E (Thermal)             CV                S
                      KCal/Mol        Cal/Mol-Kelvin    Cal/Mol-Kelvin
 Total                  105.154             32.186             89.415
 Electronic               0.000              0.000              0.000
 Translational            0.889              2.981             40.409
 Rotational               0.889              2.981             28.568
 Vibrational            103.377             26.224             20.439
 Vibration     1          0.604              1.950              3.476
 Vibration     2          0.608              1.935              3.143
 Vibration     3          0.627              1.874              2.390
 Vibration     4          0.637              1.843              2.154
 Vibration     5          0.646              1.814              1.979
 Vibration     6          0.707              1.633              1.305
 Vibration     7          0.746              1.523              1.059
 Vibration     8          0.813              1.351              0.783
 Vibration     9          0.833              1.302              0.719
 Vibration    10          0.890              1.173              0.577
 Vibration    11          0.954              1.040              0.456

 Normal termination of Gaussian 09 at Tue Jan 28 10:53:06 2020.
