 Gaussian 09, Revision D.01,
 Gaussian 09:  ES64L-G09RevD.01 24-Apr-2013

 -----------------------------
 # b3lyp 6-31G(2df,p) opt Freq
 -----------------------------

 -----
 titel
 -----
 Symbolic Z-matrix:
 Charge =  0 Multiplicity = 1

 SCF Done:  E(RB3LYP) =  -423.131082398     A.U. after   14 cycles
 Optimization completed.
    -- Stationary point found.
 Normal termination of Gaussian 09 at Tue Jan 28 00:43:34 2020.

 ----------------------------------------------------------------------
 #N Geom=AllCheck Guess=TCheck SCRF=Check GenChk RB3LYP/6-31G(2df,p) Fr
 eq
 ----------------------------------------------------------------------

 Structure from the checkpoint file:  "/scratch/puck/g09_dd248ab3-f0f9-4802-85b4-336293950b7f/Gau-983.chk"
 -----
 titel
 -----
 Charge =  0 Multiplicity = 1

                         Standard orientation:
 ---------------------------------------------------------------------
 Center     Atomic      Atomic             Coordinates (Angstroms)
 Number     Number       Type             X           Y           Z
 ---------------------------------------------------------------------
      1          6           0       -2.399426   -0.153058   -0.456879
      2          6           0       -1.135370   -0.737179    0.148114
      3          6           0       -0.131077   -1.518412   -0.741877
      4          6           0        1.021479   -0.936513    0.093943
      5          8           0        2.181016   -0.627886   -0.622415
      6          6           0        0.049345    0.204914    0.584918
      7          8           0        0.124159    0.592767    1.943630
      8          6           0        0.167771    1.408132   -0.224068
      9          6           0        0.278733    2.385374   -0.914279
     10          1           0       -2.934492    0.465122    0.271659
     11          1           0       -2.165385    0.474321   -1.321462
     12          1           0       -3.076245   -0.949465   -0.784493
     13          1           0       -1.390673   -1.343732    1.027230
     14          1           0       -0.225812   -2.603917   -0.793643
     15          1           0       -0.094256   -1.107012   -1.754144
     16          1           0        1.238729   -1.575434    0.967219
     17          1           0        2.730904   -0.052903   -0.078997
     18          1           0       -0.008978   -0.199812    2.475050
     19          1           0        0.376083    3.254229   -1.517369
 ---------------------------------------------------------------------

 SCF Done:  E(RB3LYP) =  -423.131082398     A.U. after    1 cycles

 The electronic state is 1-A.
 Alpha  occ. eigenvalues --  -19.14604 -19.14036 -10.25532 -10.23655 -10.19727
 Alpha  occ. eigenvalues --  -10.18187 -10.18081 -10.17654 -10.17464  -1.03538
 Alpha  occ. eigenvalues --   -1.02111  -0.84710  -0.75122  -0.72545  -0.66883
 Alpha  occ. eigenvalues --   -0.61660  -0.58966  -0.52871  -0.51950  -0.51254
 Alpha  occ. eigenvalues --   -0.45154  -0.44357  -0.43227  -0.41610  -0.39735
 Alpha  occ. eigenvalues --   -0.37968  -0.36458  -0.33992  -0.33138  -0.30748
 Alpha  occ. eigenvalues --   -0.29062  -0.27539  -0.27371  -0.24151
 Alpha virt. eigenvalues --    0.03468   0.04765   0.06692   0.09252   0.11648
 Alpha virt. eigenvalues --    0.12531   0.13394   0.13642   0.15524   0.16627
 Alpha virt. eigenvalues --    0.17928   0.18323   0.19494   0.20267   0.22783

 Mulliken charges:
               1
     1  C   -0.416190
     2  C   -0.010664
     3  C   -0.265893
     4  C    0.118147
     5  O   -0.427525
     6  C    0.073105
     7  O   -0.474033
     8  C    0.396169
     9  C   -0.475275
    10  H    0.123305
    11  H    0.129910
    12  H    0.113965
    13  H    0.066240
    14  H    0.101877
    15  H    0.123547
    16  H    0.056159
    17  H    0.289150
    18  H    0.278600
    19  H    0.199406
 Sum of Mulliken charges =   0.00000

 Dipole moment (field-independent basis, Debye):
    X=             -0.4906    Y=             -1.0104    Z=              0.7511  Tot=              1.3512
 Quadrupole moment (field-independent basis, Debye-Ang):
   XX=            -52.3947   YY=            -50.9988   ZZ=            -52.1692
   XY=              2.8388   XZ=              2.2429   YZ=             -6.8790

  Exact polarizability:  73.522   3.667  85.822  -0.077  -9.888  71.417
 Approx polarizability:  97.476   6.570 128.888  -2.656 -21.091 113.049

                      1                      2                      3
                      A                      A                      A
 Frequencies --     90.6857               122.4052               155.3989
 Red. masses --      2.7531                 3.5000                 3.9137
 Frc consts  --      0.0133                 0.0309                 0.0557
 IR Inten    --      1.2333                 1.8769                 0.8810

                      4                      5                      6
                      A                      A                      A
 Frequencies --    199.4796               202.3515               241.4462
 Red. masses --      1.2591                 1.4095                 1.6468
 Frc consts  --      0.0295                 0.0340                 0.0566
 IR Inten    --     35.2774                20.4268                24.1110

                      7                      8                      9
                      A                      A                      A
 Frequencies --    280.2479               283.4150               320.4186
 Red. masses --      1.2845                 3.2636                 2.9186
 Frc consts  --      0.0594                 0.1545                 0.1765
 IR Inten    --    128.8692                30.1029                 2.4943

                     10                     11                     12
                      A                      A                      A
 Frequencies --    364.4639               456.5041               491.8388
 Red. masses --      4.7360                 2.9424                 3.6254
 Frc consts  --      0.3707                 0.3613                 0.5167
 IR Inten    --      6.3810                 0.2312                 8.1379

                     13                     14                     15
                      A                      A                      A
 Frequencies --    504.4296               609.2206               623.5176
 Red. masses --      4.7783                 3.3243                 1.2400
 Frc consts  --      0.7163                 0.7269                 0.2840
 IR Inten    --      4.4520                 2.1885                39.4255

                     16                     17                     18
                      A                      A                      A
 Frequencies --    640.5730               672.6259               683.8910
 Red. masses --      4.3292                 1.2868                 3.9306
 Frc consts  --      1.0466                 0.3430                 1.0831
 IR Inten    --      4.0909                35.0931                 2.6681

                     19                     20                     21
                      A                      A                      A
 Frequencies --    846.0055               900.6104               915.2088
 Red. masses --      2.4138                 1.5356                 3.3654
 Frc consts  --      1.0179                 0.7339                 1.6608
 IR Inten    --      3.3488                 8.8366                14.6735

                     22                     23                     24
                      A                      A                      A
 Frequencies --    949.7023               986.8496              1078.4439
 Red. masses --      1.7631                 1.9142                 1.5957
 Frc consts  --      0.9369                 1.0983                 1.0935
 IR Inten    --     22.2445                 6.9239                17.7745

                     25                     26                     27
                      A                      A                      A
 Frequencies --   1110.5545              1125.8318              1131.2175
 Red. masses --      2.3938                 2.1157                 4.0639
 Frc consts  --      1.7395                 1.5800                 3.0640
 IR Inten    --      7.3046                 0.9355               165.6522

                     28                     29                     30
                      A                      A                      A
 Frequencies --   1164.0977              1199.6699              1238.1199
 Red. masses --      1.8387                 2.8765                 1.2554
 Frc consts  --      1.4681                 2.4391                 1.1338
 IR Inten    --      5.2274                42.8079                27.0344

                     31                     32                     33
                      A                      A                      A
 Frequencies --   1254.6531              1260.3240              1313.8858
 Red. masses --      1.4853                 1.3695                 1.3791
 Frc consts  --      1.3775                 1.2817                 1.4027
 IR Inten    --     25.2193                14.6576                52.8360

                     34                     35                     36
                      A                      A                      A
 Frequencies --   1357.8147              1398.8019              1409.8463
 Red. masses --      1.5272                 1.5728                 1.2707
 Frc consts  --      1.6589                 1.8132                 1.4882
 IR Inten    --      7.8716                29.0967                 6.4293

                     37                     38                     39
                      A                      A                      A
 Frequencies --   1435.0950              1489.1332              1492.1446
 Red. masses --      1.5368                 1.1220                 1.0493
 Frc consts  --      1.8647                 1.4659                 1.3764
 IR Inten    --      4.0411                 3.4947                 8.4695

                     40                     41                     42
                      A                      A                      A
 Frequencies --   1497.9864              2238.4933              2949.2895
 Red. masses --      1.0508                 5.9257                 1.0830
 Frc consts  --      1.3893                17.4945                 5.5503
 IR Inten    --      3.9512                 1.7807                58.2147

                     43                     44                     45
                      A                      A                      A
 Frequencies --   3015.5016              3034.4746              3072.6805
 Red. masses --      1.0829                 1.0360                 1.0582
 Frc consts  --      5.8019                 5.6207                 5.8866
 IR Inten    --     34.7534                24.1260                18.6275

                     46                     47                     48
                      A                      A                      A
 Frequencies --   3098.7115              3115.4987              3131.4235
 Red. masses --      1.1012                 1.1010                 1.1081
 Frc consts  --      6.2297                 6.2966                 6.4019
 IR Inten    --     21.6250                17.3088                27.9572

                     49                     50                     51
                      A                      A                      A
 Frequencies --   3501.7038              3805.1746              3806.8569
 Red. masses --      1.1625                 1.0656                 1.0659
 Frc consts  --      8.3983                 9.0908                 9.1011
 IR Inten    --     62.5389                13.5628                26.0268

 - Thermochemistry -
 -------------------
 Temperature   298.150 Kelvin.  Pressure   1.00000 Atm.
 Atom     1 has atomic number  6 and mass  12.00000

 Molecular mass:   126.06808 amu.
 Principal axes and moments of inertia in atomic units:
                           1         2         3
     Eigenvalues --  1003.646641129.518011367.91880
           X            0.99667   0.07317   0.03605
           Y           -0.07098   0.99576  -0.05851
           Z           -0.04018   0.05575   0.99764
 This molecule is an asymmetric top.
 Rotational symmetry number  1.
 Warning -- assumption of classical behavior for rotation
           may cause significant error
 Rotational temperatures (Kelvin)      0.08630     0.07668     0.06332
 Rotational constants (GHZ):           1.79818     1.59780     1.31933
 Zero-point vibrational energy     408337.6 (Joules/Mol)
                                   97.59503 (Kcal/Mol)
 Warning -- explicit consideration of  14 degrees of freedom as
           vibrations may cause significant error
 Vibrational temperatures:    130.48   176.11   223.58   287.01   291.14
          (Kelvin)            347.39   403.21   407.77   461.01   524.38
                              656.81   707.65   725.76   876.53   897.10
                              921.64   967.76   983.97  1217.21  1295.78
                             1316.78  1366.41  1419.85  1551.64  1597.84
                             1619.82  1627.57  1674.87  1726.06  1781.38
                             1805.16  1813.32  1890.39  1953.59  2012.56
                             2028.45  2064.78  2142.53  2146.86  2155.27
                             3220.69  4243.36  4338.63  4365.93  4420.90
                             4458.35  4482.50  4505.41  5038.16  5474.79
                             5477.21

 Zero-point correction=                           0.155528 (Hartree/Particle)
 Thermal correction to Energy=                    0.165561
 Thermal correction to Enthalpy=                  0.166506
 Thermal correction to Gibbs Free Energy=         0.121241
 Sum of electronic and zero-point Energies=           -422.975555
 Sum of electronic and thermal Energies=              -422.965521
 Sum of electronic and thermal Enthalpies=            -422.964577
 Sum of electronic and thermal Free Energies=         -423.009841

                     E (Thermal)             CV                S
                      KCal/Mol        Cal/Mol-Kelvin    Cal/Mol-Kelvin
 Total                  103.891             37.558             95.267
 Electronic               0.000              0.000              0.000
 Translational            0.889              2.981             40.409
 Rotational               0.889              2.981             28.830
 Vibrational            102.114             31.596             26.029
 Vibration     1          0.602              1.956              3.645
 Vibration     2          0.610              1.930              3.062
 Vibration     3          0.620              1.897              2.605
 Vibration     4          0.638              1.841              2.138
 Vibration     5          0.639              1.837              2.112
 Vibration     6          0.658              1.777              1.792
 Vibration     7          0.680              1.710              1.532
 Vibration     8          0.682              1.704              1.513
 Vibration     9          0.706              1.634              1.308
 Vibration    10          0.738              1.545              1.103
 Vibration    11          0.815              1.347              0.776
 Vibration    12          0.848              1.268              0.679
 Vibration    13          0.860              1.240              0.647
 Vibration    14          0.968              1.012              0.434

 Optimization completed.
    -- Stationary point found.
 Normal termination of Gaussian 09 at Tue Jan 28 01:26:04 2020.
