 Gaussian 09, Revision D.01,
 Gaussian 09:  ES64L-G09RevD.01 24-Apr-2013

 -----------------------------
 # b3lyp 6-31G(2df,p) opt Freq
 -----------------------------

 -----
 titel
 -----
 Symbolic Z-matrix:
 Charge =  0 Multiplicity = 1

 SCF Done:  E(RB3LYP) =  -423.150667187     A.U. after   14 cycles
 Optimization completed.
    -- Stationary point found.
 Normal termination of Gaussian 09 at Tue Jan 28 03:55:54 2020.

 ----------------------------------------------------------------------
 #N Geom=AllCheck Guess=TCheck SCRF=Check GenChk RB3LYP/6-31G(2df,p) Fr
 eq
 ----------------------------------------------------------------------

 Structure from the checkpoint file:  "/scratch/puck/g09_dfec1c83-f764-4d77-9a32-b27f74e7b590/Gau-92261.chk"
 -----
 titel
 -----
 Charge =  0 Multiplicity = 1

                         Standard orientation:
 ---------------------------------------------------------------------
 Center     Atomic      Atomic             Coordinates (Angstroms)
 Number     Number       Type             X           Y           Z
 ---------------------------------------------------------------------
      1          6           0        0.642156    2.161902   -0.057950
      2          6           0        0.222564    0.779311    0.430208
      3          6           0        1.375159   -0.237664    0.624003
      4          8           0        2.386364   -0.131121   -0.365537
      5          6           0        0.614244   -1.553498    0.493378
      6          8           0       -0.216422   -1.331602   -0.647369
      7          6           0       -0.723145    0.014759   -0.556094
      8          6           0       -2.121397    0.032311   -0.130821
      9          6           0       -3.267494    0.059411    0.230804
     10          1           0       -0.233828    2.791255   -0.243778
     11          1           0        1.265185    2.665301    0.687549
     12          1           0        1.224452    2.088815   -0.979902
     13          1           0       -0.296013    0.873484    1.389866
     14          1           0        1.872648   -0.112159    1.589330
     15          1           0        2.015860   -0.484747   -1.183512
     16          1           0        1.261626   -2.406411    0.276822
     17          1           0        0.014973   -1.769214    1.390689
     18          1           0       -0.653487    0.439775   -1.564813
     19          1           0       -4.283474    0.076498    0.539828
 ---------------------------------------------------------------------

 SCF Done:  E(RB3LYP) =  -423.150667187     A.U. after    1 cycles

 The electronic state is 1-A.
 Alpha  occ. eigenvalues --  -19.15071 -19.14062 -10.25775 -10.23710 -10.23102
 Alpha  occ. eigenvalues --  -10.19785 -10.18390 -10.17969 -10.17913  -1.05244
 Alpha  occ. eigenvalues --   -1.01575  -0.80570  -0.76943  -0.72902  -0.68673
 Alpha  occ. eigenvalues --   -0.61953  -0.59077  -0.54024  -0.50992  -0.50500
 Alpha  occ. eigenvalues --   -0.47749  -0.46008  -0.44279  -0.42505  -0.39995
 Alpha  occ. eigenvalues --   -0.38865  -0.36184  -0.35209  -0.33986  -0.32051
 Alpha  occ. eigenvalues --   -0.29654  -0.27569  -0.26233  -0.25833
 Alpha virt. eigenvalues --    0.02905   0.04921   0.08206   0.10110   0.12254
 Alpha virt. eigenvalues --    0.12433   0.13011   0.14268   0.15973   0.16546
 Alpha virt. eigenvalues --    0.16920   0.17071   0.17377   0.19605   0.21406

 Mulliken charges:
               1
     1  C   -0.407565
     2  C   -0.043453
     3  C    0.128590
     4  O   -0.438601
     5  C   -0.130391
     6  O   -0.271329
     7  C   -0.079684
     8  C    0.331235
     9  C   -0.454684
    10  H    0.120926
    11  H    0.120994
    12  H    0.124902
    13  H    0.093864
    14  H    0.088057
    15  H    0.289769
    16  H    0.117870
    17  H    0.101088
    18  H    0.108274
    19  H    0.200141
 Sum of Mulliken charges =   0.00000

 Dipole moment (field-independent basis, Debye):
    X=             -0.5190    Y=              0.5011    Z=              0.8071  Tot=              1.0825
 Quadrupole moment (field-independent basis, Debye-Ang):
   XX=            -54.6583   YY=            -53.9189   ZZ=            -50.5742
   XY=             -2.3958   XZ=             -1.5736   YZ=             -1.4163

  Exact polarizability:  96.973  -1.978  70.384  -3.985  -1.702  63.097
 Approx polarizability: 140.517  -3.409  95.088 -11.681   0.454 100.557

                      1                      2                      3
                      A                      A                      A
 Frequencies --     45.9670               126.5626               167.0859
 Red. masses --      4.4784                 3.9783                 2.8487
 Frc consts  --      0.0056                 0.0375                 0.0469
 IR Inten    --      0.5371                 1.5944                 2.9462

                      4                      5                      6
                      A                      A                      A
 Frequencies --    220.7915               239.0754               257.4812
 Red. masses --      1.1536                 4.6544                 3.3154
 Frc consts  --      0.0331                 0.1567                 0.1295
 IR Inten    --      1.0934                 5.6759                 2.4809

                      7                      8                      9
                      A                      A                      A
 Frequencies --    316.8847               418.7853               422.8743
 Red. masses --      3.1400                 1.5176                 1.5983
 Frc consts  --      0.1858                 0.1568                 0.1684
 IR Inten    --      2.9303                23.9430                54.0243

                     10                     11                     12
                      A                      A                      A
 Frequencies --    441.7800               524.5583               580.7067
 Red. masses --      3.5125                 5.4017                 4.4706
 Frc consts  --      0.4039                 0.8757                 0.8882
 IR Inten    --     13.0174                 5.4299                 5.8076

                     13                     14                     15
                      A                      A                      A
 Frequencies --    619.6888               671.4440               687.7192
 Red. masses --      1.2235                 1.3002                 3.9496
 Frc consts  --      0.2768                 0.3454                 1.1006
 IR Inten    --     42.4038                38.7690                 4.3572

                     16                     17                     18
                      A                      A                      A
 Frequencies --    752.6693               835.5733               890.1208
 Red. masses --      4.1526                 2.8384                 2.5588
 Frc consts  --      1.3861                 1.1676                 1.1945
 IR Inten    --      5.6356                 2.8192                26.5213

                     19                     20                     21
                      A                      A                      A
 Frequencies --    899.1075               932.6586               987.9792
 Red. masses --      2.1991                 3.6634                 1.9809
 Frc consts  --      1.0474                 1.8775                 1.1392
 IR Inten    --      4.3364                28.1597                30.2109

                     22                     23                     24
                      A                      A                      A
 Frequencies --   1008.0382              1040.8960              1057.2685
 Red. masses --      2.9633                 1.6253                 3.9955
 Frc consts  --      1.7741                 1.0375                 2.6314
 IR Inten    --     19.7725                 1.9226                98.3618

                     25                     26                     27
                      A                      A                      A
 Frequencies --   1094.3954              1133.9006              1164.2214
 Red. masses --      2.3905                 2.4044                 1.9914
 Frc consts  --      1.6869                 1.8214                 1.5903
 IR Inten    --     55.8286                24.3050                36.0374

                     28                     29                     30
                      A                      A                      A
 Frequencies --   1227.2133              1254.5857              1269.5876
 Red. masses --      1.1484                 1.5644                 1.3963
 Frc consts  --      1.0190                 1.4507                 1.3261
 IR Inten    --     22.9597                 2.9869                 2.7695

                     31                     32                     33
                      A                      A                      A
 Frequencies --   1289.6374              1343.6271              1349.3218
 Red. masses --      1.3682                 1.3731                 1.3099
 Frc consts  --      1.3407                 1.4605                 1.4052
 IR Inten    --      4.7441                 4.8368                15.2833

                     34                     35                     36
                      A                      A                      A
 Frequencies --   1376.8326              1381.3000              1409.6999
 Red. masses --      1.4220                 1.3496                 1.2402
 Frc consts  --      1.5883                 1.5172                 1.4521
 IR Inten    --      0.8298                11.4221                 5.1705

                     37                     38                     39
                      A                      A                      A
 Frequencies --   1431.4834              1492.3220              1500.3400
 Red. masses --      1.2533                 1.0502                 1.0469
 Frc consts  --      1.5131                 1.3780                 1.3884
 IR Inten    --     49.4523                 3.8608                 6.5044

                     40                     41                     42
                      A                      A                      A
 Frequencies --   1504.4925              2233.3598              2995.6015
 Red. masses --      1.0941                 5.9140                 1.0689
 Frc consts  --      1.4591                17.3800                 5.6515
 IR Inten    --      4.6321                 0.7041                44.0101

                     43                     44                     45
                      A                      A                      A
 Frequencies --   3028.8962              3042.3317              3055.2870
 Red. masses --      1.0831                 1.0362                 1.0843
 Frc consts  --      5.8543                 5.6510                 5.9635
 IR Inten    --     11.0150                26.4269                11.8291

                     46                     47                     48
                      A                      A                      A
 Frequencies --   3087.2320              3107.6629              3108.3389
 Red. masses --      1.0876                 1.1008                 1.0967
 Frc consts  --      6.1077                 6.2634                 6.2430
 IR Inten    --     31.5181                12.4663                32.0463

                     49                     50                     51
                      A                      A                      A
 Frequencies --   3125.2837              3501.9856              3783.9711
 Red. masses --      1.1009                 1.1623                 1.0655
 Frc consts  --      6.3352                 8.3986                 8.9890
 IR Inten    --     20.1845                65.3728                22.0540

 - Thermochemistry -
 -------------------
 Temperature   298.150 Kelvin.  Pressure   1.00000 Atm.
 Atom     1 has atomic number  6 and mass  12.00000

 Molecular mass:   126.06808 amu.
 Principal axes and moments of inertia in atomic units:
                           1         2         3
     Eigenvalues --   666.379981356.024571770.00401
           X            0.99999   0.00103  -0.00318
           Y           -0.00111   0.99967  -0.02562
           Z            0.00315   0.02563   0.99967
 This molecule is an asymmetric top.
 Rotational symmetry number  1.
 Warning -- assumption of classical behavior for rotation
           may cause significant error
 Rotational temperatures (Kelvin)      0.12998     0.06387     0.04893
 Rotational constants (GHZ):           2.70828     1.33091     1.01963
 Zero-point vibrational energy     415335.2 (Joules/Mol)
                                   99.26750 (Kcal/Mol)
 Warning -- explicit consideration of  13 degrees of freedom as
           vibrations may cause significant error
 Vibrational temperatures:     66.14   182.10   240.40   317.67   343.98
          (Kelvin)            370.46   455.93   602.54   608.42   635.62
                              754.72   835.51   891.59   966.06   989.47
                             1082.92  1202.20  1280.68  1293.61  1341.89
                             1421.48  1450.34  1497.62  1521.17  1574.59
                             1631.43  1675.05  1765.68  1805.07  1826.65
                             1855.50  1933.18  1941.37  1980.95  1987.38
                             2028.24  2059.58  2147.12  2158.65  2164.63
                             3213.30  4310.00  4357.90  4377.23  4395.87
                             4441.83  4471.23  4472.20  4496.58  5038.57
                             5444.28

 Zero-point correction=                           0.158193 (Hartree/Particle)
 Thermal correction to Energy=                    0.167332
 Thermal correction to Enthalpy=                  0.168276
 Thermal correction to Gibbs Free Energy=         0.124147
 Sum of electronic and zero-point Energies=           -422.992474
 Sum of electronic and thermal Energies=              -422.983335
 Sum of electronic and thermal Enthalpies=            -422.982391
 Sum of electronic and thermal Free Energies=         -423.026520

                     E (Thermal)             CV                S
                      KCal/Mol        Cal/Mol-Kelvin    Cal/Mol-Kelvin
 Total                  105.002             34.520             92.877
 Electronic               0.000              0.000              0.000
 Translational            0.889              2.981             40.409
 Rotational               0.889              2.981             28.860
 Vibrational            103.225             28.559             23.608
 Vibration     1          0.595              1.979              4.984
 Vibration     2          0.611              1.927              2.998
 Vibration     3          0.624              1.883              2.468
 Vibration     4          0.648              1.809              1.953
 Vibration     5          0.657              1.781              1.810
 Vibration     6          0.667              1.750              1.679
 Vibration     7          0.704              1.641              1.326
 Vibration     8          0.782              1.429              0.896
 Vibration     9          0.785              1.421              0.882
 Vibration    10          0.802              1.379              0.821
 Vibration    11          0.880              1.196              0.599
 Vibration    12          0.937              1.073              0.484
 Vibration    13          0.980              0.990              0.417

 Optimization completed.
    -- Stationary point found.
 Normal termination of Gaussian 09 at Tue Jan 28 04:46:10 2020.
