 Gaussian 09, Revision D.01,
 Gaussian 09:  ES64L-G09RevD.01 24-Apr-2013

 -----------------------------
 # b3lyp 6-31G(2df,p) opt Freq
 -----------------------------

 -----
 titel
 -----
 Symbolic Z-matrix:
 Charge =  0 Multiplicity = 1

 SCF Done:  E(RB3LYP) =  -423.171376588     A.U. after   15 cycles
 Optimization completed.
    -- Stationary point found.
 Normal termination of Gaussian 09 at Tue Jan 28 08:08:23 2020.

 ----------------------------------------------------------------------
 #N Geom=AllCheck Guess=TCheck SCRF=Check GenChk RB3LYP/6-31G(2df,p) Fr
 eq
 ----------------------------------------------------------------------

 Structure from the checkpoint file:  "/scratch/puck/g09_f280bcaf-3905-45d3-a0bb-1f549d344c68/Gau-127795.chk"
 -----
 titel
 -----
 Charge =  0 Multiplicity = 1

                         Standard orientation:
 ---------------------------------------------------------------------
 Center     Atomic      Atomic             Coordinates (Angstroms)
 Number     Number       Type             X           Y           Z
 ---------------------------------------------------------------------
      1          6           0       -3.772691    1.083307    0.141422
      2          6           0       -2.742540   -0.029197    0.065645
      3          8           0       -3.055175   -1.197385    0.102574
      4          6           0       -1.287838    0.406807   -0.058936
      5          6           0       -0.313910   -0.779332   -0.141905
      6          6           0        1.077831   -0.358304   -0.246511
      7          6           0        2.223061    0.004029   -0.345416
      8          6           0        3.616774    0.441950   -0.409661
      9          8           0        4.410449   -0.023926    0.674154
     10          1           0       -3.727293    1.706707   -0.758711
     11          1           0       -4.771349    0.657003    0.241934
     12          1           0       -3.563916    1.740862    0.992660
     13          1           0       -1.188079    1.051628   -0.941533
     14          1           0       -1.040916    1.050283    0.795379
     15          1           0       -0.449314   -1.416720    0.739157
     16          1           0       -0.585328   -1.408888   -0.996761
     17          1           0        4.094831    0.051830   -1.315298
     18          1           0        3.650180    1.541221   -0.484284
     19          1           0        3.934878    0.180996    1.485802
 ---------------------------------------------------------------------

 SCF Done:  E(RB3LYP) =  -423.171376588     A.U. after    1 cycles

 The electronic state is 1-A.
 Alpha  occ. eigenvalues --  -19.13842 -19.13595 -10.27767 -10.24980 -10.21056
 Alpha  occ. eigenvalues --  -10.20391 -10.19537 -10.17982 -10.17266  -1.04651
 Alpha  occ. eigenvalues --   -1.02002  -0.81202  -0.76538  -0.74390  -0.69349
 Alpha  occ. eigenvalues --   -0.64944  -0.53376  -0.52913  -0.49216  -0.48370
 Alpha  occ. eigenvalues --   -0.46715  -0.45101  -0.44239  -0.43441  -0.43016
 Alpha  occ. eigenvalues --   -0.38804  -0.38637  -0.37927  -0.35451  -0.35309
 Alpha  occ. eigenvalues --   -0.28435  -0.26495  -0.25593  -0.24471
 Alpha virt. eigenvalues --   -0.01740   0.03478   0.05441   0.08176   0.10494
 Alpha virt. eigenvalues --    0.11616   0.13111   0.13813   0.14882   0.15400
 Alpha virt. eigenvalues --    0.16588   0.17834   0.20010   0.20246   0.21905

 Mulliken charges:
               1
     1  C   -0.474664
     2  C    0.378058
     3  O   -0.286510
     4  C   -0.290074
     5  C   -0.361367
     6  C   -0.015210
     7  C    0.125711
     8  C   -0.190138
     9  O   -0.402668
    10  H    0.140674
    11  H    0.145680
    12  H    0.139507
    13  H    0.131515
    14  H    0.129875
    15  H    0.146074
    16  H    0.145559
    17  H    0.138741
    18  H    0.113454
    19  H    0.285782
 Sum of Mulliken charges =   0.00000

 Dipole moment (field-independent basis, Debye):
    X=             -1.2632    Y=              3.1108    Z=              0.1932  Tot=              3.3631
 Quadrupole moment (field-independent basis, Debye-Ang):
   XX=            -63.0619   YY=            -54.6377   ZZ=            -49.1505
   XY=             -4.2327   XZ=             -0.0922   YZ=              0.7372

  Exact polarizability: 117.100   5.561  69.605  -2.403  -0.727  59.785
 Approx polarizability: 148.747  17.981 110.155  -3.640  -2.045  90.325

                      1                      2                      3
                      A                      A                      A
 Frequencies --     18.6254                31.6640                61.8506
 Red. masses --      3.2022                 2.7775                 1.9832
 Frc consts  --      0.0007                 0.0016                 0.0045
 IR Inten    --      0.2231                 2.1322                 0.3078

                      4                      5                      6
                      A                      A                      A
 Frequencies --     74.1717               112.4516               137.6626
 Red. masses --      3.4009                 1.3225                 3.5376
 Frc consts  --      0.0110                 0.0099                 0.0395
 IR Inten    --      0.9227                 0.0227                 1.0802

                      7                      8                      9
                      A                      A                      A
 Frequencies --    197.7657               246.3549               292.9681
 Red. masses --      4.3564                 3.7146                 1.3606
 Frc consts  --      0.1004                 0.1328                 0.0688
 IR Inten    --     14.0550                 7.2793                87.7407

                     10                     11                     12
                      A                      A                      A
 Frequencies --    362.0995               373.0616               477.8989
 Red. masses --      3.3499                 2.7683                 1.8902
 Frc consts  --      0.2588                 0.2270                 0.2543
 IR Inten    --      6.3001                29.2604                 0.0396

                     13                     14                     15
                      A                      A                      A
 Frequencies --    503.1702               540.6954               591.0828
 Red. masses --      4.9735                 6.3800                 4.5957
 Frc consts  --      0.7419                 1.0989                 0.9460
 IR Inten    --      4.4771                10.8115                10.4636

                     16                     17                     18
                      A                      A                      A
 Frequencies --    738.4725               769.0971               849.7155
 Red. masses --      1.2892                 4.1772                 2.9177
 Frc consts  --      0.4142                 1.4558                 1.2412
 IR Inten    --      2.0350                 9.7382                 1.5256

                     19                     20                     21
                      A                      A                      A
 Frequencies --    917.2349               940.4894               989.5972
 Red. masses --      1.3661                 2.3071                 1.5979
 Frc consts  --      0.6771                 1.2023                 0.9220
 IR Inten    --      1.0430                12.6675                37.8566

                     22                     23                     24
                      A                      A                      A
 Frequencies --   1044.9166              1057.2808              1076.1259
 Red. masses --      5.8868                 3.2716                 1.8788
 Frc consts  --      3.7870                 2.1547                 1.2819
 IR Inten    --     86.7566                 1.2815                 2.2505

                     25                     26                     27
                      A                      A                      A
 Frequencies --   1157.6552              1177.5493              1186.1938
 Red. masses --      3.3697                 1.9351                 1.2896
 Frc consts  --      2.6607                 1.5810                 1.0691
 IR Inten    --     26.5688                60.7310                 0.5179

                     28                     29                     30
                      A                      A                      A
 Frequencies --   1215.5587              1298.6284              1305.5902
 Red. masses --      1.0880                 1.4126                 1.2619
 Frc consts  --      0.9471                 1.4035                 1.2673
 IR Inten    --     17.3954                 5.7340                 2.8408

                     31                     32                     33
                      A                      A                      A
 Frequencies --   1355.8253              1379.4641              1386.4586
 Red. masses --      1.2136                 1.3899                 1.6329
 Frc consts  --      1.3144                 1.5583                 1.8493
 IR Inten    --      2.8967                21.4437                67.0390

                     34                     35                     36
                      A                      A                      A
 Frequencies --   1420.0240              1448.8883              1464.3533
 Red. masses --      1.2393                 1.0687                 1.0582
 Frc consts  --      1.4723                 1.3218                 1.3369
 IR Inten    --    100.0364                 2.3574                 5.1934

                     37                     38                     39
                      A                      A                      A
 Frequencies --   1467.6715              1476.7174              1494.5748
 Red. masses --      1.0876                 1.0481                 1.0799
 Frc consts  --      1.3803                 1.3466                 1.4212
 IR Inten    --     15.5284                 8.4989                 0.7191

                     40                     41                     42
                      A                      A                      A
 Frequencies --   1810.7963              2361.7685              2969.6224
 Red. masses --     10.5536                11.8590                 1.0719
 Frc consts  --     20.3888                38.9739                 5.5695
 IR Inten    --    139.4842                13.6955                53.2138

                     43                     44                     45
                      A                      A                      A
 Frequencies --   3028.7285              3038.7498              3045.9570
 Red. masses --      1.0565                 1.0411                 1.0590
 Frc consts  --      5.7098                 5.6642                 5.7886
 IR Inten    --      5.7006                 5.7756                14.1753

                     46                     47                     48
                      A                      A                      A
 Frequencies --   3056.5157              3059.2918              3080.0438
 Red. masses --      1.0986                 1.0877                 1.1016
 Frc consts  --      6.0471                 5.9981                 6.1571
 IR Inten    --      1.0561                21.0727                 9.7754

                     49                     50                     51
                      A                      A                      A
 Frequencies --   3098.3171              3153.4145              3817.7360
 Red. masses --      1.0984                 1.1019                 1.0662
 Frc consts  --      6.2122                 6.4556                 9.1563
 IR Inten    --     10.6086                 9.8692                18.4695

 - Thermochemistry -
 -------------------
 Temperature   298.150 Kelvin.  Pressure   1.00000 Atm.
 Atom     1 has atomic number  6 and mass  12.00000

 Molecular mass:   126.06808 amu.
 Principal axes and moments of inertia in atomic units:
                           1         2         3
     Eigenvalues --   307.433993901.869984058.61102
           X            0.99995  -0.01000  -0.00252
           Y            0.01002   0.99993   0.00596
           Z            0.00246  -0.00598   0.99998
 This molecule is an asymmetric top.
 Rotational symmetry number  1.
 Rotational temperatures (Kelvin)      0.28173     0.02220     0.02134
 Rotational constants (GHZ):           5.87034     0.46253     0.44467
 Zero-point vibrational energy     407690.6 (Joules/Mol)
                                   97.44039 (Kcal/Mol)
 Warning -- explicit consideration of  15 degrees of freedom as
           vibrations may cause significant error
 Vibrational temperatures:     26.80    45.56    88.99   106.72   161.79
          (Kelvin)            198.07   284.54   354.45   421.52   520.98
                              536.75   687.59   723.95   777.94   850.44
                             1062.50  1106.56  1222.55  1319.69  1353.15
                             1423.81  1503.40  1521.19  1548.30  1665.61
                             1694.23  1706.67  1748.92  1868.43  1878.45
                             1950.73  1984.74  1994.80  2043.10  2084.62
                             2106.88  2111.65  2124.66  2150.36  2605.33
                             3398.05  4272.62  4357.66  4372.08  4382.45
                             4397.64  4401.63  4431.49  4457.78  4537.05
                             5492.86

 Zero-point correction=                           0.155281 (Hartree/Particle)
 Thermal correction to Energy=                    0.166484
 Thermal correction to Enthalpy=                  0.167428
 Thermal correction to Gibbs Free Energy=         0.115672
 Sum of electronic and zero-point Energies=           -423.016095
 Sum of electronic and thermal Energies=              -423.004893
 Sum of electronic and thermal Enthalpies=            -423.003949
 Sum of electronic and thermal Free Energies=         -423.055704

                     E (Thermal)             CV                S
                      KCal/Mol        Cal/Mol-Kelvin    Cal/Mol-Kelvin
 Total                  104.470             37.197            108.928
 Electronic               0.000              0.000              0.000
 Translational            0.889              2.981             40.409
 Rotational               0.889              2.981             29.966
 Vibrational            102.693             31.235             38.553
 Vibration     1          0.593              1.986              6.776
 Vibration     2          0.594              1.983              5.722
 Vibration     3          0.597              1.973              4.397
 Vibration     4          0.599              1.966              4.039
 Vibration     5          0.607              1.939              3.226
 Vibration     6          0.614              1.916              2.836
 Vibration     7          0.637              1.843              2.154
 Vibration     8          0.661              1.769              1.757
 Vibration     9          0.688              1.687              1.457
 Vibration    10          0.736              1.550              1.113
 Vibration    11          0.744              1.527              1.067
 Vibration    12          0.834              1.299              0.716
 Vibration    13          0.858              1.243              0.650
 Vibration    14          0.896              1.160              0.564
 Vibration    15          0.948              1.051              0.465

 Optimization completed.
    -- Stationary point found.
 Normal termination of Gaussian 09 at Tue Jan 28 08:38:14 2020.
