 Gaussian 09, Revision D.01,
 Gaussian 09:  ES64L-G09RevD.01 24-Apr-2013

 -----------------------------
 # b3lyp 6-31G(2df,p) opt Freq
 -----------------------------

 -----
 titel
 -----
 Symbolic Z-matrix:
 Charge =  0 Multiplicity = 1

 SCF Done:  E(RB3LYP) =  -423.150711709     A.U. after   14 cycles
 Optimization completed.
    -- Stationary point found.
 Normal termination of Gaussian 09 at Mon Jan 27 11:18:02 2020.

 ----------------------------------------------------------------------
 #N Geom=AllCheck Guess=TCheck SCRF=Check GenChk RB3LYP/6-31G(2df,p) Fr
 eq
 ----------------------------------------------------------------------

 Structure from the checkpoint file:  "/scratch/puck/g09_0d89ff00-ca0b-4160-bc7f-5c3dbf1e1146/Gau-42084.chk"
 -----
 titel
 -----
 Charge =  0 Multiplicity = 1

                         Standard orientation:
 ---------------------------------------------------------------------
 Center     Atomic      Atomic             Coordinates (Angstroms)
 Number     Number       Type             X           Y           Z
 ---------------------------------------------------------------------
      1          6           0       -1.200011    0.541186    1.150218
      2          6           0       -2.160388    0.392098   -0.035704
      3          8           0       -2.060305   -0.965780   -0.472977
      4          6           0       -1.079198   -0.037704   -0.938350
      5          6           0       -0.026533    0.147421    0.181565
      6          6           0        1.014517    1.235851   -0.108072
      7          6           0        2.205651    0.409730   -0.612842
      8          6           0        2.094901   -0.841774    0.265010
      9          8           0        0.702896   -1.011167    0.540255
     10          1           0       -1.105552    1.559139    1.537509
     11          1           0       -1.378203   -0.160606    1.966852
     12          1           0       -3.079239    0.923957   -0.250087
     13          1           0       -0.959015    0.063621   -2.012656
     14          1           0        0.658967    1.982805   -0.822786
     15          1           0        1.275638    1.756449    0.820124
     16          1           0        2.074222    0.149851   -1.668656
     17          1           0        3.165845    0.920204   -0.508030
     18          1           0        2.470116   -1.747939   -0.221711
     19          1           0        2.642860   -0.712752    1.210263
 ---------------------------------------------------------------------

 SCF Done:  E(RB3LYP) =  -423.150711709     A.U. after    1 cycles

 The electronic state is 1-A.
 Alpha  occ. eigenvalues --  -19.14615 -19.13252 -10.24013 -10.23466 -10.22812
 Alpha  occ. eigenvalues --  -10.22631 -10.19097 -10.19052 -10.18375  -1.07580
 Alpha  occ. eigenvalues --   -1.02921  -0.80537  -0.78034  -0.70141  -0.64719
 Alpha  occ. eigenvalues --   -0.60668  -0.59690  -0.53972  -0.51826  -0.49592
 Alpha  occ. eigenvalues --   -0.47325  -0.44272  -0.43975  -0.42061  -0.39951
 Alpha  occ. eigenvalues --   -0.37674  -0.36482  -0.35378  -0.34382  -0.33259
 Alpha  occ. eigenvalues --   -0.30925  -0.29169  -0.26516  -0.23123
 Alpha virt. eigenvalues --    0.08069   0.09523   0.10670   0.11114   0.12196
 Alpha virt. eigenvalues --    0.12599   0.14089   0.15301   0.15881   0.16632
 Alpha virt. eigenvalues --    0.17298   0.18864   0.19522   0.20604   0.20748

 Mulliken charges:
               1
     1  C   -0.338833
     2  C    0.033363
     3  O   -0.241682
     4  C   -0.035924
     5  C    0.436679
     6  C   -0.294186
     7  C   -0.236652
     8  C   -0.067541
     9  O   -0.303988
    10  H    0.101916
    11  H    0.120108
    12  H    0.103195
    13  H    0.093669
    14  H    0.106153
    15  H    0.107833
    16  H    0.109491
    17  H    0.104768
    18  H    0.107138
    19  H    0.094494
 Sum of Mulliken charges =   0.00000

 Dipole moment (field-independent basis, Debye):
    X=              1.5251    Y=              2.7682    Z=             -0.5123  Tot=              3.2018
 Quadrupole moment (field-independent basis, Debye-Ang):
   XX=            -50.8120   YY=            -55.5030   ZZ=            -51.4610
   XY=             -4.0199   XZ=             -1.0565   YZ=              0.5050

  Exact polarizability:  87.934  -3.493  66.424  -1.557   1.992  69.761
 Approx polarizability: 114.130  -1.834 104.196  -3.033   3.831 105.013

                      1                      2                      3
                      A                      A                      A
 Frequencies --     57.7201               138.0688               183.4835
 Red. masses --      3.2032                 3.9298                 2.2319
 Frc consts  --      0.0063                 0.0441                 0.0443
 IR Inten    --      1.8706                 0.5407                 1.1502

                      4                      5                      6
                      A                      A                      A
 Frequencies --    257.1428               365.1807               408.9247
 Red. masses --      2.6139                 3.1282                 1.9843
 Frc consts  --      0.1018                 0.2458                 0.1955
 IR Inten    --      0.4487                 0.1441                 2.2459

                      7                      8                      9
                      A                      A                      A
 Frequencies --    454.4828               566.8379               605.7594
 Red. masses --      4.0811                 5.0051                 1.8611
 Frc consts  --      0.4967                 0.9475                 0.4024
 IR Inten    --      0.5986                10.7767                 1.2156

                     10                     11                     12
                      A                      A                      A
 Frequencies --    730.2501               801.0639               823.7214
 Red. masses --      4.2508                 4.5584                 2.3337
 Frc consts  --      1.3356                 1.7234                 0.9330
 IR Inten    --      4.6658                 4.6552                 3.0655

                     13                     14                     15
                      A                      A                      A
 Frequencies --    860.2832               871.0935               884.1154
 Red. masses --      1.8572                 1.6116                 2.3385
 Frc consts  --      0.8098                 0.7205                 1.0770
 IR Inten    --     20.7893                 8.2981                 4.9651

                     16                     17                     18
                      A                      A                      A
 Frequencies --    894.8402               929.3579               951.2395
 Red. masses --      2.3250                 2.4248                 1.8839
 Frc consts  --      1.0969                 1.2339                 1.0044
 IR Inten    --     11.7928                 8.7516                 6.3496

                     19                     20                     21
                      A                      A                      A
 Frequencies --    962.9794               996.2740              1004.9301
 Red. masses --      2.3110                 1.8653                 1.8091
 Frc consts  --      1.2626                 1.0908                 1.0764
 IR Inten    --      3.9532                 4.2860                22.8738

                     22                     23                     24
                      A                      A                      A
 Frequencies --   1032.9171              1048.2206              1109.2760
 Red. masses --      2.6754                 1.6069                 2.5432
 Frc consts  --      1.6818                 1.0403                 1.8438
 IR Inten    --     18.7697                 5.3058                93.1815

                     25                     26                     27
                      A                      A                      A
 Frequencies --   1135.7434              1157.6227              1195.5371
 Red. masses --      2.2214                 2.1192                 1.5225
 Frc consts  --      1.6883                 1.6732                 1.2821
 IR Inten    --     59.6655                 4.9430                 4.6600

                     28                     29                     30
                      A                      A                      A
 Frequencies --   1195.8907              1216.1443              1226.2655
 Red. masses --      1.5520                 1.4260                 1.4310
 Frc consts  --      1.3078                 1.2426                 1.2678
 IR Inten    --     22.4621                 1.0799                10.7979

                     31                     32                     33
                      A                      A                      A
 Frequencies --   1251.3113              1254.7155              1304.2940
 Red. masses --      1.4712                 1.3771                 1.8977
 Frc consts  --      1.3572                 1.2773                 1.9020
 IR Inten    --      2.4989                 0.8935                37.1010

                     34                     35                     36
                      A                      A                      A
 Frequencies --   1326.6581              1338.2309              1383.1833
 Red. masses --      1.6968                 1.3006                 3.5008
 Frc consts  --      1.7595                 1.3723                 3.9462
 IR Inten    --      5.6248                 0.1656                17.3110

                     37                     38                     39
                      A                      A                      A
 Frequencies --   1392.9410              1464.1174              1485.1951
 Red. masses --      1.3989                 1.1208                 1.0887
 Frc consts  --      1.5992                 1.4156                 1.4149
 IR Inten    --      1.2278                 2.7972                 2.4930

                     40                     41                     42
                      A                      A                      A
 Frequencies --   1496.4036              1531.9314              2992.3565
 Red. masses --      1.1042                 1.0940                 1.0700
 Frc consts  --      1.4568                 1.5127                 5.6448
 IR Inten    --      4.0313                 0.8032                76.0523

                     43                     44                     45
                      A                      A                      A
 Frequencies --   3042.4842              3048.9307              3066.3319
 Red. masses --      1.0659                 1.0653                 1.0586
 Frc consts  --      5.8132                 5.8346                 5.8644
 IR Inten    --     15.8280                11.8338                22.1379

                     46                     47                     48
                      A                      A                      A
 Frequencies --   3069.0282              3098.2653              3110.9905
 Red. masses --      1.0908                 1.0986                 1.1038
 Frc consts  --      6.0532                 6.2131                 6.2939
 IR Inten    --     53.8936                15.0138                35.3708

                     49                     50                     51
                      A                      A                      A
 Frequencies --   3132.0662              3161.4428              3197.5943
 Red. masses --      1.1077                 1.0908                 1.0973
 Frc consts  --      6.4025                 6.4232                 6.6104
 IR Inten    --     11.5070                18.8951                20.4387

 - Thermochemistry -
 -------------------
 Temperature   298.150 Kelvin.  Pressure   1.00000 Atm.
 Atom     1 has atomic number  6 and mass  12.00000

 Molecular mass:   126.06808 amu.
 Principal axes and moments of inertia in atomic units:
                           1         2         3
     Eigenvalues --   490.415551380.397131464.31947
           X            0.99981  -0.01417  -0.01337
           Y            0.01439   0.99976   0.01637
           Z            0.01314  -0.01656   0.99978
 This molecule is an asymmetric top.
 Rotational symmetry number  1.
 Warning -- assumption of classical behavior for rotation
           may cause significant error
 Rotational temperatures (Kelvin)      0.17661     0.06275     0.05915
 Rotational constants (GHZ):           3.68002     1.30741     1.23248
 Zero-point vibrational energy     419972.0 (Joules/Mol)
                                  100.37572 (Kcal/Mol)
 Warning -- explicit consideration of   9 degrees of freedom as
           vibrations may cause significant error
 Vibrational temperatures:     83.05   198.65   263.99   369.97   525.41
          (Kelvin)            588.35   653.90   815.55   871.55  1050.67
                             1152.55  1185.15  1237.75  1253.31  1272.04
                             1287.47  1337.14  1368.62  1385.51  1433.41
                             1445.87  1486.14  1508.15  1596.00  1634.08
                             1665.56  1720.11  1720.62  1749.76  1764.32
                             1800.36  1805.25  1876.59  1908.76  1925.41
                             1990.09  2004.13  2106.54  2136.86  2152.99
                             2204.10  4305.33  4377.45  4386.73  4411.76
                             4415.64  4457.71  4476.02  4506.34  4548.61
                             4600.62

 Zero-point correction=                           0.159959 (Hartree/Particle)
 Thermal correction to Energy=                    0.167562
 Thermal correction to Enthalpy=                  0.168506
 Thermal correction to Gibbs Free Energy=         0.127447
 Sum of electronic and zero-point Energies=           -422.990753
 Sum of electronic and thermal Energies=              -422.983150
 Sum of electronic and thermal Enthalpies=            -422.982206
 Sum of electronic and thermal Free Energies=         -423.023265

                     E (Thermal)             CV                S
                      KCal/Mol        Cal/Mol-Kelvin    Cal/Mol-Kelvin
 Total                  105.147             29.672             86.416
 Electronic               0.000              0.000              0.000
 Translational            0.889              2.981             40.409
 Rotational               0.889              2.981             28.385
 Vibrational            103.369             23.710             17.622
 Vibration     1          0.596              1.974              4.534
 Vibration     2          0.614              1.915              2.830
 Vibration     3          0.631              1.862              2.293
 Vibration     4          0.667              1.751              1.681
 Vibration     5          0.738              1.544              1.100
 Vibration     6          0.773              1.451              0.930
 Vibration     7          0.813              1.351              0.782
 Vibration     8          0.923              1.103              0.510
 Vibration     9          0.964              1.020              0.440

 Optimization completed.
    -- Stationary point found.
 Normal termination of Gaussian 09 at Mon Jan 27 12:02:23 2020.
