 Gaussian 09, Revision D.01,
 Gaussian 09:  ES64L-G09RevD.01 24-Apr-2013

 -----------------------------
 # b3lyp 6-31G(2df,p) opt Freq
 -----------------------------

 -----
 titel
 -----
 Symbolic Z-matrix:
 Charge =  0 Multiplicity = 1

 SCF Done:  E(RB3LYP) =  -423.179255867     A.U. after   13 cycles
 Optimization completed.
    -- Stationary point found.
 Normal termination of Gaussian 09 at Mon Jan 27 15:58:45 2020.

 ----------------------------------------------------------------------
 #N Geom=AllCheck Guess=TCheck SCRF=Check GenChk RB3LYP/6-31G(2df,p) Fr
 eq
 ----------------------------------------------------------------------

 Structure from the checkpoint file:  "/scratch/puck/g09_40b43664-fc39-4241-ad56-4a05e2d99992/Gau-58778.chk"
 -----
 titel
 -----
 Charge =  0 Multiplicity = 1

                         Standard orientation:
 ---------------------------------------------------------------------
 Center     Atomic      Atomic             Coordinates (Angstroms)
 Number     Number       Type             X           Y           Z
 ---------------------------------------------------------------------
      1          6           0       -1.754085    1.265367    0.056076
      2          6           0       -0.892358   -0.000021    0.075682
      3          6           0       -1.754125   -1.265380    0.056083
      4          6           0        0.163359   -0.000025    1.187642
      5          6           0        1.346066    0.753780    0.592055
      6          8           0        1.007228    1.124845   -0.733393
      7          6           0        0.192342   -0.000037   -1.046213
      8          8           0        1.007351   -1.124833   -0.733365
      9          6           0        1.346151   -0.753711    0.592072
     10          1           0       -2.410498    1.274010   -0.821811
     11          1           0       -2.394886    1.307913    0.943037
     12          1           0       -1.137887    2.165933    0.031053
     13          1           0       -2.410415   -1.274083   -0.821896
     14          1           0       -1.137968   -2.165976    0.031233
     15          1           0       -2.395054   -1.307806    0.942956
     16          1           0       -0.076791   -0.000030    2.241963
     17          1           0        2.031967    1.414745    1.099997
     18          1           0       -0.101334   -0.000056   -2.092867
     19          1           0        2.032129   -1.414590    1.100023
 ---------------------------------------------------------------------

 SCF Done:  E(RB3LYP) =  -423.179255867     A.U. after    1 cycles

 The electronic state is 1-A.
 Alpha  occ. eigenvalues --  -19.15145 -19.15145 -10.27573 -10.23662 -10.23636
 Alpha  occ. eigenvalues --  -10.20023 -10.19221 -10.17335 -10.17335  -1.10922
 Alpha  occ. eigenvalues --   -0.99898  -0.84346  -0.79743  -0.68504  -0.67997
 Alpha  occ. eigenvalues --   -0.60327  -0.59412  -0.56142  -0.53937  -0.47166
 Alpha  occ. eigenvalues --   -0.46164  -0.43592  -0.42313  -0.41771  -0.40420
 Alpha  occ. eigenvalues --   -0.38940  -0.38341  -0.38001  -0.34270  -0.33658
 Alpha  occ. eigenvalues --   -0.31227  -0.30713  -0.25945  -0.23769
 Alpha virt. eigenvalues --    0.08776   0.10294   0.11521   0.11890   0.13804
 Alpha virt. eigenvalues --    0.14659   0.15526   0.15603   0.15957   0.16343
 Alpha virt. eigenvalues --    0.18432   0.19578   0.20126   0.20786   0.22647

 Mulliken charges:
               1
     1  C   -0.447246
     2  C    0.302564
     3  C   -0.447257
     4  C   -0.197760
     5  C    0.025612
     6  O   -0.247009
     7  C    0.106123
     8  O   -0.247016
     9  C    0.025620
    10  H    0.110768
    11  H    0.112317
    12  H    0.132918
    13  H    0.110769
    14  H    0.132911
    15  H    0.112317
    16  H    0.092114
    17  H    0.113790
    18  H    0.094672
    19  H    0.113794
 Sum of Mulliken charges =   0.00000

 Dipole moment (field-independent basis, Debye):
    X=             -0.7877    Y=              0.0000    Z=              1.6116  Tot=              1.7938
 Quadrupole moment (field-independent basis, Debye-Ang):
   XX=            -52.5360   YY=            -56.0974   ZZ=            -50.4282
   XY=              0.0001   XZ=              4.2890   YZ=              0.0002

  Exact polarizability:  78.186   0.000  68.832   3.856   0.000  68.891
 Approx polarizability: 107.708  -0.001 105.781   2.613   0.000 108.228

                      1                      2                      3
                      A                      A                      A
 Frequencies --    189.2140               215.0515               223.1801
 Red. masses --      1.0403                 2.9058                 1.0433
 Frc consts  --      0.0219                 0.0792                 0.0306
 IR Inten    --      0.0024                 0.2905                 0.0041

                      4                      5                      6
                      A                      A                      A
 Frequencies --    245.3599               342.3863               348.4127
 Red. masses --      3.2948                 2.5007                 2.3782
 Frc consts  --      0.1169                 0.1727                 0.1701
 IR Inten    --      0.6816                 1.5484                 1.4809

                      7                      8                      9
                      A                      A                      A
 Frequencies --    535.7274               565.4344               612.8628
 Red. masses --      4.2708                 4.5848                 3.8903
 Frc consts  --      0.7222                 0.8636                 0.8609
 IR Inten    --      1.0770                 4.4372                 5.3363

                     10                     11                     12
                      A                      A                      A
 Frequencies --    631.1010               746.1956               764.6841
 Red. masses --      4.8365                 8.6016                 5.0225
 Frc consts  --      1.1350                 2.8219                 1.7304
 IR Inten    --     12.0427                 4.6474                 0.2744

                     13                     14                     15
                      A                      A                      A
 Frequencies --    798.1880               804.5916               882.2107
 Red. masses --      1.5512                 1.5605                 3.8752
 Frc consts  --      0.5823                 0.5952                 1.7770
 IR Inten    --     17.6750                16.5542                 2.0923

                     16                     17                     18
                      A                      A                      A
 Frequencies --    892.2586               914.9520               957.0296
 Red. masses --      3.7716                 2.4592                 1.3968
 Frc consts  --      1.7691                 1.2129                 0.7537
 IR Inten    --     59.9329                47.1466                 0.1796

                     19                     20                     21
                      A                      A                      A
 Frequencies --    967.3754               995.2848              1006.8438
 Red. masses --      1.6227                 3.1792                 2.7571
 Frc consts  --      0.8947                 1.8555                 1.6468
 IR Inten    --      0.1692                 4.6281                14.9847

                     22                     23                     24
                      A                      A                      A
 Frequencies --   1020.7987              1031.9552              1041.4514
 Red. masses --      2.1846                 1.4440                 1.3556
 Frc consts  --      1.3412                 0.9061                 0.8663
 IR Inten    --      5.0702                 2.1983                 0.0909

                     25                     26                     27
                      A                      A                      A
 Frequencies --   1044.9080              1087.0637              1096.3810
 Red. masses --      2.2278                 2.3260                 4.2870
 Frc consts  --      1.4331                 1.6194                 3.0362
 IR Inten    --     10.0163                 4.9916                84.7884

                     28                     29                     30
                      A                      A                      A
 Frequencies --   1203.7443              1209.0969              1219.6974
 Red. masses --      1.6500                 1.8182                 1.4792
 Frc consts  --      1.4086                 1.5661                 1.2965
 IR Inten    --      1.8032                 0.6470                 6.6115

                     31                     32                     33
                      A                      A                      A
 Frequencies --   1234.8110              1249.3437              1334.2120
 Red. masses --      2.8823                 1.8765                 1.4775
 Frc consts  --      2.5893                 1.7257                 1.5497
 IR Inten    --      7.9590                 3.3114                 9.5443

                     34                     35                     36
                      A                      A                      A
 Frequencies --   1337.5986              1369.2899              1398.8084
 Red. masses --      2.3167                 2.5487                 1.2495
 Frc consts  --      2.4422                 2.8155                 1.4405
 IR Inten    --      3.0244                12.9299                 5.1606

                     37                     38                     39
                      A                      A                      A
 Frequencies --   1419.5644              1486.8786              1489.9214
 Red. masses --      1.2279                 1.0514                 1.0457
 Frc consts  --      1.4578                 1.3695                 1.3676
 IR Inten    --      3.7291                 2.8078                 1.0274

                     40                     41                     42
                      A                      A                      A
 Frequencies --   1502.9529              1512.4500              3030.1498
 Red. masses --      1.0599                 1.0543                 1.0384
 Frc consts  --      1.4105                 1.4210                 5.6176
 IR Inten    --      0.7644                 9.7698                14.1740

                     43                     44                     45
                      A                      A                      A
 Frequencies --   3035.1491              3088.4181              3093.0367
 Red. masses --      1.0386                 1.1003                 1.0997
 Frc consts  --      5.6371                 6.1835                 6.1985
 IR Inten    --     44.4848                 0.3879                43.5280

                     46                     47                     48
                      A                      A                      A
 Frequencies --   3133.6159              3134.1511              3169.1255
 Red. masses --      1.0986                 1.0989                 1.0929
 Frc consts  --      6.3560                 6.3597                 6.4672
 IR Inten    --     12.3264                14.9378                18.9000

                     49                     50                     51
                      A                      A                      A
 Frequencies --   3211.7373              3233.1622              3242.8855
 Red. masses --      1.0920                 1.0918                 1.0999
 Frc consts  --      6.6367                 6.7240                 6.8152
 IR Inten    --      3.7679                 3.0979                10.0005

 - Thermochemistry -
 -------------------
 Temperature   298.150 Kelvin.  Pressure   1.00000 Atm.
 Atom     1 has atomic number  6 and mass  12.00000

 Molecular mass:   126.06808 amu.
 Principal axes and moments of inertia in atomic units:
                           1         2         3
     Eigenvalues --   655.22553 945.184661095.22251
           X            0.99955   0.00000   0.02989
           Y            0.00000   1.00000   0.00000
           Z           -0.02989   0.00000   0.99955
 This molecule is an asymmetric top.
 Rotational symmetry number  1.
 Warning -- assumption of classical behavior for rotation
           may cause significant error
 Rotational temperatures (Kelvin)      0.13219     0.09164     0.07908
 Rotational constants (GHZ):           2.75438     1.90941     1.64783
 Zero-point vibrational energy     420491.6 (Joules/Mol)
                                  100.49990 (Kcal/Mol)
 Warning -- explicit consideration of   9 degrees of freedom as
           vibrations may cause significant error
 Vibrational temperatures:    272.24   309.41   321.11   353.02   492.62
          (Kelvin)            501.29   770.79   813.53   881.77   908.01
                             1073.61  1100.21  1148.41  1157.63  1269.30
                             1283.76  1316.41  1376.95  1391.84  1431.99
                             1448.62  1468.70  1484.75  1498.41  1503.39
                             1564.04  1577.45  1731.92  1739.62  1754.87
                             1776.62  1797.52  1919.63  1924.50  1970.10
                             2012.57  2042.43  2139.28  2143.66  2162.41
                             2176.08  4359.70  4366.90  4443.54  4450.18
                             4508.57  4509.34  4559.66  4620.97  4651.79
                             4665.78

 Zero-point correction=                           0.160157 (Hartree/Particle)
 Thermal correction to Energy=                    0.167514
 Thermal correction to Enthalpy=                  0.168458
 Thermal correction to Gibbs Free Energy=         0.128943
 Sum of electronic and zero-point Energies=           -423.019099
 Sum of electronic and thermal Energies=              -423.011742
 Sum of electronic and thermal Enthalpies=            -423.010798
 Sum of electronic and thermal Free Energies=         -423.050313

                     E (Thermal)             CV                S
                      KCal/Mol        Cal/Mol-Kelvin    Cal/Mol-Kelvin
 Total                  105.117             30.266             83.166
 Electronic               0.000              0.000              0.000
 Translational            0.889              2.981             40.409
 Rotational               0.889              2.981             28.008
 Vibrational            103.339             24.304             14.750
 Vibration     1          0.633              1.855              2.236
 Vibration     2          0.645              1.818              2.000
 Vibration     3          0.649              1.806              1.933
 Vibration     4          0.660              1.770              1.764
 Vibration     5          0.722              1.591              1.201
 Vibration     6          0.726              1.578              1.173
 Vibration     7          0.891              1.171              0.575
 Vibration     8          0.921              1.106              0.513
 Vibration     9          0.972              1.005              0.428

 Optimization completed.
    -- Stationary point found.
 Normal termination of Gaussian 09 at Mon Jan 27 16:43:22 2020.
 Normal termination of Gaussian 09 at Mon Jan 27 15:51:45 2020.
