 Gaussian 09, Revision D.01,
 Gaussian 09:  ES64L-G09RevD.01 24-Apr-2013

 -----------------------------
 # b3lyp 6-31G(2df,p) opt Freq
 -----------------------------

 -----
 titel
 -----
 Symbolic Z-matrix:
 Charge =  0 Multiplicity = 1

 SCF Done:  E(RB3LYP) =  -423.178014348     A.U. after   14 cycles
 Optimization completed.
    -- Stationary point found.
 Normal termination of Gaussian 09 at Tue Jan 28 02:58:09 2020.

 ----------------------------------------------------------------------
 #N Geom=AllCheck Guess=TCheck SCRF=Check GenChk RB3LYP/6-31G(2df,p) Fr
 eq
 ----------------------------------------------------------------------

 Structure from the checkpoint file:  "/scratch/puck/g09_fea3c279-41d3-416a-82b4-ff8674dbb4ef/Gau-65433.chk"
 -----
 titel
 -----
 Charge =  0 Multiplicity = 1

                         Standard orientation:
 ---------------------------------------------------------------------
 Center     Atomic      Atomic             Coordinates (Angstroms)
 Number     Number       Type             X           Y           Z
 ---------------------------------------------------------------------
      1          6           0        1.517927    1.953036   -0.145765
      2          6           0        0.415839    0.952651   -0.009449
      3          6           0       -0.879266    1.177860    0.223746
      4          6           0       -1.689317   -0.081944    0.386063
      5          8           0       -2.839279   -0.020616   -0.453421
      6          6           0       -0.689582   -1.203484   -0.003457
      7          6           0        0.674721   -0.520396   -0.056507
      8          6           0        1.880887   -1.141240   -0.619912
      9          8           0        1.726657   -1.023614    0.795687
     10          1           0        2.336398    1.709309    0.541156
     11          1           0        1.937650    1.948790   -1.159213
     12          1           0        1.169752    2.965499    0.071403
     13          1           0       -1.339111    2.154940    0.322739
     14          1           0       -2.011508   -0.186998    1.434891
     15          1           0       -3.414414   -0.755722   -0.219003
     16          1           0       -0.675098   -2.047657    0.690292
     17          1           0       -0.974339   -1.570087   -0.994562
     18          1           0        1.817429   -2.155363   -1.015244
     19          1           0        2.666962   -0.527766   -1.058900
 ---------------------------------------------------------------------

 SCF Done:  E(RB3LYP) =  -423.178014348     A.U. after    1 cycles

 The electronic state is 1-A.
 Alpha  occ. eigenvalues --  -19.14582 -19.13378 -10.24017 -10.23506 -10.22927
 Alpha  occ. eigenvalues --  -10.19192 -10.18377 -10.18086 -10.17844  -1.06375
 Alpha  occ. eigenvalues --   -1.01555  -0.83789  -0.74973  -0.69520  -0.66146
 Alpha  occ. eigenvalues --   -0.64562  -0.57496  -0.53175  -0.50915  -0.48644
 Alpha  occ. eigenvalues --   -0.46794  -0.44972  -0.42041  -0.41296  -0.40276
 Alpha  occ. eigenvalues --   -0.38900  -0.37707  -0.36344  -0.34434  -0.32187
 Alpha  occ. eigenvalues --   -0.31243  -0.27520  -0.26218  -0.23754
 Alpha virt. eigenvalues --    0.00744   0.08299   0.09695   0.10389   0.11810
 Alpha virt. eigenvalues --    0.12662   0.13763   0.14591   0.16477   0.17054
 Alpha virt. eigenvalues --    0.17799   0.18730   0.21520   0.22573   0.22873

 Mulliken charges:
               1
     1  C   -0.511259
     2  C    0.279111
     3  C   -0.180780
     4  C    0.062531
     5  O   -0.434518
     6  C   -0.343807
     7  C    0.351286
     8  C   -0.248776
     9  O   -0.279430
    10  H    0.144876
    11  H    0.129397
    12  H    0.126827
    13  H    0.099478
    14  H    0.075904
    15  H    0.282715
    16  H    0.111608
    17  H    0.115630
    18  H    0.110378
    19  H    0.108829
 Sum of Mulliken charges =   0.00000

 Dipole moment (field-independent basis, Debye):
    X=             -0.4218    Y=             -0.4311    Z=             -0.5320  Tot=              0.8042
 Quadrupole moment (field-independent basis, Debye-Ang):
   XX=            -51.9178   YY=            -49.7405   ZZ=            -54.9738
   XY=              5.5763   XZ=             -6.4626   YZ=              2.2609

  Exact polarizability:  98.897  -0.522  79.251  -7.397   2.099  57.608
 Approx polarizability: 142.926  -7.455 108.193  -8.181   1.066  94.329

                      1                      2                      3
                      A                      A                      A
 Frequencies --     49.1336               145.6797               180.1980
 Red. masses --      3.3678                 2.4859                 1.2000
 Frc consts  --      0.0048                 0.0311                 0.0230
 IR Inten    --      2.1344                 2.9663                 0.3183

                      4                      5                      6
                      A                      A                      A
 Frequencies --    241.9570               259.8956               271.3402
 Red. masses --      3.1825                 2.6539                 1.1156
 Frc consts  --      0.1098                 0.1056                 0.0484
 IR Inten    --      3.3440                 4.6452                84.3477

                      7                      8                      9
                      A                      A                      A
 Frequencies --    309.5702               344.0802               458.1311
 Red. masses --      3.6009                 2.8830                 3.7018
 Frc consts  --      0.2033                 0.2011                 0.4578
 IR Inten    --     18.3049                 4.6155                10.4561

                     10                     11                     12
                      A                      A                      A
 Frequencies --    465.6999               531.6096               593.0679
 Red. masses --      2.4696                 4.0386                 3.6495
 Frc consts  --      0.3156                 0.6725                 0.7563
 IR Inten    --      1.5748                 2.6679                 2.0900

                     13                     14                     15
                      A                      A                      A
 Frequencies --    650.6881               711.1072               788.9347
 Red. masses --      2.8655                 4.0221                 4.1820
 Frc consts  --      0.7148                 1.1983                 1.5336
 IR Inten    --      0.4795                 7.7195                29.3972

                     16                     17                     18
                      A                      A                      A
 Frequencies --    874.0658               879.1699               898.8473
 Red. masses --      1.7481                 1.9374                 1.4699
 Frc consts  --      0.7869                 0.8823                 0.6997
 IR Inten    --      2.7506                 2.5741                 6.6465

                     19                     20                     21
                      A                      A                      A
 Frequencies --    963.5876               978.3638              1016.5808
 Red. masses --      4.2315                 2.1066                 1.6869
 Frc consts  --      2.3149                 1.1881                 1.0271
 IR Inten    --     14.1971                20.2983                 4.4631

                     22                     23                     24
                      A                      A                      A
 Frequencies --   1056.0874              1066.2642              1082.9089
 Red. masses --      3.0175                 1.6200                 2.5720
 Frc consts  --      1.9829                 1.0852                 1.7771
 IR Inten    --      8.2334                14.7626                72.5924

                     25                     26                     27
                      A                      A                      A
 Frequencies --   1119.8070              1128.7223              1165.9259
 Red. masses --      2.3098                 1.2982                 1.4015
 Frc consts  --      1.7066                 0.9744                 1.1225
 IR Inten    --     28.8132                 1.2053                 1.2732

                     28                     29                     30
                      A                      A                      A
 Frequencies --   1205.3692              1220.6265              1243.0318
 Red. masses --      1.3318                 1.2501                 1.3320
 Frc consts  --      1.1401                 1.0974                 1.2126
 IR Inten    --      2.4740                59.8492                19.4330

                     31                     32                     33
                      A                      A                      A
 Frequencies --   1271.8875              1337.9403              1345.5580
 Red. masses --      1.6437                 2.0104                 1.7639
 Frc consts  --      1.5666                 2.1204                 1.8816
 IR Inten    --      5.4154                16.4043                 6.7659

                     34                     35                     36
                      A                      A                      A
 Frequencies --   1406.4210              1412.1171              1428.9350
 Red. masses --      1.4882                 2.1354                 1.6004
 Frc consts  --      1.7343                 2.5088                 1.9253
 IR Inten    --      1.5157                15.3892                20.1160

                     37                     38                     39
                      A                      A                      A
 Frequencies --   1472.3067              1476.7672              1492.7227
 Red. masses --      1.1006                 1.0491                 1.0809
 Frc consts  --      1.4057                 1.3480                 1.4190
 IR Inten    --      2.0981                 8.3735                10.0241

                     40                     41                     42
                      A                      A                      A
 Frequencies --   1527.5028              1719.3497              2960.6932
 Red. masses --      1.3326                 7.7266                 1.0827
 Frc consts  --      1.8320                13.4577                 5.5915
 IR Inten    --      2.1170                 6.1048                59.5414

                     43                     44                     45
                      A                      A                      A
 Frequencies --   3026.5260              3056.3826              3073.1257
 Red. masses --      1.0385                 1.0603                 1.0521
 Frc consts  --      5.6046                 5.8356                 5.8541
 IR Inten    --     18.5633                13.3232                25.2674

                     46                     47                     48
                      A                      A                      A
 Frequencies --   3080.0046              3111.4619              3121.5937
 Red. masses --      1.0953                 1.1044                 1.1001
 Frc consts  --      6.1220                 6.2994                 6.3160
 IR Inten    --     17.1742                13.9367                16.2485

                     49                     50                     51
                      A                      A                      A
 Frequencies --   3156.9148              3196.7022              3818.0496
 Red. masses --      1.1186                 1.0942                 1.0663
 Frc consts  --      6.5684                 6.5881                 9.1581
 IR Inten    --     23.3312                 9.5071                16.4327

 - Thermochemistry -
 -------------------
 Temperature   298.150 Kelvin.  Pressure   1.00000 Atm.
 Atom     1 has atomic number  6 and mass  12.00000

 Molecular mass:   126.06808 amu.
 Principal axes and moments of inertia in atomic units:
                           1         2         3
     Eigenvalues --   666.408301329.541931795.91262
           X            0.99856   0.04830  -0.02354
           Y           -0.04792   0.99872   0.01616
           Z            0.02429  -0.01501   0.99959
 This molecule is an asymmetric top.
 Rotational symmetry number  1.
 Warning -- assumption of classical behavior for rotation
           may cause significant error
 Rotational temperatures (Kelvin)      0.12997     0.06515     0.04823
 Rotational constants (GHZ):           2.70816     1.35742     1.00492
 Zero-point vibrational energy     415064.8 (Joules/Mol)
                                   99.20286 (Kcal/Mol)
 Warning -- explicit consideration of  12 degrees of freedom as
           vibrations may cause significant error
 Vibrational temperatures:     70.69   209.60   259.26   348.12   373.93
          (Kelvin)            390.40   445.40   495.05   659.15   670.04
                              764.87   853.29   936.19  1023.12  1135.10
                             1257.58  1264.93  1293.24  1386.39  1407.65
                             1462.63  1519.47  1534.11  1558.06  1611.15
                             1623.98  1677.51  1734.26  1756.21  1788.44
                             1829.96  1925.00  1935.96  2023.52  2031.72
                             2055.92  2118.32  2124.74  2147.69  2197.73
                             2473.76  4259.77  4354.49  4397.45  4421.54
                             4431.43  4476.69  4491.27  4542.09  4599.34
                             5493.31

 Zero-point correction=                           0.158090 (Hartree/Particle)
 Thermal correction to Energy=                    0.166963
 Thermal correction to Enthalpy=                  0.167907
 Thermal correction to Gibbs Free Energy=         0.124373
 Sum of electronic and zero-point Energies=           -423.019925
 Sum of electronic and thermal Energies=              -423.011052
 Sum of electronic and thermal Enthalpies=            -423.010107
 Sum of electronic and thermal Free Energies=         -423.053641

                     E (Thermal)             CV                S
                      KCal/Mol        Cal/Mol-Kelvin    Cal/Mol-Kelvin
 Total                  104.771             33.560             91.624
 Electronic               0.000              0.000              0.000
 Translational            0.889              2.981             40.409
 Rotational               0.889              2.981             28.855
 Vibrational            102.993             27.598             22.361
 Vibration     1          0.595              1.978              4.852
 Vibration     2          0.617              1.907              2.728
 Vibration     3          0.629              1.867              2.326
 Vibration     4          0.658              1.776              1.788
 Vibration     5          0.668              1.746              1.662
 Vibration     6          0.675              1.726              1.588
 Vibration     7          0.699              1.655              1.365
 Vibration     8          0.723              1.587              1.193
 Vibration     9          0.816              1.343              0.772
 Vibration    10          0.823              1.326              0.750
 Vibration    11          0.887              1.180              0.584
 Vibration    12          0.951              1.047              0.462

 Optimization completed.
    -- Stationary point found.
 Normal termination of Gaussian 09 at Tue Jan 28 03:52:18 2020.
