 Gaussian 09, Revision D.01,
 Gaussian 09:  ES64L-G09RevD.01 24-Apr-2013

 -----------------------------
 # b3lyp 6-31G(2df,p) opt Freq
 -----------------------------

 -----
 titel
 -----
 Symbolic Z-matrix:
 Charge =  0 Multiplicity = 1

 SCF Done:  E(RB3LYP) =  -423.166725719     A.U. after   14 cycles
 Optimization completed.
    -- Stationary point found.
 Normal termination of Gaussian 09 at Mon Jan 27 16:28:26 2020.

 ----------------------------------------------------------------------
 #N Geom=AllCheck Guess=TCheck SCRF=Check GenChk RB3LYP/6-31G(2df,p) Fr
 eq
 ----------------------------------------------------------------------

 Structure from the checkpoint file:  "/scratch/puck/g09_34131804-4e63-40d8-b039-9688456f1e71/Gau-30120.chk"
 -----
 titel
 -----
 Charge =  0 Multiplicity = 1

                         Standard orientation:
 ---------------------------------------------------------------------
 Center     Atomic      Atomic             Coordinates (Angstroms)
 Number     Number       Type             X           Y           Z
 ---------------------------------------------------------------------
      1          8           0       -1.104344   -0.256697    1.439989
      2          6           0       -0.996256    0.294710    0.173344
      3          6           0       -0.374440    1.670981    0.048934
      4          6           0        0.405701    0.483629   -0.436644
      5          6           0        1.582428   -0.042688    0.316339
      6          6           0        2.978424    0.171472   -0.220054
      7          6           0        2.369560   -1.208356   -0.228373
      8          6           0       -2.071443   -0.110477   -0.747196
      9          8           0       -2.922643   -0.910292   -0.422140
     10          1           0       -1.831902   -0.895278    1.368865
     11          1           0       -0.786503    2.370312   -0.671329
     12          1           0       -0.082977    2.107570    0.998137
     13          1           0        0.467375    0.363639   -1.516444
     14          1           0        1.465067   -0.009679    1.393849
     15          1           0        3.083516    0.684704   -1.170311
     16          1           0        3.771241    0.385248    0.488231
     17          1           0        2.066871   -1.622040   -1.185039
     18          1           0        2.743043   -1.945436    0.473394
     19          1           0       -2.043684    0.341238   -1.760233
 ---------------------------------------------------------------------

 SCF Done:  E(RB3LYP) =  -423.166725719     A.U. after    1 cycles

 The electronic state is 1-A.
 Alpha  occ. eigenvalues --  -19.14756 -19.14633 -10.27635 -10.25296 -10.21140
 Alpha  occ. eigenvalues --  -10.20183 -10.19784 -10.18835 -10.18743  -1.06443
 Alpha  occ. eigenvalues --   -1.02725  -0.87968  -0.84445  -0.67974  -0.64307
 Alpha  occ. eigenvalues --   -0.60218  -0.58234  -0.57097  -0.52578  -0.51045
 Alpha  occ. eigenvalues --   -0.47833  -0.46039  -0.44547  -0.42213  -0.41403
 Alpha  occ. eigenvalues --   -0.37759  -0.36990  -0.36189  -0.35260  -0.34686
 Alpha  occ. eigenvalues --   -0.30013  -0.28358  -0.26549  -0.24159
 Alpha virt. eigenvalues --   -0.02893   0.07815   0.09872   0.10189   0.11311
 Alpha virt. eigenvalues --    0.12275   0.13946   0.14572   0.15363   0.16960
 Alpha virt. eigenvalues --    0.17889   0.18689   0.21483   0.22371   0.22647

 Mulliken charges:
               1
     1  O   -0.468819
     2  C    0.347423
     3  C   -0.359807
     4  C   -0.095585
     5  C    0.030304
     6  C   -0.276636
     7  C   -0.268909
     8  C    0.097049
     9  O   -0.295756
    10  H    0.296876
    11  H    0.120564
    12  H    0.138807
    13  H    0.089197
    14  H    0.104303
    15  H    0.110983
    16  H    0.115210
    17  H    0.111107
    18  H    0.117170
    19  H    0.086520
 Sum of Mulliken charges =   0.00000

 Dipole moment (field-independent basis, Debye):
    X=              1.7294    Y=              1.2722    Z=             -1.1064  Tot=              2.4153
 Quadrupole moment (field-independent basis, Debye-Ang):
   XX=            -59.2313   YY=            -52.6290   ZZ=            -51.9104
   XY=             -3.4044   XZ=              0.9242   YZ=             -1.7337

  Exact polarizability:  97.616   5.065  73.416   1.734  -2.107  68.518
 Approx polarizability: 132.144  16.241 112.494  -0.553  -3.739 105.204

                      1                      2                      3
                      A                      A                      A
 Frequencies --     51.6256                83.3526               137.7568
 Red. masses --      3.3690                 4.5937                 4.1824
 Frc consts  --      0.0053                 0.0188                 0.0468
 IR Inten    --      0.5401                 0.0392                 3.0954

                      4                      5                      6
                      A                      A                      A
 Frequencies --    197.9548               275.7606               298.3187
 Red. masses --      2.4992                 4.3589                 3.3338
 Frc consts  --      0.0577                 0.1953                 0.1748
 IR Inten    --      0.5124                14.1570                 7.8397

                      7                      8                      9
                      A                      A                      A
 Frequencies --    349.0790               352.8560               404.9252
 Red. masses --      2.4814                 2.5351                 1.5764
 Frc consts  --      0.1782                 0.1860                 0.1523
 IR Inten    --      3.4485                 6.8317                46.1342

                     10                     11                     12
                      A                      A                      A
 Frequencies --    450.0878               533.6315               632.0041
 Red. masses --      2.1734                 3.0267                 4.1453
 Frc consts  --      0.2594                 0.5078                 0.9755
 IR Inten    --     10.2628                 7.5279                20.4458

                     13                     14                     15
                      A                      A                      A
 Frequencies --    736.1652               791.5258               812.4094
 Red. masses --      1.6905                 1.4656                 1.8350
 Frc consts  --      0.5398                 0.5410                 0.7136
 IR Inten    --      3.2022                 4.3202                 6.7517

                     16                     17                     18
                      A                      A                      A
 Frequencies --    829.0268               858.1837               906.1228
 Red. masses --      1.3526                 4.1603                 2.1999
 Frc consts  --      0.5477                 1.8052                 1.0642
 IR Inten    --     16.1188                21.1792                50.3049

                     19                     20                     21
                      A                      A                      A
 Frequencies --    920.8171               941.6238               991.5790
 Red. masses --      1.9643                 2.9370                 1.4973
 Frc consts  --      0.9813                 1.5343                 0.8674
 IR Inten    --     21.8217                 2.0904                 9.5212

                     22                     23                     24
                      A                      A                      A
 Frequencies --   1029.7683              1050.3621              1060.3868
 Red. masses --      1.6122                 1.9508                 1.3988
 Frc consts  --      1.0073                 1.2681                 0.9267
 IR Inten    --      2.4265                26.0818                 3.0632

                     25                     26                     27
                      A                      A                      A
 Frequencies --   1075.5960              1079.3836              1092.5444
 Red. masses --      1.4906                 1.4825                 1.3632
 Frc consts  --      1.0160                 1.0177                 0.9587
 IR Inten    --     13.0036                 7.8529                 3.7420

                     28                     29                     30
                      A                      A                      A
 Frequencies --   1134.1146              1197.3621              1201.8255
 Red. masses --      1.1105                 1.3958                 1.8020
 Frc consts  --      0.8415                 1.1791                 1.5335
 IR Inten    --      0.9418                 0.8263                33.2292

                     31                     32                     33
                      A                      A                      A
 Frequencies --   1223.2832              1237.3191              1306.7229
 Red. masses --      2.3337                 1.5970                 1.3500
 Frc consts  --      2.0576                 1.4405                 1.3581
 IR Inten    --     26.2885                 3.2732                21.8270

                     34                     35                     36
                      A                      A                      A
 Frequencies --   1345.0496              1383.0320              1433.4942
 Red. masses --      4.3973                 1.2514                 1.4889
 Frc consts  --      4.6872                 1.4103                 1.8026
 IR Inten    --     37.1012                81.1888                 6.7427

                     37                     38                     39
                      A                      A                      A
 Frequencies --   1455.2607              1470.3500              1491.3969
 Red. masses --      1.2273                 1.0867                 1.7571
 Frc consts  --      1.5314                 1.3842                 2.3027
 IR Inten    --     15.1514                 1.1058                19.5592

                     40                     41                     42
                      A                      A                      A
 Frequencies --   1508.9823              1783.7162              2922.5521
 Red. masses --      1.5241                 9.9429                 1.0857
 Frc consts  --      2.0447                18.6387                 5.4635
 IR Inten    --      0.7207               282.5226                69.0688

                     43                     44                     45
                      A                      A                      A
 Frequencies --   3123.5673              3129.1196              3129.8557
 Red. masses --      1.0850                 1.0559                 1.0507
 Frc consts  --      6.2370                 6.0917                 6.0640
 IR Inten    --      6.1356                 8.4248                20.7618

                     46                     47                     48
                      A                      A                      A
 Frequencies --   3134.9093              3173.8498              3208.3371
 Red. masses --      1.0597                 1.0889                 1.1177
 Frc consts  --      6.1362                 6.4626                 6.7786
 IR Inten    --     12.2581                 2.1690                 0.1833

                     49                     50                     51
                      A                      A                      A
 Frequencies --   3223.1234              3224.0720              3694.7948
 Red. masses --      1.1166                 1.1147                 1.0647
 Frc consts  --      6.8346                 6.8267                 8.5633
 IR Inten    --      1.4001                22.0123                73.7887

 - Thermochemistry -
 -------------------
 Temperature   298.150 Kelvin.  Pressure   1.00000 Atm.
 Atom     1 has atomic number  8 and mass  15.99491

 Molecular mass:   126.06808 amu.
 Principal axes and moments of inertia in atomic units:
                           1         2         3
     Eigenvalues --   534.465151909.319542003.09374
           X            0.99988  -0.01528   0.00043
           Y            0.01527   0.99825  -0.05715
           Z            0.00044   0.05715   0.99837
 This molecule is an asymmetric top.
 Rotational symmetry number  1.
 Warning -- assumption of classical behavior for rotation
           may cause significant error
 Rotational temperatures (Kelvin)      0.16206     0.04536     0.04324
 Rotational constants (GHZ):           3.37672     0.94523     0.90098
 Zero-point vibrational energy     413183.8 (Joules/Mol)
                                   98.75330 (Kcal/Mol)
 Warning -- explicit consideration of  11 degrees of freedom as
           vibrations may cause significant error
 Vibrational temperatures:     74.28   119.93   198.20   284.81   396.76
          (Kelvin)            429.21   502.25   507.68   582.60   647.58
                              767.78   909.31  1059.18  1138.83  1168.87
                             1192.78  1234.73  1303.71  1324.85  1354.78
                             1426.66  1481.61  1511.23  1525.66  1547.54
                             1552.99  1571.93  1631.74  1722.73  1729.16
                             1760.03  1780.22  1880.08  1935.22  1989.87
                             2062.48  2093.79  2115.50  2145.78  2171.09
                             2566.37  4204.90  4494.11  4502.10  4503.16
                             4510.43  4566.46  4616.08  4637.35  4638.71
                             5315.98

 Zero-point correction=                           0.157373 (Hartree/Particle)
 Thermal correction to Energy=                    0.166429
 Thermal correction to Enthalpy=                  0.167373
 Thermal correction to Gibbs Free Energy=         0.123005
 Sum of electronic and zero-point Energies=           -423.009352
 Sum of electronic and thermal Energies=              -423.000296
 Sum of electronic and thermal Enthalpies=            -422.999352
 Sum of electronic and thermal Free Energies=         -423.043720

                     E (Thermal)             CV                S
                      KCal/Mol        Cal/Mol-Kelvin    Cal/Mol-Kelvin
 Total                  104.436             33.910             93.381
 Electronic               0.000              0.000              0.000
 Translational            0.889              2.981             40.409
 Rotational               0.889              2.981             29.104
 Vibrational            102.658             27.949             23.868
 Vibration     1          0.596              1.977              4.754
 Vibration     2          0.600              1.961              3.810
 Vibration     3          0.614              1.916              2.835
 Vibration     4          0.637              1.843              2.152
 Vibration     5          0.677              1.718              1.560
 Vibration     6          0.691              1.677              1.426
 Vibration     7          0.726              1.577              1.170
 Vibration     8          0.729              1.569              1.153
 Vibration     9          0.770              1.459              0.945
 Vibration    10          0.809              1.361              0.796
 Vibration    11          0.889              1.176              0.579

 Optimization completed.
    -- Stationary point found.
 Normal termination of Gaussian 09 at Mon Jan 27 17:10:37 2020.
