 Gaussian 09, Revision D.01,
 Gaussian 09:  ES64L-G09RevD.01 24-Apr-2013

 -----------------------------
 # b3lyp 6-31G(2df,p) opt Freq
 -----------------------------

 -----
 titel
 -----
 Symbolic Z-matrix:
 Charge =  0 Multiplicity = 1

 SCF Done:  E(RB3LYP) =  -423.149434545     A.U. after   13 cycles
 Optimization completed.
    -- Stationary point found.
 Normal termination of Gaussian 09 at Mon Jan 27 12:19:22 2020.

 ----------------------------------------------------------------------
 #N Geom=AllCheck Guess=TCheck SCRF=Check GenChk RB3LYP/6-31G(2df,p) Fr
 eq
 ----------------------------------------------------------------------

 Structure from the checkpoint file:  "/scratch/puck/g09_6c1d341a-f05c-4257-b2ac-50c776c1a7b1/Gau-167203.chk"
 -----
 titel
 -----
 Charge =  0 Multiplicity = 1

                         Standard orientation:
 ---------------------------------------------------------------------
 Center     Atomic      Atomic             Coordinates (Angstroms)
 Number     Number       Type             X           Y           Z
 ---------------------------------------------------------------------
      1          6           0        2.223396   -0.225560   -0.756507
      2          6           0        2.057379   -0.621904    0.746340
      3          6           0        1.010892    0.484014    0.919283
      4          6           0        1.171326    0.877320   -0.580373
      5          6           0       -0.100333    0.313294   -0.073423
      6          6           0       -1.370951    1.159797    0.054055
      7          8           0       -2.429291    0.206330    0.003065
      8          6           0       -1.830206   -1.068764    0.094832
      9          8           0       -0.555444   -0.957771   -0.487301
     10          1           0        3.215766    0.177096   -0.968294
     11          1           0        1.983652   -0.991669   -1.497768
     12          1           0        1.704906   -1.637037    0.946690
     13          1           0        2.965264   -0.440164    1.324632
     14          1           0        0.898706    1.123354    1.788904
     15          1           0        1.208433    1.860104   -1.039281
     16          1           0       -1.396801    1.724510    0.995356
     17          1           0       -1.497058    1.859506   -0.779967
     18          1           0       -1.749787   -1.383265    1.151329
     19          1           0       -2.424215   -1.790086   -0.472959
 ---------------------------------------------------------------------

 SCF Done:  E(RB3LYP) =  -423.149434545     A.U. after    1 cycles

 The electronic state is 1-A.
 Alpha  occ. eigenvalues --  -19.15044 -19.14331 -10.27300 -10.24226 -10.23491
 Alpha  occ. eigenvalues --  -10.19497 -10.19232 -10.18503 -10.18444  -1.09046
 Alpha  occ. eigenvalues --   -0.99641  -0.89320  -0.75855  -0.69542  -0.65769
 Alpha  occ. eigenvalues --   -0.63412  -0.56847  -0.54259  -0.52154  -0.49806
 Alpha  occ. eigenvalues --   -0.48224  -0.46440  -0.44277  -0.43180  -0.40732
 Alpha  occ. eigenvalues --   -0.38702  -0.35716  -0.34645  -0.33406  -0.32769
 Alpha  occ. eigenvalues --   -0.31802  -0.26746  -0.25723  -0.24423
 Alpha virt. eigenvalues --    0.08741   0.09303   0.09932   0.11050   0.12552
 Alpha virt. eigenvalues --    0.13323   0.14805   0.15130   0.16388   0.17190
 Alpha virt. eigenvalues --    0.17561   0.18389   0.19458   0.21305   0.22819

 Mulliken charges:
               1
     1  C   -0.229702
     2  C   -0.229735
     3  C   -0.144502
     4  C   -0.159888
     5  C    0.427778
     6  C   -0.162180
     7  O   -0.253313
     8  C    0.011573
     9  O   -0.277424
    10  H    0.103969
    11  H    0.113922
    12  H    0.106936
    13  H    0.103400
    14  H    0.083807
    15  H    0.086129
    16  H    0.105371
    17  H    0.112465
    18  H    0.083136
    19  H    0.118259
 Sum of Mulliken charges =   0.00000

 Dipole moment (field-independent basis, Debye):
    X=              1.1187    Y=              0.6372    Z=              0.6996  Tot=              1.4652
 Quadrupole moment (field-independent basis, Debye-Ang):
   XX=            -55.4341   YY=            -50.7050   ZZ=            -52.9402
   XY=              2.0911   XZ=             -0.3615   YZ=             -0.7480

  Exact polarizability:  84.602   1.378  72.868  -0.230  -1.490  67.171
 Approx polarizability: 109.590   2.901 106.477   0.071  -1.269 104.445

                      1                      2                      3
                      A                      A                      A
 Frequencies --     45.1733               172.7288               173.9076
 Red. masses --      3.9522                 3.3088                 2.3375
 Frc consts  --      0.0048                 0.0582                 0.0417
 IR Inten    --      1.9649                 0.5514                 1.7735

                      4                      5                      6
                      A                      A                      A
 Frequencies --    234.3053               261.1570               405.9103
 Red. masses --      2.3958                 2.0207                 4.4569
 Frc consts  --      0.0775                 0.0812                 0.4327
 IR Inten    --      5.1753                 0.8185                 2.0060

                      7                      8                      9
                      A                      A                      A
 Frequencies --    511.9093               555.5710               733.7530
 Red. masses --      2.9355                 3.9207                 5.8442
 Frc consts  --      0.4532                 0.7130                 1.8539
 IR Inten    --      2.9141                 1.2219                 5.2742

                     10                     11                     12
                      A                      A                      A
 Frequencies --    756.6764               774.5931               787.7548
 Red. masses --      3.5940                 2.9036                 1.4535
 Frc consts  --      1.2124                 1.0264                 0.5314
 IR Inten    --      3.0697                 2.6532                 2.9989

                     13                     14                     15
                      A                      A                      A
 Frequencies --    848.8182               858.5596               936.5608
 Red. masses --      1.8192                 2.6646                 2.2934
 Frc consts  --      0.7723                 1.1572                 1.1852
 IR Inten    --      1.5655                10.2017                 6.8982

                     16                     17                     18
                      A                      A                      A
 Frequencies --    959.5930               977.3714               979.7119
 Red. masses --      3.9445                 1.3138                 1.9334
 Frc consts  --      2.1400                 0.7394                 1.0934
 IR Inten    --     69.6532                 7.2418                17.6059

                     19                     20                     21
                      A                      A                      A
 Frequencies --    997.5263              1020.9415              1039.3070
 Red. masses --      1.9805                 2.1079                 5.9623
 Frc consts  --      1.1611                 1.2945                 3.7945
 IR Inten    --      3.1449                 3.6439                65.1766

                     22                     23                     24
                      A                      A                      A
 Frequencies --   1080.0504              1086.6323              1116.0032
 Red. masses --      2.2322                 1.8719                 4.2350
 Frc consts  --      1.5342                 1.3022                 3.1076
 IR Inten    --      8.4490                 2.4576               136.4073

                     25                     26                     27
                      A                      A                      A
 Frequencies --   1129.4173              1173.8803              1201.9675
 Red. masses --      2.4066                 1.6061                 1.5441
 Frc consts  --      1.8087                 1.3040                 1.3143
 IR Inten    --      4.2154                38.9706                14.2844

                     28                     29                     30
                      A                      A                      A
 Frequencies --   1213.9140              1227.3226              1231.3026
 Red. masses --      1.2121                 1.2077                 1.2504
 Frc consts  --      1.0524                 1.0719                 1.1169
 IR Inten    --      9.5518                 0.3092                10.2892

                     31                     32                     33
                      A                      A                      A
 Frequencies --   1245.8505              1258.7712              1267.2186
 Red. masses --      1.7721                 1.4714                 1.6353
 Frc consts  --      1.6206                 1.3736                 1.5472
 IR Inten    --     41.6120                 0.6330                 0.7917

                     34                     35                     36
                      A                      A                      A
 Frequencies --   1287.9409              1363.9619              1421.4156
 Red. masses --      1.6073                 1.3003                 1.5307
 Frc consts  --      1.5708                 1.4253                 1.8222
 IR Inten    --      2.7217                 4.6631                19.5610

                     37                     38                     39
                      A                      A                      A
 Frequencies --   1452.3299              1475.9326              1498.9948
 Red. masses --      2.6600                 1.0844                 1.1404
 Frc consts  --      3.3057                 1.3918                 1.5097
 IR Inten    --      6.0974                 0.4429                 1.4859

                     40                     41                     42
                      A                      A                      A
 Frequencies --   1525.0854              1542.6276              2936.2363
 Red. masses --      1.0927                 1.1158                 1.0703
 Frc consts  --      1.4974                 1.5645                 5.4367
 IR Inten    --      0.8283                 2.6816               100.2884

                     43                     44                     45
                      A                      A                      A
 Frequencies --   3011.1290              3054.5650              3062.5282
 Red. masses --      1.0600                 1.1054                 1.0572
 Frc consts  --      5.6627                 6.0765                 5.8421
 IR Inten    --     49.5673                35.1305                36.6111

                     46                     47                     48
                      A                      A                      A
 Frequencies --   3069.6227              3092.0628              3108.8213
 Red. masses --      1.0594                 1.0945                 1.1085
 Frc consts  --      5.8813                 6.1653                 6.3122
 IR Inten    --     47.1500                46.2296                 0.4015

                     49                     50                     51
                      A                      A                      A
 Frequencies --   3126.7607              3155.6529              3166.2338
 Red. masses --      1.1073                 1.0881                 1.0957
 Frc consts  --      6.3783                 6.3840                 6.4718
 IR Inten    --     34.8874                22.5175                20.6084

 - Thermochemistry -
 -------------------
 Temperature   298.150 Kelvin.  Pressure   1.00000 Atm.
 Atom     1 has atomic number  6 and mass  12.00000

 Molecular mass:   126.06808 amu.
 Principal axes and moments of inertia in atomic units:
                           1         2         3
     Eigenvalues --   460.942041384.164261523.37739
           X            0.99999  -0.00264  -0.00402
           Y            0.00251   0.99952  -0.03085
           Z            0.00410   0.03084   0.99952
 This molecule is an asymmetric top.
 Rotational symmetry number  1.
 Warning -- assumption of classical behavior for rotation
           may cause significant error
 Rotational temperatures (Kelvin)      0.18791     0.06257     0.05686
 Rotational constants (GHZ):           3.91533     1.30385     1.18470
 Zero-point vibrational energy     422377.8 (Joules/Mol)
                                  100.95073 (Kcal/Mol)
 Warning -- explicit consideration of   8 degrees of freedom as
           vibrations may cause significant error
 Vibrational temperatures:     64.99   248.52   250.21   337.11   375.75
          (Kelvin)            584.01   736.52   799.34  1055.71  1088.69
                             1114.47  1133.40  1221.26  1235.27  1347.50
                             1380.64  1406.22  1409.59  1435.22  1468.91
                             1495.33  1553.95  1563.42  1605.68  1624.98
                             1688.95  1729.36  1746.55  1765.84  1771.57
                             1792.50  1811.09  1823.24  1853.06  1962.43
                             2045.10  2089.58  2123.54  2156.72  2194.25
                             2219.49  4224.58  4332.34  4394.83  4406.29
                             4416.50  4448.78  4472.89  4498.71  4540.28
                             4555.50

 Zero-point correction=                           0.160875 (Hartree/Particle)
 Thermal correction to Energy=                    0.168478
 Thermal correction to Enthalpy=                  0.169423
 Thermal correction to Gibbs Free Energy=         0.128155
 Sum of electronic and zero-point Energies=           -422.988559
 Sum of electronic and thermal Energies=              -422.980956
 Sum of electronic and thermal Enthalpies=            -422.980012
 Sum of electronic and thermal Free Energies=         -423.021279

                     E (Thermal)             CV                S
                      KCal/Mol        Cal/Mol-Kelvin    Cal/Mol-Kelvin
 Total                  105.722             29.139             86.855
 Electronic               0.000              0.000              0.000
 Translational            0.889              2.981             40.409
 Rotational               0.889              2.981             28.365
 Vibrational            103.944             23.177             18.081
 Vibration     1          0.595              1.979              5.018
 Vibration     2          0.626              1.876              2.406
 Vibration     3          0.627              1.875              2.393
 Vibration     4          0.654              1.788              1.846
 Vibration     5          0.669              1.744              1.654
 Vibration     6          0.771              1.457              0.941
 Vibration     7          0.867              1.224              0.629
 Vibration     8          0.911              1.128              0.533

 Optimization completed.
    -- Stationary point found.
 Normal termination of Gaussian 09 at Mon Jan 27 13:04:01 2020.
