 Gaussian 09, Revision D.01,
 Gaussian 09:  ES64L-G09RevD.01 24-Apr-2013

 -----------------------------
 # b3lyp 6-31G(2df,p) opt Freq
 -----------------------------

 -----
 titel
 -----
 Symbolic Z-matrix:
 Charge =  0 Multiplicity = 1

 SCF Done:  E(RB3LYP) =  -423.226805897     A.U. after   14 cycles
 Optimization completed.
    -- Stationary point found.
 Normal termination of Gaussian 09 at Mon Jan 27 13:06:40 2020.

 ----------------------------------------------------------------------
 #N Geom=AllCheck Guess=TCheck SCRF=Check GenChk RB3LYP/6-31G(2df,p) Fr
 eq
 ----------------------------------------------------------------------

 Structure from the checkpoint file:  "/scratch/puck/g09_045006d3-5f1b-44c1-b51f-177d70503e01/Gau-169214.chk"
 -----
 titel
 -----
 Charge =  0 Multiplicity = 1

                         Standard orientation:
 ---------------------------------------------------------------------
 Center     Atomic      Atomic             Coordinates (Angstroms)
 Number     Number       Type             X           Y           Z
 ---------------------------------------------------------------------
      1          8           0       -2.808638   -0.896144    0.109598
      2          6           0       -1.773917   -0.316895   -0.042474
      3          6           0       -0.456904   -0.841501   -0.607351
      4          6           0        0.576354    0.183064   -0.130129
      5          6           0        1.371612   -0.261875    1.138998
      6          6           0        2.578071   -0.601618    0.223625
      7          6           0        1.922733    0.248036   -0.899164
      8          6           0       -0.289657    1.442812   -0.037674
      9          8           0       -1.618718    0.998127    0.281417
     10          1           0       -0.282725   -1.868553   -0.282882
     11          1           0       -0.542796   -0.848431   -1.701734
     12          1           0        1.583109    0.584783    1.798765
     13          1           0        0.942466   -1.068996    1.738123
     14          1           0        3.567837   -0.296582    0.568362
     15          1           0        2.614801   -1.663111   -0.034399
     16          1           0        2.321876    1.267497   -0.925233
     17          1           0        1.931685   -0.152119   -1.916571
     18          1           0        0.030219    2.134261    0.746024
     19          1           0       -0.317382    1.983242   -0.993560
 ---------------------------------------------------------------------

 SCF Done:  E(RB3LYP) =  -423.226805897     A.U. after    1 cycles

 The electronic state is 1-A.
 Alpha  occ. eigenvalues --  -19.17809 -19.11896 -10.30104 -10.24597 -10.21322
 Alpha  occ. eigenvalues --  -10.20298 -10.19636 -10.19435 -10.19381  -1.09617
 Alpha  occ. eigenvalues --   -1.01780  -0.86708  -0.76667  -0.72750  -0.67547
 Alpha  occ. eigenvalues --   -0.62902  -0.56981  -0.54552  -0.50549  -0.49758
 Alpha  occ. eigenvalues --   -0.48483  -0.47220  -0.43717  -0.42548  -0.39975
 Alpha  occ. eigenvalues --   -0.39172  -0.38070  -0.37332  -0.34810  -0.33340
 Alpha  occ. eigenvalues --   -0.31716  -0.31363  -0.28961  -0.26162
 Alpha virt. eigenvalues --    0.01473   0.06988   0.08339   0.08800   0.11033
 Alpha virt. eigenvalues --    0.11445   0.13744   0.15124   0.15251   0.16692
 Alpha virt. eigenvalues --    0.17607   0.18931   0.19178   0.20422   0.21319

 Mulliken charges:
               1
     1  O   -0.334695
     2  C    0.432590
     3  C   -0.431033
     4  C    0.323163
     5  C   -0.264395
     6  C   -0.209397
     7  C   -0.287366
     8  C   -0.147234
     9  O   -0.218965
    10  H    0.137437
    11  H    0.134017
    12  H    0.103580
    13  H    0.109262
    14  H    0.105087
    15  H    0.110351
    16  H    0.103887
    17  H    0.102116
    18  H    0.120223
    19  H    0.111373
 Sum of Mulliken charges =   0.00000

 Dipole moment (field-independent basis, Debye):
    X=              4.3399    Y=              0.8173    Z=             -0.8970  Tot=              4.5064
 Quadrupole moment (field-independent basis, Debye-Ang):
   XX=            -65.6164   YY=            -52.1091   ZZ=            -51.5699
   XY=             -1.7403   XZ=              2.0830   YZ=              0.0934

  Exact polarizability:  85.683   4.433  72.957  -0.329   0.162  65.609
 Approx polarizability: 114.734  10.688 111.833  -2.150   0.932  98.513

                      1                      2                      3
                      A                      A                      A
 Frequencies --     84.4986               111.0247               168.7540
 Red. masses --      3.8666                 2.2043                 4.7130
 Frc consts  --      0.0163                 0.0160                 0.0791
 IR Inten    --      4.2225                 0.8541                 0.3003

                      4                      5                      6
                      A                      A                      A
 Frequencies --    259.2092               352.9524               368.4585
 Red. masses --      2.1286                 2.2452                 2.0328
 Frc consts  --      0.0843                 0.1648                 0.1626
 IR Inten    --      0.8645                 0.7695                 0.6121

                      7                      8                      9
                      A                      A                      A
 Frequencies --    438.2835               508.2560               564.3128
 Red. masses --      4.1387                 4.2829                 2.7725
 Frc consts  --      0.4684                 0.6519                 0.5202
 IR Inten    --      2.8419                 3.3076                 4.0933

                     10                     11                     12
                      A                      A                      A
 Frequencies --    667.0018               702.6547               764.1419
 Red. masses --      2.3825                 3.0869                 2.0092
 Frc consts  --      0.6245                 0.8980                 0.6912
 IR Inten    --      0.9553                 4.1538                 0.7404

                     13                     14                     15
                      A                      A                      A
 Frequencies --    798.6981               844.0879               879.0241
 Red. masses --      1.4547                 4.2243                 2.1542
 Frc consts  --      0.5467                 1.7733                 0.9807
 IR Inten    --      0.4193                 9.4358                 0.3221

                     16                     17                     18
                      A                      A                      A
 Frequencies --    916.4396               933.7242               941.6032
 Red. masses --      2.5951                 2.0117                 2.4395
 Frc consts  --      1.2841                 1.0334                 1.2743
 IR Inten    --      8.2859                 1.6570                 1.4856

                     19                     20                     21
                      A                      A                      A
 Frequencies --    953.7754               982.8272              1053.5950
 Red. masses --      1.8529                 2.0429                 4.7184
 Frc consts  --      0.9931                 1.1627                 3.0860
 IR Inten    --      1.1690                 0.5650                91.7075

                     22                     23                     24
                      A                      A                      A
 Frequencies --   1071.7814              1102.3492              1125.9526
 Red. masses --      1.3333                 1.9686                 2.8146
 Frc consts  --      0.9024                 1.4094                 2.1023
 IR Inten    --     15.5476                31.4058                25.4125

                     25                     26                     27
                      A                      A                      A
 Frequencies --   1179.7762              1195.1061              1207.5969
 Red. masses --      2.4194                 1.6280                 1.3629
 Frc consts  --      1.9841                 1.3700                 1.1710
 IR Inten    --    104.1058                 2.4612                 1.6410

                     28                     29                     30
                      A                      A                      A
 Frequencies --   1216.6553              1255.1827              1259.2348
 Red. masses --      1.4996                 1.3896                 1.2307
 Frc consts  --      1.3079                 1.2899                 1.1498
 IR Inten    --     17.3631                 2.0140                 0.2557

                     31                     32                     33
                      A                      A                      A
 Frequencies --   1276.1627              1285.6070              1300.9932
 Red. masses --      1.4790                 1.6220                 1.7550
 Frc consts  --      1.4191                 1.5795                 1.7501
 IR Inten    --      1.7181                 7.5399                 2.7143

                     34                     35                     36
                      A                      A                      A
 Frequencies --   1314.8662              1395.3537              1460.6680
 Red. masses --      2.0965                 1.5399                 1.0905
 Frc consts  --      2.1356                 1.7664                 1.3708
 IR Inten    --      8.8795                13.5092                 9.7222

                     37                     38                     39
                      A                      A                      A
 Frequencies --   1478.1849              1486.5191              1507.2473
 Red. masses --      1.0885                 1.0842                 1.1267
 Frc consts  --      1.4013                 1.4115                 1.5080
 IR Inten    --      1.8312                 0.7389                 0.9839

                     40                     41                     42
                      A                      A                      A
 Frequencies --   1517.6248              1886.5570              3016.2886
 Red. masses --      1.0911                12.7775                 1.0665
 Frc consts  --      1.4807                26.7940                 5.7168
 IR Inten    --      1.6196               402.6985                36.8098

                     43                     44                     45
                      A                      A                      A
 Frequencies --   3035.8776              3045.2051              3054.2326
 Red. masses --      1.0685                 1.0587                 1.0593
 Frc consts  --      5.8022                 5.7843                 5.8218
 IR Inten    --     10.1181                49.0261                15.3343

                     46                     47                     48
                      A                      A                      A
 Frequencies --   3067.4700              3095.2195              3096.8485
 Red. masses --      1.0620                 1.0998                 1.1043
 Frc consts  --      5.8878                 6.2079                 6.2398
 IR Inten    --     30.1436                13.3639                25.5761

                     49                     50                     51
                      A                      A                      A
 Frequencies --   3104.6568              3122.0378              3125.2092
 Red. masses --      1.1071                 1.0971                 1.1048
 Frc consts  --      6.2874                 6.3007                 6.3579
 IR Inten    --      7.6137                 9.1638                45.9565

 - Thermochemistry -
 -------------------
 Temperature   298.150 Kelvin.  Pressure   1.00000 Atm.
 Atom     1 has atomic number  8 and mass  15.99491

 Molecular mass:   126.06808 amu.
 Principal axes and moments of inertia in atomic units:
                           1         2         3
     Eigenvalues --   486.725431569.564171715.39037
           X            0.99996  -0.00784   0.00528
           Y            0.00786   0.99996  -0.00527
           Z           -0.00524   0.00531   0.99997
 This molecule is an asymmetric top.
 Rotational symmetry number  1.
 Warning -- assumption of classical behavior for rotation
           may cause significant error
 Rotational temperatures (Kelvin)      0.17795     0.05518     0.05049
 Rotational constants (GHZ):           3.70792     1.14984     1.05209
 Zero-point vibrational energy     422160.9 (Joules/Mol)
                                  100.89887 (Kcal/Mol)
 Warning -- explicit consideration of   9 degrees of freedom as
           vibrations may cause significant error
 Vibrational temperatures:    121.57   159.74   242.80   372.94   507.82
          (Kelvin)            530.13   630.59   731.27   811.92   959.67
                             1010.96  1099.43  1149.15  1214.45  1264.72
                             1318.55  1343.42  1354.76  1372.27  1414.07
                             1515.89  1542.05  1586.03  1619.99  1697.43
                             1719.49  1737.46  1750.49  1805.93  1811.76
                             1836.11  1849.70  1871.84  1891.80  2007.60
                             2101.57  2126.78  2138.77  2168.59  2183.52
                             2714.33  4339.76  4367.95  4381.37  4394.35
                             4413.40  4453.32  4455.67  4466.90  4491.91
                             4496.47

 Zero-point correction=                           0.160793 (Hartree/Particle)
 Thermal correction to Energy=                    0.168599
 Thermal correction to Enthalpy=                  0.169543
 Thermal correction to Gibbs Free Energy=         0.128139
 Sum of electronic and zero-point Energies=           -423.066013
 Sum of electronic and thermal Energies=              -423.058207
 Sum of electronic and thermal Enthalpies=            -423.057263
 Sum of electronic and thermal Free Energies=         -423.098667

                     E (Thermal)             CV                S
                      KCal/Mol        Cal/Mol-Kelvin    Cal/Mol-Kelvin
 Total                  105.797             30.167             87.142
 Electronic               0.000              0.000              0.000
 Translational            0.889              2.981             40.409
 Rotational               0.889              2.981             28.662
 Vibrational            104.020             24.205             18.071
 Vibration     1          0.601              1.960              3.784
 Vibration     2          0.607              1.940              3.251
 Vibration     3          0.625              1.881              2.449
 Vibration     4          0.668              1.747              1.667
 Vibration     5          0.729              1.569              1.153
 Vibration     6          0.741              1.537              1.086
 Vibration     7          0.798              1.387              0.832
 Vibration     8          0.863              1.232              0.638
 Vibration     9          0.920              1.108              0.515

 Optimization completed.
    -- Stationary point found.
 Normal termination of Gaussian 09 at Mon Jan 27 13:48:01 2020.
