 Gaussian 09, Revision D.01,
 Gaussian 09:  ES64L-G09RevD.01 24-Apr-2013

 -----------------------------
 # b3lyp 6-31G(2df,p) opt Freq
 -----------------------------

 -----
 titel
 -----
 Symbolic Z-matrix:
 Charge =  0 Multiplicity = 1

 SCF Done:  E(RB3LYP) =  -423.110848372     A.U. after   14 cycles
 Optimization completed.
    -- Stationary point found.
 Normal termination of Gaussian 09 at Tue Jan 28 12:07:13 2020.

 ----------------------------------------------------------------------
 #N Geom=AllCheck Guess=TCheck SCRF=Check GenChk RB3LYP/6-31G(2df,p) Fr
 eq
 ----------------------------------------------------------------------

 Structure from the checkpoint file:  "/scratch/puck/g09_1976ff95-fe28-4e0e-97e1-86ab53cf81ce/Gau-1487.chk"
 -----
 titel
 -----
 Charge =  0 Multiplicity = 1

                         Standard orientation:
 ---------------------------------------------------------------------
 Center     Atomic      Atomic             Coordinates (Angstroms)
 Number     Number       Type             X           Y           Z
 ---------------------------------------------------------------------
      1          6           0       -4.424019   -0.204330    0.332990
      2          8           0       -3.093649    0.246353    0.433598
      3          6           0       -2.253474   -0.364909   -0.527568
      4          6           0       -0.890360    0.129226   -0.393254
      5          6           0        0.242754    0.525056   -0.310089
      6          6           0        1.618603    0.991465   -0.176518
      7          6           0        2.518041   -0.005445    0.534770
      8          6           0        3.957617   -0.066278    0.260886
      9          8           0        3.064760   -1.053970   -0.259917
     10          1           0       -4.999509    0.311709    1.104663
     11          1           0       -4.861914    0.025564   -0.651805
     12          1           0       -4.502936   -1.291270    0.496392
     13          1           0       -2.266336   -1.462390   -0.405228
     14          1           0       -2.626252   -0.160878   -1.546988
     15          1           0        2.045619    1.203049   -1.164348
     16          1           0        1.629619    1.937532    0.382054
     17          1           0        2.161726   -0.325387    1.514278
     18          1           0        4.392424    0.605710   -0.478572
     19          1           0        4.643703   -0.411413    1.032805
 ---------------------------------------------------------------------

 SCF Done:  E(RB3LYP) =  -423.110848372     A.U. after    1 cycles

 The electronic state is 1-A.
 Alpha  occ. eigenvalues --  -19.15212 -19.14256 -10.24970 -10.24489 -10.23643
 Alpha  occ. eigenvalues --  -10.22573 -10.21435 -10.17743 -10.17213  -1.07376
 Alpha  occ. eigenvalues --   -1.03613  -0.79664  -0.75936  -0.69703  -0.66525
 Alpha  occ. eigenvalues --   -0.64564  -0.60638  -0.52216  -0.49896  -0.48638
 Alpha  occ. eigenvalues --   -0.48070  -0.47687  -0.45904  -0.43450  -0.40741
 Alpha  occ. eigenvalues --   -0.39916  -0.38725  -0.37884  -0.32576  -0.31099
 Alpha  occ. eigenvalues --   -0.27604  -0.26483  -0.25976  -0.24560
 Alpha virt. eigenvalues --    0.03710   0.05154   0.09888   0.10544   0.11128
 Alpha virt. eigenvalues --    0.12323   0.12996   0.14407   0.14475   0.15781
 Alpha virt. eigenvalues --    0.16452   0.16701   0.18289   0.18841   0.20047

 Mulliken charges:
               1
     1  C   -0.218145
     2  O   -0.228602
     3  C   -0.202537
     4  C    0.023613
     5  C    0.129942
     6  C   -0.384028
     7  C    0.109596
     8  C   -0.181414
     9  O   -0.225084
    10  H    0.130266
    11  H    0.104180
    12  H    0.104562
    13  H    0.115613
    14  H    0.113749
    15  H    0.136209
    16  H    0.137040
    17  H    0.104375
    18  H    0.113519
    19  H    0.117146
 Sum of Mulliken charges =   0.00000

 Dipole moment (field-independent basis, Debye):
    X=             -0.0162    Y=              0.7734    Z=              0.1787  Tot=              0.7940
 Quadrupole moment (field-independent basis, Debye-Ang):
   XX=            -40.7834   YY=            -54.6436   ZZ=            -52.5617
   XY=              8.4201   XZ=              4.3732   YZ=             -1.3686

  Exact polarizability: 125.475   7.979  62.895   0.870  -0.994  61.431
 Approx polarizability: 154.109  16.391  96.805   1.399   3.004  91.085

                      1                      2                      3
                      A                      A                      A
 Frequencies --     14.9789                50.7152                69.0008
 Red. masses --      3.1963                 4.1460                 2.4566
 Frc consts  --      0.0004                 0.0063                 0.0069
 IR Inten    --      1.6586                 3.4308                 9.4721

                      4                      5                      6
                      A                      A                      A
 Frequencies --    102.9734               114.7467               231.7277
 Red. masses --      4.3590                 3.3181                 1.1728
 Frc consts  --      0.0272                 0.0257                 0.0371
 IR Inten    --      1.2791                 0.4912                 2.6833

                      7                      8                      9
                      A                      A                      A
 Frequencies --    263.9577               300.6307               321.6892
 Red. masses --      3.2293                 3.7177                 3.1118
 Frc consts  --      0.1326                 0.1980                 0.1897
 IR Inten    --      1.6204                 1.0665                 0.1130

                     10                     11                     12
                      A                      A                      A
 Frequencies --    379.2953               395.4920               478.3820
 Red. masses --      3.0680                 3.3940                 4.3540
 Frc consts  --      0.2601                 0.3128                 0.5871
 IR Inten    --      3.5447                 2.1841                 3.1634

                     13                     14                     15
                      A                      A                      A
 Frequencies --    555.1636               787.2128               818.4355
 Red. masses --      5.9154                 3.0969                 3.4729
 Frc consts  --      1.0742                 1.1308                 1.3706
 IR Inten    --      4.7511                 9.4835                 0.7665

                     16                     17                     18
                      A                      A                      A
 Frequencies --    862.1225               937.9679               959.3426
 Red. masses --      1.9177                 2.8355                 2.4856
 Frc consts  --      0.8398                 1.4698                 1.3478
 IR Inten    --     16.9999                 9.2038                36.8143

                     19                     20                     21
                      A                      A                      A
 Frequencies --    978.1776              1026.9911              1094.9628
 Red. masses --      4.3888                 1.6093                 1.3777
 Frc consts  --      2.4742                 1.0000                 0.9732
 IR Inten    --     25.9272                 2.4715                 0.8220

                     22                     23                     24
                      A                      A                      A
 Frequencies --   1107.4065              1136.5536              1158.0887
 Red. masses --      1.7321                 5.5870                 1.3934
 Frc consts  --      1.2515                 4.2521                 1.1010
 IR Inten    --      4.5003               135.0515                 4.1985

                     25                     26                     27
                      A                      A                      A
 Frequencies --   1168.2250              1178.3429              1182.6149
 Red. masses --      1.3619                 3.2105                 1.2800
 Frc consts  --      1.0951                 2.6264                 1.0548
 IR Inten    --      4.7358                59.0088                 3.1106

                     28                     29                     30
                      A                      A                      A
 Frequencies --   1220.2407              1245.0686              1254.7826
 Red. masses --      1.5509                 1.2098                 1.0882
 Frc consts  --      1.3606                 1.1049                 1.0095
 IR Inten    --     38.7624                 2.9953                 3.5076

                     31                     32                     33
                      A                      A                      A
 Frequencies --   1293.3411              1320.3436              1411.7751
 Red. masses --      1.6418                 1.4208                 1.3687
 Frc consts  --      1.6181                 1.4594                 1.6073
 IR Inten    --      6.5720                24.5680               111.8626

                     34                     35                     36
                      A                      A                      A
 Frequencies --   1438.6510              1450.2142              1477.2475
 Red. masses --      1.6687                 1.1195                 1.1615
 Frc consts  --      2.0348                 1.3872                 1.4933
 IR Inten    --     14.9386                 2.1032                 0.4131

                     37                     38                     39
                      A                      A                      A
 Frequencies --   1484.3921              1495.8590              1516.7314
 Red. masses --      1.0468                 1.0709                 1.0750
 Frc consts  --      1.3590                 1.4119                 1.4571
 IR Inten    --      5.1567                 3.2503                 3.2740

                     40                     41                     42
                      A                      A                      A
 Frequencies --   1530.3369              2376.9983              2942.7059
 Red. masses --      1.3540                11.8873                 1.0532
 Frc consts  --      1.8682                39.5723                 5.3732
 IR Inten    --      3.7470                 8.7345                28.7333

                     43                     44                     45
                      A                      A                      A
 Frequencies --   2959.8205              2967.5054              3009.2647
 Red. masses --      1.1026                 1.0384                 1.1030
 Frc consts  --      5.6913                 5.3875                 5.8851
 IR Inten    --     45.9425                80.5286                58.6419

                     46                     47                     48
                      A                      A                      A
 Frequencies --   3017.0315              3058.3974              3081.8308
 Red. masses --      1.0609                 1.0979                 1.0503
 Frc consts  --      5.6898                 6.0509                 5.8773
 IR Inten    --     17.1189                 5.1383                29.2085

                     49                     50                     51
                      A                      A                      A
 Frequencies --   3112.4853              3119.7319              3168.3265
 Red. masses --      1.0892                 1.0954                 1.1191
 Frc consts  --      6.2170                 6.2814                 6.6187
 IR Inten    --     19.2162                26.7249                28.3319

 - Thermochemistry -
 -------------------
 Temperature   298.150 Kelvin.  Pressure   1.00000 Atm.
 Atom     1 has atomic number  6 and mass  12.00000

 Molecular mass:   126.06808 amu.
 Principal axes and moments of inertia in atomic units:
                           1         2         3
     Eigenvalues --   256.566413803.641473875.20597
           X            0.99990   0.01375   0.00364
           Y           -0.01349   0.99790  -0.06331
           Z           -0.00450   0.06325   0.99799
 This molecule is an asymmetric top.
 Rotational symmetry number  1.
 Rotational temperatures (Kelvin)      0.33759     0.02277     0.02235
 Rotational constants (GHZ):           7.03421     0.47448     0.46571
 Zero-point vibrational energy     410488.3 (Joules/Mol)
                                   98.10905 (Kcal/Mol)
 Warning -- explicit consideration of  13 degrees of freedom as
           vibrations may cause significant error
 Vibrational temperatures:     21.55    72.97    99.28   148.16   165.09
          (Kelvin)            333.40   379.78   432.54   462.84   545.72
                              569.02   688.28   798.76  1132.62  1177.54
                             1240.40  1349.52  1380.28  1407.38  1477.61
                             1575.41  1593.31  1635.25  1666.23  1680.81
                             1695.37  1701.52  1755.65  1791.37  1805.35
                             1860.83  1899.68  2031.23  2069.90  2086.53
                             2125.43  2135.71  2152.20  2182.24  2201.81
                             3419.97  4233.89  4258.52  4269.57  4329.66
                             4340.83  4400.35  4434.06  4478.17  4488.59
                             4558.51

 Zero-point correction=                           0.156347 (Hartree/Particle)
 Thermal correction to Energy=                    0.166654
 Thermal correction to Enthalpy=                  0.167598
 Thermal correction to Gibbs Free Energy=         0.118189
 Sum of electronic and zero-point Energies=           -422.954502
 Sum of electronic and thermal Energies=              -422.944194
 Sum of electronic and thermal Enthalpies=            -422.943250
 Sum of electronic and thermal Free Energies=         -422.992659

                     E (Thermal)             CV                S
                      KCal/Mol        Cal/Mol-Kelvin    Cal/Mol-Kelvin
 Total                  104.577             34.703            103.990
 Electronic               0.000              0.000              0.000
 Translational            0.889              2.981             40.409
 Rotational               0.889              2.981             29.715
 Vibrational            102.800             28.742             33.866
 Vibration     1          0.593              1.986              7.208
 Vibration     2          0.595              1.977              4.789
 Vibration     3          0.598              1.969              4.182
 Vibration     4          0.605              1.947              3.397
 Vibration     5          0.608              1.937              3.187
 Vibration     6          0.653              1.792              1.866
 Vibration     7          0.671              1.739              1.635
 Vibration     8          0.693              1.672              1.413
 Vibration     9          0.707              1.632              1.302
 Vibration    10          0.749              1.514              1.042
 Vibration    11          0.762              1.480              0.979
 Vibration    12          0.835              1.298              0.714
 Vibration    13          0.911              1.128              0.534

 Optimization completed.
    -- Stationary point found.
 Normal termination of Gaussian 09 at Tue Jan 28 12:41:30 2020.
