 Gaussian 09, Revision D.01,
 Gaussian 09:  ES64L-G09RevD.01 24-Apr-2013

 -----------------------------
 # b3lyp 6-31G(2df,p) opt Freq
 -----------------------------

 -----
 titel
 -----
 Symbolic Z-matrix:
 Charge =  0 Multiplicity = 1

 SCF Done:  E(RB3LYP) =  -423.094927732     A.U. after   13 cycles
 Optimization completed.
    -- Stationary point found.
 Normal termination of Gaussian 09 at Tue Jan 28 02:10:09 2020.

 ----------------------------------------------------------------------
 #N Geom=AllCheck Guess=TCheck SCRF=Check GenChk RB3LYP/6-31G(2df,p) Fr
 eq
 ----------------------------------------------------------------------

 Structure from the checkpoint file:  "/scratch/puck/g09_41ce92fa-9ba4-4ad8-9377-42d146c00d32/Gau-76062.chk"
 -----
 titel
 -----
 Charge =  0 Multiplicity = 1

                         Standard orientation:
 ---------------------------------------------------------------------
 Center     Atomic      Atomic             Coordinates (Angstroms)
 Number     Number       Type             X           Y           Z
 ---------------------------------------------------------------------
      1          8           0       -3.048748   -0.669805   -0.076406
      2          6           0       -1.826613   -0.170028    0.381593
      3          6           0       -1.557676    1.273028    0.100310
      4          6           0       -0.756918    0.203481   -0.620548
      5          6           0        0.673644    0.000302   -0.286876
      6          6           0        1.541632   -1.292595   -0.333156
      7          6           0        2.320149   -0.185587    0.408572
      8          6           0        1.929996    0.829227   -0.687006
      9          8           0        1.079235    0.164638    1.141028
     10          1           0       -2.930816   -1.604247   -0.276708
     11          1           0       -1.482760   -0.560110    1.338136
     12          1           0       -2.304632    1.803956   -0.478222
     13          1           0       -1.052233    1.850534    0.865468
     14          1           0       -1.009978    0.035962   -1.663449
     15          1           0        1.185730   -2.111118    0.294100
     16          1           0        1.916046   -1.626138   -1.304552
     17          1           0        3.237030   -0.256987    0.992557
     18          1           0        1.912923    1.872745   -0.370789
     19          1           0        2.339515    0.689767   -1.690854
 ---------------------------------------------------------------------

 SCF Done:  E(RB3LYP) =  -423.094927732     A.U. after    1 cycles

 The electronic state is 1-A.
 Alpha  occ. eigenvalues --  -19.14125 -19.12887 -10.25245 -10.24746 -10.23293
 Alpha  occ. eigenvalues --  -10.19084 -10.19051 -10.18923 -10.18192  -1.05201
 Alpha  occ. eigenvalues --   -1.02601  -0.84881  -0.79029  -0.67858  -0.67429
 Alpha  occ. eigenvalues --   -0.59220  -0.58951  -0.54040  -0.52928  -0.50547
 Alpha  occ. eigenvalues --   -0.45649  -0.44834  -0.44448  -0.40108  -0.38609
 Alpha  occ. eigenvalues --   -0.37907  -0.36314  -0.34880  -0.33321  -0.32122
 Alpha  occ. eigenvalues --   -0.31195  -0.28087  -0.25248  -0.23347
 Alpha virt. eigenvalues --    0.08163   0.08912   0.10884   0.11630   0.12345
 Alpha virt. eigenvalues --    0.12600   0.14076   0.14336   0.14652   0.15897
 Alpha virt. eigenvalues --    0.16792   0.18182   0.19094   0.19889   0.21322

 Mulliken charges:
               1
     1  O   -0.424622
     2  C    0.102334
     3  C   -0.300752
     4  C   -0.232758
     5  C    0.440147
     6  C   -0.260417
     7  C    0.050101
     8  C   -0.256932
     9  O   -0.344086
    10  H    0.284760
    11  H    0.106612
    12  H    0.121017
    13  H    0.131368
    14  H    0.092884
    15  H    0.102234
    16  H    0.092545
    17  H    0.095971
    18  H    0.107205
    19  H    0.092390
 Sum of Mulliken charges =   0.00000

 Dipole moment (field-independent basis, Debye):
    X=              1.3739    Y=             -1.2124    Z=             -1.5860  Tot=              2.4234
 Quadrupole moment (field-independent basis, Debye-Ang):
   XX=            -55.3839   YY=            -49.0918   ZZ=            -54.0501
   XY=              1.7570   XZ=             -0.2007   YZ=              0.1547

  Exact polarizability:  88.014  -0.493  74.818  -0.632   0.343  65.970
 Approx polarizability: 115.577  -0.500 109.706  -1.754   2.339 107.205

                      1                      2                      3
                      A                      A                      A
 Frequencies --     58.1723               122.7901               160.1344
 Red. masses --      3.1955                 4.0382                 4.0074
 Frc consts  --      0.0064                 0.0359                 0.0605
 IR Inten    --      0.7904                 0.7257                 1.2109

                      4                      5                      6
                      A                      A                      A
 Frequencies --    289.8223               336.3551               374.3416
 Red. masses --      1.6161                 1.8778                 3.5908
 Frc consts  --      0.0800                 0.1252                 0.2965
 IR Inten    --     52.1103                60.0262                 5.6142

                      7                      8                      9
                      A                      A                      A
 Frequencies --    380.9886               455.1190               524.9138
 Red. masses --      3.3208                 2.5734                 1.8255
 Frc consts  --      0.2840                 0.3141                 0.2964
 IR Inten    --      6.2015                 4.6434                 4.0214

                     10                     11                     12
                      A                      A                      A
 Frequencies --    603.2876               655.0467               734.2585
 Red. masses --      2.5748                 2.8536                 3.7745
 Frc consts  --      0.5521                 0.7214                 1.1990
 IR Inten    --      6.5659                 6.2231                16.5300

                     13                     14                     15
                      A                      A                      A
 Frequencies --    793.1878               841.8053               881.9090
 Red. masses --      2.7155                 2.1009                 2.0571
 Frc consts  --      1.0066                 0.8771                 0.9427
 IR Inten    --      0.3274                 5.0637                15.9517

                     16                     17                     18
                      A                      A                      A
 Frequencies --    901.4172               911.1308               932.9698
 Red. masses --      3.0988                 3.1631                 2.5002
 Frc consts  --      1.4835                 1.5471                 1.2822
 IR Inten    --      7.5978                 5.0706                 9.1816

                     19                     20                     21
                      A                      A                      A
 Frequencies --    951.4264               961.6861               986.5505
 Red. masses --      1.8087                 3.2775                 1.2880
 Frc consts  --      0.9646                 1.7859                 0.7386
 IR Inten    --      4.3063                53.4054                 3.9183

                     22                     23                     24
                      A                      A                      A
 Frequencies --   1012.6357              1067.0586              1078.3395
 Red. masses --      2.1828                 1.2101                 1.2881
 Frc consts  --      1.3188                 0.8118                 0.8825
 IR Inten    --      6.3737                 3.7714                 1.3958

                     25                     26                     27
                      A                      A                      A
 Frequencies --   1092.2721              1100.3311              1115.0712
 Red. masses --      1.5494                 1.5169                 1.3801
 Frc consts  --      1.0891                 1.0821                 1.0111
 IR Inten    --      4.2455                 6.8408                 5.1571

                     28                     29                     30
                      A                      A                      A
 Frequencies --   1143.5387              1157.7265              1179.9445
 Red. masses --      1.5698                 1.4882                 2.0900
 Frc consts  --      1.2094                 1.1752                 1.7144
 IR Inten    --      2.5721                 1.1777                 7.0286

                     31                     32                     33
                      A                      A                      A
 Frequencies --   1212.0127              1218.3815              1240.7175
 Red. masses --      1.7167                 1.7641                 1.5078
 Frc consts  --      1.4858                 1.5429                 1.3675
 IR Inten    --     68.7905                47.3673                 4.6749

                     34                     35                     36
                      A                      A                      A
 Frequencies --   1242.6703              1275.5542              1296.3578
 Red. masses --      1.8179                 1.7248                 1.2376
 Frc consts  --      1.6540                 1.6534                 1.2254
 IR Inten    --      4.1754                12.4171                71.9215

                     37                     38                     39
                      A                      A                      A
 Frequencies --   1381.4710              1438.1862              1465.4613
 Red. masses --      2.0830                 1.2913                 1.1282
 Frc consts  --      2.3421                 1.5736                 1.4276
 IR Inten    --     30.9864                 7.9956                 1.5149

                     40                     41                     42
                      A                      A                      A
 Frequencies --   1491.1424              1516.2346              3057.1700
 Red. masses --      1.7270                 1.4409                 1.0565
 Frc consts  --      2.2624                 1.9518                 5.8180
 IR Inten    --     19.0196                11.6610                32.7476

                     43                     44                     45
                      A                      A                      A
 Frequencies --   3065.8724              3120.7584              3126.4908
 Red. masses --      1.0556                 1.0875                 1.0942
 Frc consts  --      5.8458                 6.2405                 6.3016
 IR Inten    --     32.3121                12.8013                60.9756

                     46                     47                     48
                      A                      A                      A
 Frequencies --   3142.5326              3144.0619              3148.8492
 Red. masses --      1.1093                 1.0546                 1.1097
 Frc consts  --      6.4546                 6.1424                 6.4827
 IR Inten    --     18.7761                 5.0925                28.6587

                     49                     50                     51
                      A                      A                      A
 Frequencies --   3156.4352              3238.9802              3806.4768
 Red. masses --      1.0877                 1.1177                 1.0661
 Frc consts  --      6.3847                 6.9084                 9.1010
 IR Inten    --      7.1290                 2.9087                18.8980

 - Thermochemistry -
 -------------------
 Temperature   298.150 Kelvin.  Pressure   1.00000 Atm.
 Atom     1 has atomic number  8 and mass  15.99491

 Molecular mass:   126.06808 amu.
 Principal axes and moments of inertia in atomic units:
                           1         2         3
     Eigenvalues --   450.975531709.281931811.72525
           X            0.99996  -0.00528  -0.00759
           Y            0.00522   0.99996  -0.00789
           Z            0.00763   0.00785   0.99994
 This molecule is an asymmetric top.
 Rotational symmetry number  1.
 Warning -- assumption of classical behavior for rotation
           may cause significant error
 Rotational temperatures (Kelvin)      0.19206     0.05067     0.04781
 Rotational constants (GHZ):           4.00186     1.05585     0.99615
 Zero-point vibrational energy     416240.9 (Joules/Mol)
                                   99.48397 (Kcal/Mol)
 Warning -- explicit consideration of  10 degrees of freedom as
           vibrations may cause significant error
 Vibrational temperatures:     83.70   176.67   230.40   416.99   483.94
          (Kelvin)            538.59   548.16   654.81   755.23   868.00
                              942.46  1056.43  1141.22  1211.17  1268.87
                             1296.94  1310.91  1342.33  1368.89  1383.65
                             1419.42  1456.96  1535.26  1551.49  1571.53
                             1583.13  1604.34  1645.30  1665.71  1697.67
                             1743.81  1752.98  1785.11  1787.92  1835.24
                             1865.17  1987.63  2069.23  2108.47  2145.42
                             2181.52  4398.58  4411.10  4490.07  4498.32
                             4521.40  4523.60  4530.49  4541.40  4660.16
                             5476.66

 Zero-point correction=                           0.158538 (Hartree/Particle)
 Thermal correction to Energy=                    0.166656
 Thermal correction to Enthalpy=                  0.167601
 Thermal correction to Gibbs Free Energy=         0.125501
 Sum of electronic and zero-point Energies=           -422.936390
 Sum of electronic and thermal Energies=              -422.928271
 Sum of electronic and thermal Enthalpies=            -422.927327
 Sum of electronic and thermal Free Energies=         -422.969426

                     E (Thermal)             CV                S
                      KCal/Mol        Cal/Mol-Kelvin    Cal/Mol-Kelvin
 Total                  104.578             31.799             88.605
 Electronic               0.000              0.000              0.000
 Translational            0.889              2.981             40.409
 Rotational               0.889              2.981             28.725
 Vibrational            102.801             25.838             19.471
 Vibration     1          0.596              1.974              4.518
 Vibration     2          0.610              1.930              3.056
 Vibration     3          0.622              1.891              2.548
 Vibration     4          0.686              1.693              1.475
 Vibration     5          0.717              1.603              1.229
 Vibration     6          0.745              1.525              1.062
 Vibration     7          0.751              1.511              1.035
 Vibration     8          0.813              1.350              0.780
 Vibration     9          0.880              1.195              0.599
 Vibration    10          0.962              1.025              0.444

 Normal termination of Gaussian 09 at Tue Jan 28 02:51:07 2020.
