 Gaussian 09, Revision D.01,
 Gaussian 09:  ES64L-G09RevD.01 24-Apr-2013

 -----------------------------
 # b3lyp 6-31G(2df,p) opt Freq
 -----------------------------

 -----
 titel
 -----
 Symbolic Z-matrix:
 Charge =  0 Multiplicity = 1

 SCF Done:  E(RB3LYP) =  -423.113730231     A.U. after   12 cycles
 Optimization completed.
    -- Stationary point found.
 Normal termination of Gaussian 09 at Mon Jan 27 22:05:26 2020.

 ----------------------------------------------------------------------
 #N Geom=AllCheck Guess=TCheck SCRF=Check GenChk RB3LYP/6-31G(2df,p) Fr
 eq
 ----------------------------------------------------------------------

 Structure from the checkpoint file:  "/scratch/puck/g09_d3d898c1-a74c-4c96-9bb4-3c2e5173439b/Gau-46717.chk"
 -----
 titel
 -----
 Charge =  0 Multiplicity = 1

                         Standard orientation:
 ---------------------------------------------------------------------
 Center     Atomic      Atomic             Coordinates (Angstroms)
 Number     Number       Type             X           Y           Z
 ---------------------------------------------------------------------
      1          6           0        2.408054    0.381428   -0.061603
      2          6           0        1.224879   -0.375631   -0.648988
      3          6           0        0.020867    0.397297   -1.245053
      4          6           0       -0.969242   -0.783637   -0.965961
      5          6           0       -2.006357    0.117945   -0.262368
      6          6           0       -0.633234    0.675787    0.161993
      7          8           0       -0.348849    1.684631    1.068734
      8          6           0        0.013656   -0.750604    0.243222
      9          8           0       -0.061552   -1.632858    1.304306
     10          1           0        3.049581    0.781948   -0.854556
     11          1           0        2.078267    1.215292    0.563372
     12          1           0        3.028851   -0.282627    0.551200
     13          1           0        1.563473   -1.205078   -1.282993
     14          1           0       -0.013742    1.053773   -2.113001
     15          1           0       -1.130281   -1.632658   -1.625808
     16          1           0       -2.624127    0.750995   -0.908143
     17          1           0       -2.606340   -0.349827    0.522714
     18          1           0       -0.769040    2.497388    0.766813
     19          1           0        0.354826   -1.218886    2.068627
 ---------------------------------------------------------------------

 SCF Done:  E(RB3LYP) =  -423.113730231     A.U. after    1 cycles

 The electronic state is 1-A.
 Alpha  occ. eigenvalues --  -19.15164 -19.14445 -10.24028 -10.23686 -10.19417
 Alpha  occ. eigenvalues --  -10.19115 -10.18255 -10.17912 -10.16631  -1.04116
 Alpha  occ. eigenvalues --   -1.02573  -0.92578  -0.76260  -0.68552  -0.62985
 Alpha  occ. eigenvalues --   -0.62565  -0.57838  -0.53791  -0.53422  -0.47671
 Alpha  occ. eigenvalues --   -0.45141  -0.43047  -0.42020  -0.41151  -0.39373
 Alpha  occ. eigenvalues --   -0.37937  -0.35615  -0.34964  -0.31710  -0.31665
 Alpha  occ. eigenvalues --   -0.29931  -0.28027  -0.25305  -0.25112
 Alpha virt. eigenvalues --    0.06592   0.09204   0.11764   0.12448   0.12903
 Alpha virt. eigenvalues --    0.13783   0.14722   0.16296   0.16717   0.17553
 Alpha virt. eigenvalues --    0.18558   0.19393   0.20822   0.21218   0.21786

 Mulliken charges:
               1
     1  C   -0.439843
     2  C   -0.063907
     3  C   -0.133545
     4  C   -0.087018
     5  C   -0.338512
     6  C    0.318590
     7  O   -0.477679
     8  C    0.363071
     9  O   -0.480485
    10  H    0.111708
    11  H    0.131952
    12  H    0.111140
    13  H    0.063487
    14  H    0.071380
    15  H    0.083326
    16  H    0.084606
    17  H    0.106117
    18  H    0.284800
    19  H    0.290812
 Sum of Mulliken charges =   0.00000

 Dipole moment (field-independent basis, Debye):
    X=             -0.1306    Y=              1.6302    Z=             -0.5822  Tot=              1.7359
 Quadrupole moment (field-independent basis, Debye-Ang):
   XX=            -52.7284   YY=            -52.3716   ZZ=            -51.5800
   XY=             -2.9878   XZ=              1.3238   YZ=             -0.2441

  Exact polarizability:  83.928  -0.948  71.311   0.998   0.248  71.084
 Approx polarizability: 110.672  -1.187 110.490   1.358   0.105 111.079

                      1                      2                      3
                      A                      A                      A
 Frequencies --    175.3902               192.0909               200.8629
 Red. masses --      2.5320                 2.5071                 1.6470
 Frc consts  --      0.0459                 0.0545                 0.0392
 IR Inten    --     18.4058                 0.6756                 8.8526

                      4                      5                      6
                      A                      A                      A
 Frequencies --    218.0802               262.7577               271.0847
 Red. masses --      1.6831                 1.2046                 1.7389
 Frc consts  --      0.0472                 0.0490                 0.0753
 IR Inten    --      4.3693                30.8618                63.4187

                      7                      8                      9
                      A                      A                      A
 Frequencies --    304.7024               381.2385               464.0371
 Red. masses --      1.8840                 3.7851                 2.8813
 Frc consts  --      0.1031                 0.3241                 0.3656
 IR Inten    --     62.2901                20.4616                 4.8743

                     10                     11                     12
                      A                      A                      A
 Frequencies --    501.1403               517.0158               672.2574
 Red. masses --      2.5484                 3.3297                 4.3624
 Frc consts  --      0.3771                 0.5244                 1.1616
 IR Inten    --      5.6176                 3.1335                 8.0939

                     13                     14                     15
                      A                      A                      A
 Frequencies --    680.4997               709.8239               755.1528
 Red. masses --      4.2740                 3.9402                 3.0238
 Frc consts  --      1.1661                 1.1697                 1.0159
 IR Inten    --      7.6729                 2.3150                 7.8230

                     16                     17                     18
                      A                      A                      A
 Frequencies --    845.2123               887.4612               913.8959
 Red. masses --      1.9374                 1.9948                 2.0410
 Frc consts  --      0.8155                 0.9256                 1.0043
 IR Inten    --      1.6896                 0.4168                 4.2779

                     19                     20                     21
                      A                      A                      A
 Frequencies --    936.9686               975.5884               994.7210
 Red. masses --      2.2848                 2.2788                 1.5955
 Frc consts  --      1.1818                 1.2779                 0.9301
 IR Inten    --     11.3217                10.1641                 9.5148

                     22                     23                     24
                      A                      A                      A
 Frequencies --   1021.1686              1043.1303              1080.7835
 Red. masses --      1.4428                 1.6936                 1.8139
 Frc consts  --      0.8864                 1.0858                 1.2484
 IR Inten    --      4.0777                 9.1031                18.9768

                     25                     26                     27
                      A                      A                      A
 Frequencies --   1087.5790              1105.4346              1140.5618
 Red. masses --      1.3534                 2.0321                 1.6088
 Frc consts  --      0.9432                 1.4630                 1.2330
 IR Inten    --      2.5550                 6.8376                 0.1418

                     28                     29                     30
                      A                      A                      A
 Frequencies --   1143.6421              1184.4648              1205.1055
 Red. masses --      2.2455                 2.0854                 1.8424
 Frc consts  --      1.7304                 1.7238                 1.5764
 IR Inten    --      1.4702                88.1500                 3.4922

                     31                     32                     33
                      A                      A                      A
 Frequencies --   1220.0932              1251.8960              1273.0920
 Red. masses --      1.7954                 1.7542                 2.3194
 Frc consts  --      1.5747                 1.6198                 2.2149
 IR Inten    --      8.1259                56.2743               136.4698

                     34                     35                     36
                      A                      A                      A
 Frequencies --   1292.0056              1345.5409              1387.4050
 Red. masses --      2.1561                 2.0472                 1.7291
 Frc consts  --      2.1205                 2.1837                 1.9610
 IR Inten    --    154.5884                17.3858                 2.3018

                     37                     38                     39
                      A                      A                      A
 Frequencies --   1410.8667              1422.0594              1501.1351
 Red. masses --      1.3362                 2.1249                 1.0605
 Frc consts  --      1.5670                 2.5317                 1.4079
 IR Inten    --      4.1805                44.9030                 4.1392

                     40                     41                     42
                      A                      A                      A
 Frequencies --   1505.9338              1508.5775              3023.9172
 Red. masses --      1.0582                 1.1954                 1.0703
 Frc consts  --      1.4139                 1.6029                 5.7665
 IR Inten    --      2.8222                 8.2841                32.4678

                     43                     44                     45
                      A                      A                      A
 Frequencies --   3030.5180              3042.1025              3083.8690
 Red. masses --      1.0503                 1.0568                 1.1001
 Frc consts  --      5.6835                 5.7620                 6.1640
 IR Inten    --     51.9224                47.8221                24.2010

                     46                     47                     48
                      A                      A                      A
 Frequencies --   3108.2153              3122.1851              3130.1406
 Red. masses --      1.1077                 1.0993                 1.0905
 Frc consts  --      6.3052                 6.3136                 6.2950
 IR Inten    --     27.2202                16.4856                30.1457

                     49                     50                     51
                      A                      A                      A
 Frequencies --   3151.4389              3801.7978              3802.6247
 Red. masses --      1.0936                 1.0659                 1.0658
 Frc consts  --      6.3990                 9.0767                 9.0802
 IR Inten    --     26.5062                31.9793                28.3916

 - Thermochemistry -
 -------------------
 Temperature   298.150 Kelvin.  Pressure   1.00000 Atm.
 Atom     1 has atomic number  6 and mass  12.00000

 Molecular mass:   126.06808 amu.
 Principal axes and moments of inertia in atomic units:
                           1         2         3
     Eigenvalues --   812.141301048.269181157.86610
           X            0.99988   0.00916   0.01242
           Y           -0.00930   0.99990   0.01100
           Z           -0.01232  -0.01111   0.99986
 This molecule is an asymmetric top.
 Rotational symmetry number  1.
 Warning -- assumption of classical behavior for rotation
           may cause significant error
 Rotational temperatures (Kelvin)      0.10665     0.08263     0.07480
 Rotational constants (GHZ):           2.22220     1.72164     1.55868
 Zero-point vibrational energy     414429.9 (Joules/Mol)
                                   99.05112 (Kcal/Mol)
 Warning -- explicit consideration of  11 degrees of freedom as
           vibrations may cause significant error
 Vibrational temperatures:    252.35   276.38   289.00   313.77   378.05
          (Kelvin)            390.03   438.40   548.52   667.64   721.03
                              743.87   967.23   979.09  1021.28  1086.50
                             1216.07  1276.86  1314.89  1348.09  1403.65
                             1431.18  1469.23  1500.83  1555.00  1564.78
                             1590.47  1641.01  1645.44  1704.18  1733.88
                             1755.44  1801.20  1831.69  1858.91  1935.93
                             1996.16  2029.92  2046.02  2159.80  2166.70
                             2170.50  4350.74  4360.23  4376.90  4436.99
                             4472.02  4492.12  4503.57  4534.21  5469.93
                             5471.12

 Zero-point correction=                           0.157848 (Hartree/Particle)
 Thermal correction to Energy=                    0.166365
 Thermal correction to Enthalpy=                  0.167310
 Thermal correction to Gibbs Free Energy=         0.125532
 Sum of electronic and zero-point Energies=           -422.955882
 Sum of electronic and thermal Energies=              -422.947365
 Sum of electronic and thermal Enthalpies=            -422.946421
 Sum of electronic and thermal Free Energies=         -422.988199

                     E (Thermal)             CV                S
                      KCal/Mol        Cal/Mol-Kelvin    Cal/Mol-Kelvin
 Total                  104.396             33.672             87.929
 Electronic               0.000              0.000              0.000
 Translational            0.889              2.981             40.409
 Rotational               0.889              2.981             28.379
 Vibrational            102.618             27.711             19.141
 Vibration     1          0.627              1.873              2.377
 Vibration     2          0.634              1.851              2.208
 Vibration     3          0.638              1.839              2.125
 Vibration     4          0.646              1.814              1.975
 Vibration     5          0.670              1.741              1.643
 Vibration     6          0.675              1.727              1.589
 Vibration     7          0.696              1.665              1.391
 Vibration     8          0.751              1.510              1.034
 Vibration     9          0.822              1.330              0.754
 Vibration    10          0.857              1.247              0.655
 Vibration    11          0.872              1.212              0.617

 Normal termination of Gaussian 09 at Mon Jan 27 22:57:11 2020.
