 Gaussian 09, Revision D.01,
 Gaussian 09:  ES64L-G09RevD.01 24-Apr-2013

 -----------------------------
 # b3lyp 6-31G(2df,p) opt Freq
 -----------------------------

 -----
 titel
 -----
 Symbolic Z-matrix:
 Charge =  0 Multiplicity = 1

 SCF Done:  E(RB3LYP) =  -423.204889954     A.U. after   14 cycles
 Optimization completed.
    -- Stationary point found.
 Normal termination of Gaussian 09 at Tue Jan 28 00:49:22 2020.

 ----------------------------------------------------------------------
 #N Geom=AllCheck Guess=TCheck SCRF=Check GenChk RB3LYP/6-31G(2df,p) Fr
 eq
 ----------------------------------------------------------------------

 Structure from the checkpoint file:  "/scratch/puck/g09_ce4b7e6d-0590-4362-ba2d-a32b51f5cd64/Gau-38483.chk"
 -----
 titel
 -----
 Charge =  0 Multiplicity = 1

                         Standard orientation:
 ---------------------------------------------------------------------
 Center     Atomic      Atomic             Coordinates (Angstroms)
 Number     Number       Type             X           Y           Z
 ---------------------------------------------------------------------
      1          6           0        1.945242   -1.185462   -0.586928
      2          6           0        1.199501   -0.530371    0.585793
      3          6           0       -0.180226   -1.191771    0.838159
      4          6           0       -1.308636   -0.593126    0.013695
      5          8           0       -2.018097   -1.245752   -0.712115
      6          6           0       -1.515446    0.904675    0.226603
      7          6           0       -0.208735    1.663930    0.202746
      8          8           0        0.623237    1.392755   -0.927713
      9          6           0        1.083732    0.973007    0.364877
     10          1           0        2.100737   -2.251573   -0.396669
     11          1           0        1.375934   -1.076353   -1.513566
     12          1           0        2.924545   -0.720303   -0.738442
     13          1           0        1.800019   -0.670700    1.492490
     14          1           0       -0.142311   -2.267295    0.651125
     15          1           0       -0.452602   -1.041562    1.891990
     16          1           0       -2.199971    1.280841   -0.538849
     17          1           0       -1.998961    1.046204    1.203749
     18          1           0       -0.270094    2.719949    0.469267
     19          1           0        1.928998    1.559475    0.727862
 ---------------------------------------------------------------------

 SCF Done:  E(RB3LYP) =  -423.204889954     A.U. after    1 cycles

 The electronic state is 1-A.
 Alpha  occ. eigenvalues --  -19.15600 -19.12911 -10.27020 -10.24881 -10.24424
 Alpha  occ. eigenvalues --  -10.20821 -10.19802 -10.19419 -10.17906  -1.07854
 Alpha  occ. eigenvalues --   -1.03968  -0.81991  -0.77559  -0.70819  -0.67683
 Alpha  occ. eigenvalues --   -0.62143  -0.58611  -0.53510  -0.49755  -0.48525
 Alpha  occ. eigenvalues --   -0.46738  -0.44820  -0.43685  -0.42363  -0.40734
 Alpha  occ. eigenvalues --   -0.39513  -0.38421  -0.37213  -0.35883  -0.34315
 Alpha  occ. eigenvalues --   -0.33609  -0.29951  -0.27405  -0.24186
 Alpha virt. eigenvalues --   -0.01485   0.08335   0.08854   0.11182   0.11578
 Alpha virt. eigenvalues --    0.11788   0.12729   0.15128   0.16009   0.16985
 Alpha virt. eigenvalues --    0.17503   0.18087   0.19029   0.20030   0.20929

 Mulliken charges:
               1
     1  C   -0.384560
     2  C   -0.026165
     3  C   -0.315431
     4  C    0.392157
     5  O   -0.307092
     6  C   -0.333412
     7  C    0.046737
     8  O   -0.249069
     9  C    0.034624
    10  H    0.115566
    11  H    0.146558
    12  H    0.117339
    13  H    0.082421
    14  H    0.120621
    15  H    0.113326
    16  H    0.134674
    17  H    0.122497
    18  H    0.094770
    19  H    0.094441
 Sum of Mulliken charges =   0.00000

 Dipole moment (field-independent basis, Debye):
    X=              1.4595    Y=              1.1233    Z=              3.1800  Tot=              3.6748
 Quadrupole moment (field-independent basis, Debye-Ang):
   XX=            -55.0520   YY=            -53.3202   ZZ=            -54.3890
   XY=             -5.3716   XZ=             -1.7224   YZ=              0.4003

  Exact polarizability:  82.068  -3.096  77.831   2.876   2.378  63.696
 Approx polarizability: 114.615  -0.164 108.623   8.035   5.172 106.620

                      1                      2                      3
                      A                      A                      A
 Frequencies --     61.9548                93.5305               226.1972
 Red. masses --      3.1603                 5.7684                 1.0330
 Frc consts  --      0.0071                 0.0297                 0.0311
 IR Inten    --      1.3861                 1.9373                 0.2912

                      4                      5                      6
                      A                      A                      A
 Frequencies --    236.6391               318.9562               373.3982
 Red. masses --      3.5700                 2.6054                 2.4656
 Frc consts  --      0.1178                 0.1562                 0.2025
 IR Inten    --      2.1915                 2.6448                 3.5885

                      7                      8                      9
                      A                      A                      A
 Frequencies --    394.8942               427.9873               482.6798
 Red. masses --      2.7434                 3.5763                 4.1737
 Frc consts  --      0.2521                 0.3860                 0.5729
 IR Inten    --      2.9086                 3.9844                 9.2022

                     10                     11                     12
                      A                      A                      A
 Frequencies --    550.8184               624.9530               686.4982
 Red. masses --      3.8690                 3.5163                 4.4121
 Frc consts  --      0.6916                 0.8092                 1.2251
 IR Inten    --      1.8137                 4.5167                 1.6797

                     13                     14                     15
                      A                      A                      A
 Frequencies --    770.3989               800.9165               816.0461
 Red. masses --      3.5316                 2.8118                 1.9784
 Frc consts  --      1.2350                 1.0627                 0.7762
 IR Inten    --      4.0767                 7.9276                 3.7877

                     16                     17                     18
                      A                      A                      A
 Frequencies --    873.3366               906.7058               951.9559
 Red. masses --      2.6738                 2.9292                 2.2500
 Frc consts  --      1.2016                 1.4188                 1.2014
 IR Inten    --     14.3499                 2.8519                 2.0595

                     19                     20                     21
                      A                      A                      A
 Frequencies --    989.3361               998.1523              1034.3674
 Red. masses --      1.8713                 2.3068                 1.7900
 Frc consts  --      1.0791                 1.3541                 1.1284
 IR Inten    --      9.6940                12.0952                 7.8970

                     22                     23                     24
                      A                      A                      A
 Frequencies --   1054.8916              1084.6070              1147.3689
 Red. masses --      1.3375                 1.7286                 1.4019
 Frc consts  --      0.8769                 1.1981                 1.0873
 IR Inten    --      8.9846                 3.1559                 5.8212

                     25                     26                     27
                      A                      A                      A
 Frequencies --   1157.8041              1186.3166              1226.8311
 Red. masses --      1.5252                 2.1049                 1.4634
 Frc consts  --      1.2046                 1.7454                 1.2977
 IR Inten    --      2.4539                24.3514                19.3875

                     28                     29                     30
                      A                      A                      A
 Frequencies --   1246.1779              1272.1620              1297.3161
 Red. masses --      1.4111                 1.4757                 1.4792
 Frc consts  --      1.2911                 1.4071                 1.4668
 IR Inten    --     13.6111                 3.5827                 7.0308

                     31                     32                     33
                      A                      A                      A
 Frequencies --   1326.7140              1347.3240              1376.9640
 Red. masses --      1.9569                 1.3378                 1.5377
 Frc consts  --      2.0294                 1.4308                 1.7177
 IR Inten    --      6.6089                 1.6202                 6.4113

                     34                     35                     36
                      A                      A                      A
 Frequencies --   1385.2481              1412.4707              1450.3208
 Red. masses --      1.3503                 1.2317                 1.1914
 Frc consts  --      1.5267                 1.4478                 1.4765
 IR Inten    --      8.3165                 6.2604                 9.7610

                     37                     38                     39
                      A                      A                      A
 Frequencies --   1470.4455              1473.4958              1494.9796
 Red. masses --      1.0885                 2.3868                 1.0512
 Frc consts  --      1.3866                 3.0532                 1.3843
 IR Inten    --      5.5246                 8.4479                 4.6496

                     40                     41                     42
                      A                      A                      A
 Frequencies --   1500.6312              1827.9839              3014.0938
 Red. masses --      1.0684                11.3702                 1.0686
 Frc consts  --      1.4175                22.3854                 5.7200
 IR Inten    --      5.9417               174.3461                 2.9181

                     43                     44                     45
                      A                      A                      A
 Frequencies --   3022.0322              3033.8206              3040.9737
 Red. masses --      1.0671                 1.0782                 1.0370
 Frc consts  --      5.7419                 5.8470                 5.6503
 IR Inten    --     15.0764                27.5011                18.7006

                     46                     47                     48
                      A                      A                      A
 Frequencies --   3092.5876              3097.4217              3105.3094
 Red. masses --      1.0866                 1.0935                 1.0954
 Frc consts  --      6.1232                 6.1809                 6.2237
 IR Inten    --     12.2555                17.6334                27.2080

                     49                     50                     51
                      A                      A                      A
 Frequencies --   3106.6103              3110.3689              3127.2142
 Red. masses --      1.0957                 1.0979                 1.1015
 Frc consts  --      6.2302                 6.2582                 6.3465
 IR Inten    --     39.9393                26.3317                17.8594

 - Thermochemistry -
 -------------------
 Temperature   298.150 Kelvin.  Pressure   1.00000 Atm.
 Atom     1 has atomic number  6 and mass  12.00000

 Molecular mass:   126.06808 amu.
 Principal axes and moments of inertia in atomic units:
                           1         2         3
     Eigenvalues --   815.817071012.495421450.40815
           X            0.97767  -0.20929  -0.01872
           Y            0.20956   0.97770   0.01398
           Z            0.01538  -0.01759   0.99973
 This molecule is an asymmetric top.
 Rotational symmetry number  1.
 Warning -- assumption of classical behavior for rotation
           may cause significant error
 Rotational temperatures (Kelvin)      0.10617     0.08554     0.05972
 Rotational constants (GHZ):           2.21219     1.78247     1.24430
 Zero-point vibrational energy     419352.2 (Joules/Mol)
                                  100.22757 (Kcal/Mol)
 Warning -- explicit consideration of  10 degrees of freedom as
           vibrations may cause significant error
 Vibrational temperatures:     89.14   134.57   325.45   340.47   458.91
          (Kelvin)            537.24   568.16   615.78   694.47   792.50
                              899.17   987.72  1108.43  1152.34  1174.11
                             1256.53  1304.55  1369.65  1423.43  1436.12
                             1488.22  1517.75  1560.51  1650.81  1665.82
                             1706.84  1765.13  1792.97  1830.36  1866.55
                             1908.84  1938.50  1981.14  1993.06  2032.23
                             2086.69  2115.64  2120.03  2150.94  2159.07
                             2630.06  4336.60  4348.02  4364.99  4375.28
                             4449.54  4456.49  4467.84  4469.71  4475.12
                             4499.36

 Zero-point correction=                           0.159723 (Hartree/Particle)
 Thermal correction to Energy=                    0.167903
 Thermal correction to Enthalpy=                  0.168847
 Thermal correction to Gibbs Free Energy=         0.126655
 Sum of electronic and zero-point Energies=           -423.045167
 Sum of electronic and thermal Energies=              -423.036987
 Sum of electronic and thermal Enthalpies=            -423.036043
 Sum of electronic and thermal Free Energies=         -423.078235

                     E (Thermal)             CV                S
                      KCal/Mol        Cal/Mol-Kelvin    Cal/Mol-Kelvin
 Total                  105.360             31.333             88.800
 Electronic               0.000              0.000              0.000
 Translational            0.889              2.981             40.409
 Rotational               0.889              2.981             28.573
 Vibrational            103.583             25.372             19.818
 Vibration     1          0.597              1.972              4.394
 Vibration     2          0.603              1.954              3.585
 Vibration     3          0.650              1.801              1.909
 Vibration     4          0.656              1.785              1.828
 Vibration     5          0.705              1.637              1.315
 Vibration     6          0.745              1.527              1.066
 Vibration     7          0.762              1.481              0.982
 Vibration     8          0.789              1.409              0.865
 Vibration     9          0.839              1.288              0.703
 Vibration    10          0.906              1.138              0.542

 Optimization completed.
    -- Stationary point found.
 Normal termination of Gaussian 09 at Tue Jan 28 02:57:04 2020.
