 Gaussian 09, Revision D.01,
 Gaussian 09:  ES64L-G09RevD.01 24-Apr-2013

 -----------------------------
 # b3lyp 6-31G(2df,p) opt Freq
 -----------------------------

 -----
 titel
 -----
 Symbolic Z-matrix:
 Charge =  0 Multiplicity = 1

 SCF Done:  E(RB3LYP) =  -423.170767107     A.U. after   14 cycles
 Optimization completed.
    -- Stationary point found.
 Normal termination of Gaussian 09 at Tue Jan 28 02:51:13 2020.

 ----------------------------------------------------------------------
 #N Geom=AllCheck Guess=TCheck SCRF=Check GenChk RB3LYP/6-31G(2df,p) Fr
 eq
 ----------------------------------------------------------------------

 Structure from the checkpoint file:  "/scratch/puck/g09_ecf95c78-a24b-43ea-aff8-ecf19154e2da/Gau-60102.chk"
 -----
 titel
 -----
 Charge =  0 Multiplicity = 1

                         Standard orientation:
 ---------------------------------------------------------------------
 Center     Atomic      Atomic             Coordinates (Angstroms)
 Number     Number       Type             X           Y           Z
 ---------------------------------------------------------------------
      1          6           0       -2.758104   -0.850775   -0.281350
      2          6           0       -1.729242   -0.017118    0.481782
      3          8           0       -0.478834   -0.720008    0.548377
      4          6           0        0.576851    0.067957    0.033856
      5          6           0        1.843618    0.183231    0.928018
      6          8           0        2.686241   -0.284539   -0.142850
      7          6           0        1.546108   -0.650430   -0.943580
      8          6           0       -0.074474    1.336815   -0.422896
      9          6           0       -1.375785    1.296324   -0.163991
     10          1           0       -2.879308   -1.826484    0.197156
     11          1           0       -3.731033   -0.348160   -0.288509
     12          1           0       -2.436031   -1.005792   -1.315144
     13          1           0       -2.094234    0.138425    1.510250
     14          1           0        2.128993    1.182713    1.275929
     15          1           0        1.814285   -0.512671    1.776366
     16          1           0        1.613000   -0.261390   -1.966196
     17          1           0        1.377827   -1.734880   -0.967710
     18          1           0        0.481519    2.142311   -0.885718
     19          1           0       -2.108106    2.066289   -0.371674
 ---------------------------------------------------------------------

 SCF Done:  E(RB3LYP) =  -423.170767107     A.U. after    1 cycles

 The electronic state is 1-A.
 Alpha  occ. eigenvalues --  -19.14200 -19.12984 -10.24378 -10.24122 -10.22372
 Alpha  occ. eigenvalues --  -10.22341 -10.19299 -10.19177 -10.17991  -1.05082
 Alpha  occ. eigenvalues --   -1.02570  -0.79679  -0.77626  -0.70244  -0.68901
 Alpha  occ. eigenvalues --   -0.61816  -0.57829  -0.54852  -0.51386  -0.48364
 Alpha  occ. eigenvalues --   -0.47146  -0.45970  -0.43525  -0.40689  -0.40216
 Alpha  occ. eigenvalues --   -0.39925  -0.38251  -0.36072  -0.35198  -0.32913
 Alpha  occ. eigenvalues --   -0.30649  -0.27994  -0.24604  -0.23787
 Alpha virt. eigenvalues --    0.00596   0.07902   0.09561   0.11908   0.12165
 Alpha virt. eigenvalues --    0.13722   0.14583   0.15715   0.16224   0.16352
 Alpha virt. eigenvalues --    0.17630   0.18357   0.18823   0.19387   0.21992

 Mulliken charges:
               1
     1  C   -0.388651
     2  C    0.066733
     3  O   -0.314215
     4  C    0.321342
     5  C   -0.123398
     6  O   -0.273015
     7  C   -0.121246
     8  C   -0.147087
     9  C   -0.110805
    10  H    0.128954
    11  H    0.113493
    12  H    0.120569
    13  H    0.086694
    14  H    0.100190
    15  H    0.106422
    16  H    0.100148
    17  H    0.106222
    18  H    0.117407
    19  H    0.110243
 Sum of Mulliken charges =   0.00000

 Dipole moment (field-independent basis, Debye):
    X=             -2.2692    Y=              1.3414    Z=             -0.2831  Tot=              2.6513
 Quadrupole moment (field-independent basis, Debye-Ang):
   XX=            -56.8000   YY=            -51.9348   ZZ=            -51.8118
   XY=              0.2440   XZ=              0.3027   YZ=              0.3736

  Exact polarizability:  96.934   0.918  70.110  -2.176  -0.331  66.417
 Approx polarizability: 135.601   0.638 101.207  -7.227  -1.905  98.596

                      1                      2                      3
                      A                      A                      A
 Frequencies --     66.6148                86.8213               176.8800
 Red. masses --      4.0411                 4.0692                 2.5202
 Frc consts  --      0.0106                 0.0181                 0.0465
 IR Inten    --      0.3885                 4.4212                 0.1123

                      4                      5                      6
                      A                      A                      A
 Frequencies --    233.9957               298.0477               300.3652
 Red. masses --      1.0597                 2.7879                 2.4334
 Frc consts  --      0.0342                 0.1459                 0.1294
 IR Inten    --      0.3397                 2.6303                 1.2987

                      7                      8                      9
                      A                      A                      A
 Frequencies --    376.7835               430.7079               488.7769
 Red. masses --      2.2143                 3.8436                 3.8741
 Frc consts  --      0.1852                 0.4201                 0.5453
 IR Inten    --      1.3559                 2.4675                 1.5993

                     10                     11                     12
                      A                      A                      A
 Frequencies --    565.1111               736.1886               779.5086
 Red. masses --      3.0711                 2.5112                 1.4663
 Frc consts  --      0.5778                 0.8019                 0.5249
 IR Inten    --      0.1568                 7.4494                24.1440

                     13                     14                     15
                      A                      A                      A
 Frequencies --    800.3258               846.2350               870.8493
 Red. masses --      4.6052                 3.6336                 2.8470
 Frc consts  --      1.7379                 1.5331                 1.2721
 IR Inten    --      8.9054                 2.3725                 2.7724

                     16                     17                     18
                      A                      A                      A
 Frequencies --    898.9888               937.4986               942.9713
 Red. masses --      2.1789                 2.1539                 1.3130
 Frc consts  --      1.0375                 1.1154                 0.6879
 IR Inten    --      8.8754                38.1848                 1.1267

                     19                     20                     21
                      A                      A                      A
 Frequencies --    962.7605              1000.9637              1030.5421
 Red. masses --      1.3211                 3.3880                10.8802
 Frc consts  --      0.7215                 2.0000                 6.8080
 IR Inten    --      0.4456                 1.3284                77.2550

                     22                     23                     24
                      A                      A                      A
 Frequencies --   1047.9839              1053.0800              1087.4383
 Red. masses --      2.2882                 3.0108                 1.5488
 Frc consts  --      1.4807                 1.9673                 1.0791
 IR Inten    --     11.4830                14.5717                11.0266

                     25                     26                     27
                      A                      A                      A
 Frequencies --   1120.2481              1138.0332              1149.2044
 Red. masses --      2.4193                 1.9557                 1.0822
 Frc consts  --      1.7888                 1.4924                 0.8421
 IR Inten    --     31.2831                64.1212                 0.1300

                     28                     29                     30
                      A                      A                      A
 Frequencies --   1159.6768              1204.5542              1243.8953
 Red. masses --      1.3366                 2.8372                 1.7462
 Frc consts  --      1.0591                 2.4254                 1.5919
 IR Inten    --      1.1449                88.4395                 4.2303

                     31                     32                     33
                      A                      A                      A
 Frequencies --   1290.4280              1342.9537              1357.8672
 Red. masses --      1.2970                 1.7960                 1.3600
 Frc consts  --      1.2725                 1.9084                 1.4774
 IR Inten    --      1.0750                11.3833                 1.3944

                     34                     35                     36
                      A                      A                      A
 Frequencies --   1369.9262              1376.8370              1401.3009
 Red. masses --      1.6624                 1.7593                 1.2674
 Frc consts  --      1.8381                 1.9649                 1.4663
 IR Inten    --      0.5263                17.5656                 3.2164

                     37                     38                     39
                      A                      A                      A
 Frequencies --   1485.9607              1494.6868              1497.6764
 Red. masses --      1.0542                 1.0501                 1.0760
 Frc consts  --      1.3715                 1.3822                 1.4220
 IR Inten    --      2.7888                 1.8872                 0.5723

                     40                     41                     42
                      A                      A                      A
 Frequencies --   1526.0277              1687.4269              2966.0018
 Red. masses --      1.1142                 6.9907                 1.0824
 Frc consts  --      1.5288                11.7280                 5.6104
 IR Inten    --      1.8912                 0.8964                55.2060

                     43                     44                     45
                      A                      A                      A
 Frequencies --   3007.0439              3018.7081              3038.2405
 Red. masses --      1.0524                 1.0580                 1.0345
 Frc consts  --      5.6069                 5.6802                 5.6264
 IR Inten    --     98.7108                 6.4202                20.0389

                     46                     47                     48
                      A                      A                      A
 Frequencies --   3067.4755              3068.1226              3112.1750
 Red. masses --      1.1099                 1.1116                 1.1010
 Frc consts  --      6.1532                 6.1653                 6.2832
 IR Inten    --     19.4877                49.8210                21.4037

                     49                     50                     51
                      A                      A                      A
 Frequencies --   3122.9642              3205.6431              3229.9209
 Red. masses --      1.1031                 1.0855                 1.1069
 Frc consts  --      6.3385                 6.5720                 6.8038
 IR Inten    --     21.3358                 1.9611                 6.9319

 - Thermochemistry -
 -------------------
 Temperature   298.150 Kelvin.  Pressure   1.00000 Atm.
 Atom     1 has atomic number  6 and mass  12.00000

 Molecular mass:   126.06808 amu.
 Principal axes and moments of inertia in atomic units:
                           1         2         3
     Eigenvalues --   466.732531568.678041699.37919
           X            0.99989   0.01312   0.00732
           Y           -0.01339   0.99916   0.03868
           Z           -0.00680  -0.03877   0.99922
 This molecule is an asymmetric top.
 Rotational symmetry number  1.
 Warning -- assumption of classical behavior for rotation
           may cause significant error
 Rotational temperatures (Kelvin)      0.18557     0.05521     0.05097
 Rotational constants (GHZ):           3.86676     1.15049     1.06200
 Zero-point vibrational energy     416913.2 (Joules/Mol)
                                   99.64464 (Kcal/Mol)
 Warning -- explicit consideration of  10 degrees of freedom as
           vibrations may cause significant error
 Vibrational temperatures:     95.84   124.92   254.49   336.67   428.82
          (Kelvin)            432.16   542.11   619.69   703.24   813.07
                             1059.21  1121.54  1151.49  1217.54  1252.96
                             1293.44  1348.85  1356.72  1385.20  1440.16
                             1482.72  1507.81  1515.15  1564.58  1611.79
                             1637.37  1653.45  1668.51  1733.08  1789.69
                             1856.64  1932.21  1953.67  1971.02  1980.96
                             2016.16  2137.96  2150.52  2154.82  2195.61
                             2427.83  4267.41  4326.46  4343.24  4371.35
                             4413.41  4414.34  4477.72  4493.24  4612.20
                             4647.13

 Zero-point correction=                           0.158794 (Hartree/Particle)
 Thermal correction to Energy=                    0.167087
 Thermal correction to Enthalpy=                  0.168031
 Thermal correction to Gibbs Free Energy=         0.125489
 Sum of electronic and zero-point Energies=           -423.011973
 Sum of electronic and thermal Energies=              -423.003680
 Sum of electronic and thermal Enthalpies=            -423.002736
 Sum of electronic and thermal Free Energies=         -423.045278

                     E (Thermal)             CV                S
                      KCal/Mol        Cal/Mol-Kelvin    Cal/Mol-Kelvin
 Total                  104.849             31.343             89.538
 Electronic               0.000              0.000              0.000
 Translational            0.889              2.981             40.409
 Rotational               0.889              2.981             28.611
 Vibrational            103.071             25.381             20.519
 Vibration     1          0.598              1.970              4.251
 Vibration     2          0.601              1.958              3.730
 Vibration     3          0.628              1.871              2.361
 Vibration     4          0.654              1.789              1.848
 Vibration     5          0.691              1.677              1.428
 Vibration     6          0.693              1.673              1.415
 Vibration     7          0.747              1.520              1.052
 Vibration     8          0.792              1.403              0.856
 Vibration     9          0.845              1.275              0.687
 Vibration    10          0.921              1.107              0.514

 Optimization completed.
    -- Stationary point found.
 Normal termination of Gaussian 09 at Tue Jan 28 03:36:44 2020.
