 Gaussian 09, Revision D.01,
 Gaussian 09:  ES64L-G09RevD.01 24-Apr-2013

 -----------------------------
 # b3lyp 6-31G(2df,p) opt Freq
 -----------------------------

 -----
 titel
 -----
 Symbolic Z-matrix:
 Charge =  0 Multiplicity = 1

 SCF Done:  E(RB3LYP) =  -423.202162889     A.U. after   14 cycles
 Optimization completed.
    -- Stationary point found.
 Normal termination of Gaussian 09 at Tue Jan 28 03:59:40 2020.

 ----------------------------------------------------------------------
 #N Geom=AllCheck Guess=TCheck SCRF=Check GenChk RB3LYP/6-31G(2df,p) Fr
 eq
 ----------------------------------------------------------------------

 Structure from the checkpoint file:  "/scratch/puck/g09_07312c50-1711-453b-82bc-d3ff431334a8/Gau-92399.chk"
 -----
 titel
 -----
 Charge =  0 Multiplicity = 1

                         Standard orientation:
 ---------------------------------------------------------------------
 Center     Atomic      Atomic             Coordinates (Angstroms)
 Number     Number       Type             X           Y           Z
 ---------------------------------------------------------------------
      1          6           0        2.663649    0.003598    1.017310
      2          6           0        1.730300   -0.028905   -0.190305
      3          8           0        0.861505   -1.140539   -0.009608
      4          6           0       -0.237269   -1.152163   -0.900905
      5          6           0       -1.174886    0.038081   -0.638570
      6          6           0       -1.930009   -0.139415    0.674081
      7          8           0       -3.100031    0.097130    0.827770
      8          6           0       -0.346859    1.300674   -0.558704
      9          6           0        0.970051    1.260494   -0.366035
     10          1           0        3.177549   -0.955967    1.116241
     11          1           0        3.413332    0.791894    0.902044
     12          1           0        2.094514    0.191571    1.932030
     13          1           0        2.339536   -0.197197   -1.098740
     14          1           0        0.103577   -1.116529   -1.947658
     15          1           0       -0.746459   -2.108053   -0.743895
     16          1           0       -1.922617    0.124144   -1.434597
     17          1           0       -1.288515   -0.497145    1.509212
     18          1           0       -0.871473    2.246444   -0.655635
     19          1           0        1.558898    2.173921   -0.345518
 ---------------------------------------------------------------------

 SCF Done:  E(RB3LYP) =  -423.202162889     A.U. after    1 cycles

 The electronic state is 1-A.
 Alpha  occ. eigenvalues --  -19.15008 -19.13785 -10.26808 -10.24629 -10.24113
 Alpha  occ. eigenvalues --  -10.20243 -10.19864 -10.19485 -10.18378  -1.04750
 Alpha  occ. eigenvalues --   -1.04335  -0.82013  -0.79793  -0.71685  -0.66025
 Alpha  occ. eigenvalues --   -0.62587  -0.59286  -0.52572  -0.51699  -0.49537
 Alpha  occ. eigenvalues --   -0.46389  -0.45081  -0.44566  -0.42379  -0.40816
 Alpha  occ. eigenvalues --   -0.39949  -0.39147  -0.37287  -0.36573  -0.35518
 Alpha  occ. eigenvalues --   -0.31923  -0.27831  -0.26237  -0.23887
 Alpha virt. eigenvalues --   -0.02987   0.02165   0.08433   0.11018   0.12271
 Alpha virt. eigenvalues --    0.12791   0.13493   0.14165   0.15669   0.16075
 Alpha virt. eigenvalues --    0.17190   0.18043   0.18613   0.20033   0.22768

 Mulliken charges:
               1
     1  C   -0.397949
     2  C    0.094156
     3  O   -0.262409
     4  C   -0.116693
     5  C   -0.124282
     6  C    0.157278
     7  O   -0.252528
     8  C   -0.112360
     9  C   -0.055368
    10  H    0.129259
    11  H    0.117073
    12  H    0.128575
    13  H    0.080658
    14  H    0.101370
    15  H    0.115832
    16  H    0.097301
    17  H    0.091090
    18  H    0.108784
    19  H    0.100214
 Sum of Mulliken charges =   0.00000

 Dipole moment (field-independent basis, Debye):
    X=              2.6462    Y=              0.5095    Z=             -1.4406  Tot=              3.0557
 Quadrupole moment (field-independent basis, Debye-Ang):
   XX=            -61.0973   YY=            -52.0275   ZZ=            -53.0492
   XY=              2.8301   XZ=              3.5528   YZ=              0.5686

  Exact polarizability: 103.482   1.360  69.408   2.214  -0.724  64.810
 Approx polarizability: 153.302   0.285 101.219   0.894  -2.495  95.962

                      1                      2                      3
                      A                      A                      A
 Frequencies --     65.7943                80.6320               188.7990
 Red. masses --      4.4414                 4.0104                 4.3400
 Frc consts  --      0.0113                 0.0154                 0.0911
 IR Inten    --      1.3045                 4.9543                 3.7460

                      4                      5                      6
                      A                      A                      A
 Frequencies --    211.1973               250.0861               310.1529
 Red. masses --      1.5775                 1.3936                 2.3570
 Frc consts  --      0.0415                 0.0514                 0.1336
 IR Inten    --      1.7279                 1.4595                 2.7886

                      7                      8                      9
                      A                      A                      A
 Frequencies --    333.7120               378.3779               437.8765
 Red. masses --      2.0735                 3.7082                 3.5624
 Frc consts  --      0.1360                 0.3128                 0.4024
 IR Inten    --      0.8540                 1.2206                 7.0235

                     10                     11                     12
                      A                      A                      A
 Frequencies --    503.0450               559.7742               621.2934
 Red. masses --      4.9840                 3.4421                 3.6193
 Frc consts  --      0.7431                 0.6355                 0.8231
 IR Inten    --      4.0396                 3.1350                 6.0867

                     13                     14                     15
                      A                      A                      A
 Frequencies --    732.7366               809.9927               823.4918
 Red. masses --      1.7670                 1.9468                 2.8696
 Frc consts  --      0.5590                 0.7525                 1.1466
 IR Inten    --     31.0848                13.1287                14.5319

                     16                     17                     18
                      A                      A                      A
 Frequencies --    888.0852               914.1710               964.2565
 Red. masses --      2.4003                 2.6949                 2.4451
 Frc consts  --      1.1154                 1.3269                 1.3395
 IR Inten    --      0.2592                 4.3271                21.4639

                     19                     20                     21
                      A                      A                      A
 Frequencies --    969.8112              1001.6742              1049.5773
 Red. masses --      1.7792                 1.2324                 2.1334
 Frc consts  --      0.9860                 0.7286                 1.3847
 IR Inten    --      5.0079                 0.5613                17.0387

                     22                     23                     24
                      A                      A                      A
 Frequencies --   1075.9466              1108.3026              1114.6858
 Red. masses --      1.9244                 2.8214                 2.3573
 Frc consts  --      1.3126                 2.0419                 1.7258
 IR Inten    --      3.4407                31.5295                32.0757

                     25                     26                     27
                      A                      A                      A
 Frequencies --   1127.1853              1164.2477              1214.0753
 Red. masses --      1.8726                 1.9021                 1.3123
 Frc consts  --      1.4018                 1.5190                 1.1396
 IR Inten    --     39.4785                16.9000                27.4575

                     28                     29                     30
                      A                      A                      A
 Frequencies --   1251.9168              1302.4667              1313.9268
 Red. masses --      1.3926                 1.5236                 1.4111
 Frc consts  --      1.2860                 1.5229                 1.4353
 IR Inten    --      5.3932                14.1352                 3.6993

                     31                     32                     33
                      A                      A                      A
 Frequencies --   1333.3050              1358.6694              1392.0529
 Red. masses --      1.3513                 1.2418                 1.4788
 Frc consts  --      1.4154                 1.3506                 1.6884
 IR Inten    --     10.8766                 4.9633                 8.5030

                     34                     35                     36
                      A                      A                      A
 Frequencies --   1404.6021              1411.4756              1422.4192
 Red. masses --      1.2748                 1.2604                 1.3345
 Frc consts  --      1.4818                 1.4795                 1.5908
 IR Inten    --      6.4787                 3.0798                 6.2729

                     37                     38                     39
                      A                      A                      A
 Frequencies --   1484.5828              1495.1523              1500.4025
 Red. masses --      1.0532                 1.0683                 1.0732
 Frc consts  --      1.3676                 1.4071                 1.4234
 IR Inten    --      3.3877                 1.5943                 2.7015

                     40                     41                     42
                      A                      A                      A
 Frequencies --   1709.7011              1827.8453              2896.3127
 Red. masses --      7.0921                10.1470                 1.0835
 Frc consts  --     12.2141                19.9741                 5.3551
 IR Inten    --      4.2640               232.7327                61.9870

                     43                     44                     45
                      A                      A                      A
 Frequencies --   2920.4683              2982.6047              3045.6065
 Red. masses --      1.0801                 1.0690                 1.0342
 Frc consts  --      5.4278                 5.6030                 5.6521
 IR Inten    --     51.9477                51.4195                17.4457

                     46                     47                     48
                      A                      A                      A
 Frequencies --   3056.9327              3079.9780              3121.9242
 Red. masses --      1.0841                 1.0949                 1.1019
 Frc consts  --      5.9691                 6.1195                 6.3277
 IR Inten    --     18.3427                28.1088                17.6578

                     49                     50                     51
                      A                      A                      A
 Frequencies --   3127.7087              3157.6646              3181.2626
 Red. masses --      1.1028                 1.0842                 1.0976
 Frc consts  --      6.3562                 6.3695                 6.5446
 IR Inten    --     18.2708                 4.2017                17.8078

 - Thermochemistry -
 -------------------
 Temperature   298.150 Kelvin.  Pressure   1.00000 Atm.
 Atom     1 has atomic number  6 and mass  12.00000

 Molecular mass:   126.06808 amu.
 Principal axes and moments of inertia in atomic units:
                           1         2         3
     Eigenvalues --   568.944841669.455021771.80407
           X            0.99959   0.00850   0.02749
           Y           -0.00936   0.99947   0.03119
           Z           -0.02721  -0.03143   0.99914
 This molecule is an asymmetric top.
 Rotational symmetry number  1.
 Warning -- assumption of classical behavior for rotation
           may cause significant error
 Rotational temperatures (Kelvin)      0.15224     0.05188     0.04888
 Rotational constants (GHZ):           3.17208     1.08104     1.01859
 Zero-point vibrational energy     416766.8 (Joules/Mol)
                                   99.60965 (Kcal/Mol)
 Warning -- explicit consideration of  11 degrees of freedom as
           vibrations may cause significant error
 Vibrational temperatures:     94.66   116.01   271.64   303.87   359.82
          (Kelvin)            446.24   480.14   544.40   630.01   723.77
                              805.39   893.90  1054.24  1165.40  1184.82
                             1277.75  1315.29  1387.35  1395.34  1441.18
                             1510.11  1548.05  1594.60  1603.78  1621.77
                             1675.09  1746.78  1801.23  1873.96  1890.45
                             1918.33  1954.82  2002.85  2020.91  2030.80
                             2046.54  2135.98  2151.19  2158.74  2459.88
                             2629.86  4167.14  4201.90  4291.30  4381.94
                             4398.24  4431.40  4491.75  4500.07  4543.17
                             4577.12

 Zero-point correction=                           0.158738 (Hartree/Particle)
 Thermal correction to Energy=                    0.167440
 Thermal correction to Enthalpy=                  0.168384
 Thermal correction to Gibbs Free Energy=         0.124938
 Sum of electronic and zero-point Energies=           -423.043425
 Sum of electronic and thermal Energies=              -423.034723
 Sum of electronic and thermal Enthalpies=            -423.033779
 Sum of electronic and thermal Free Energies=         -423.077225

                     E (Thermal)             CV                S
                      KCal/Mol        Cal/Mol-Kelvin    Cal/Mol-Kelvin
 Total                  105.070             32.338             91.440
 Electronic               0.000              0.000              0.000
 Translational            0.889              2.981             40.409
 Rotational               0.889              2.981             28.911
 Vibrational            103.293             26.376             22.120
 Vibration     1          0.597              1.971              4.275
 Vibration     2          0.600              1.962              3.875
 Vibration     3          0.633              1.855              2.240
 Vibration     4          0.643              1.824              2.033
 Vibration     5          0.663              1.763              1.730
 Vibration     6          0.699              1.654              1.362
 Vibration     7          0.715              1.608              1.242
 Vibration     8          0.749              1.516              1.046
 Vibration     9          0.798              1.388              0.833
 Vibration    10          0.858              1.243              0.651
 Vibration    11          0.915              1.118              0.524

 Normal termination of Gaussian 09 at Tue Jan 28 04:48:15 2020.
