 Gaussian 09, Revision D.01,
 Gaussian 09:  ES64L-G09RevD.01 24-Apr-2013

 -----------------------------
 # b3lyp 6-31G(2df,p) opt Freq
 -----------------------------

 -----
 titel
 -----
 Symbolic Z-matrix:
 Charge =  0 Multiplicity = 1

 SCF Done:  E(RB3LYP) =  -423.225803151     A.U. after   14 cycles
 Optimization completed.
    -- Stationary point found.
 Normal termination of Gaussian 09 at Tue Jan 28 08:55:30 2020.

 ----------------------------------------------------------------------
 #N Geom=AllCheck Guess=TCheck SCRF=Check GenChk RB3LYP/6-31G(2df,p) Fr
 eq
 ----------------------------------------------------------------------

 Structure from the checkpoint file:  "/scratch/puck/g09_1b845646-273e-4728-84e3-ef2fad2b9920/Gau-103846.chk"
 -----
 titel
 -----
 Charge =  0 Multiplicity = 1

                         Standard orientation:
 ---------------------------------------------------------------------
 Center     Atomic      Atomic             Coordinates (Angstroms)
 Number     Number       Type             X           Y           Z
 ---------------------------------------------------------------------
      1          6           0        0.625386   -0.877817    1.541552
      2          6           0        0.137526   -0.500035    0.132354
      3          6           0        1.296217   -0.600752   -0.888180
      4          8           0        2.410026    0.180378   -0.529082
      5          6           0       -1.101177   -1.319423   -0.300873
      6          6           0       -2.225764   -0.318607   -0.358918
      7          6           0       -1.828555    0.935521   -0.107758
      8          6           0       -0.375765    0.953878    0.140041
      9          8           0        0.331092    1.933800    0.292627
     10          1           0       -0.179239   -0.782895    2.278061
     11          1           0        0.979229   -1.914266    1.553331
     12          1           0        1.452311   -0.231541    1.840583
     13          1           0        1.638704   -1.641507   -0.943603
     14          1           0        0.913307   -0.330121   -1.888239
     15          1           0        2.068717    1.060026   -0.305778
     16          1           0       -0.963168   -1.792215   -1.283202
     17          1           0       -1.327403   -2.134411    0.396701
     18          1           0       -3.242416   -0.614171   -0.597263
     19          1           0       -2.436193    1.831076   -0.108269
 ---------------------------------------------------------------------

 SCF Done:  E(RB3LYP) =  -423.225803151     A.U. after    1 cycles

 The electronic state is 1-A.
 Alpha  occ. eigenvalues --  -19.13574 -19.12122 -10.26921 -10.22863 -10.22497
 Alpha  occ. eigenvalues --  -10.20623 -10.20357 -10.20120 -10.18142  -1.04458
 Alpha  occ. eigenvalues --   -1.00563  -0.86659  -0.77561  -0.70553  -0.68184
 Alpha  occ. eigenvalues --   -0.64026  -0.57640  -0.52948  -0.49684  -0.49266
 Alpha  occ. eigenvalues --   -0.45629  -0.44586  -0.42390  -0.42298  -0.41881
 Alpha  occ. eigenvalues --   -0.38837  -0.38560  -0.37523  -0.36616  -0.35154
 Alpha  occ. eigenvalues --   -0.31748  -0.28389  -0.25899  -0.24596
 Alpha virt. eigenvalues --   -0.05630   0.04949   0.08909   0.10743   0.12377
 Alpha virt. eigenvalues --    0.13419   0.14005   0.14473   0.15388   0.16199
 Alpha virt. eigenvalues --    0.17866   0.18696   0.19202   0.20718   0.21866

 Mulliken charges:
               1
     1  C   -0.422013
     2  C    0.135865
     3  C   -0.080757
     4  O   -0.428360
     5  C   -0.334297
     6  C   -0.046116
     7  C   -0.169563
     8  C    0.378468
     9  O   -0.375558
    10  H    0.113527
    11  H    0.116203
    12  H    0.144671
    13  H    0.102313
    14  H    0.081553
    15  H    0.297284
    16  H    0.123451
    17  H    0.121735
    18  H    0.120562
    19  H    0.121031
 Sum of Mulliken charges =   0.00000

 Dipole moment (field-independent basis, Debye):
    X=             -3.5873    Y=             -2.2607    Z=             -0.2901  Tot=              4.2502
 Quadrupole moment (field-independent basis, Debye-Ang):
   XX=            -55.0707   YY=            -54.5780   ZZ=            -53.0572
   XY=             -0.3932   XZ=              1.7767   YZ=             -0.3699

  Exact polarizability:  86.162   3.864  83.863   4.086   3.113  61.191
 Approx polarizability: 125.219  19.170 144.040   7.578  10.286  90.871

                      1                      2                      3
                      A                      A                      A
 Frequencies --     69.0446               172.7342               197.3644
 Red. masses --      3.9122                 3.2828                 3.4819
 Frc consts  --      0.0110                 0.0577                 0.0799
 IR Inten    --      0.3771                 7.4738                 0.2319

                      4                      5                      6
                      A                      A                      A
 Frequencies --    230.3042               259.8868               301.0305
 Red. masses --      1.0916                 3.9483                 3.0412
 Frc consts  --      0.0341                 0.1571                 0.1624
 IR Inten    --      2.1052                 3.0767                 2.9304

                      7                      8                      9
                      A                      A                      A
 Frequencies --    305.8454               379.1328               414.8699
 Red. masses --      2.4172                 1.9312                 5.1585
 Frc consts  --      0.1332                 0.1636                 0.5231
 IR Inten    --      0.8813                 0.1005                 2.5638

                     10                     11                     12
                      A                      A                      A
 Frequencies --    504.8893               571.9637               652.2057
 Red. masses --      3.5119                 1.1317                 4.3400
 Frc consts  --      0.5275                 0.2181                 1.0877
 IR Inten    --      7.0448               114.3099                13.5583

                     13                     14                     15
                      A                      A                      A
 Frequencies --    687.5330               701.6543               762.6775
 Red. masses --      2.1871                 2.6880                 4.8250
 Frc consts  --      0.6091                 0.7797                 1.6536
 IR Inten    --      1.7547                 9.8769                 8.0123

                     16                     17                     18
                      A                      A                      A
 Frequencies --    843.0239               889.7440               918.8938
 Red. masses --      2.3729                 2.2853                 1.8087
 Frc consts  --      0.9936                 1.0659                 0.8998
 IR Inten    --     19.2422                 0.2285                 3.6681

                     19                     20                     21
                      A                      A                      A
 Frequencies --    946.2410               969.4937              1000.0172
 Red. masses --      2.2784                 1.6013                 1.5078
 Frc consts  --      1.2019                 0.8868                 0.8884
 IR Inten    --     12.1026                 2.1507                 6.1440

                     22                     23                     24
                      A                      A                      A
 Frequencies --   1005.9656              1090.4779              1100.7794
 Red. masses --      1.3783                 2.7365                 1.6812
 Frc consts  --      0.8218                 1.9172                 1.2002
 IR Inten    --      1.5745               105.1411                20.1363

                     25                     26                     27
                      A                      A                      A
 Frequencies --   1122.4439              1138.5955              1189.5295
 Red. masses --      1.8213                 1.6517                 2.6154
 Frc consts  --      1.3520                 1.2616                 2.1804
 IR Inten    --      5.1002                17.6964                 0.7312

                     28                     29                     30
                      A                      A                      A
 Frequencies --   1202.8465              1242.9536              1274.8569
 Red. masses --      1.8861                 1.7303                 1.5108
 Frc consts  --      1.6078                 1.5750                 1.4467
 IR Inten    --     17.1230                 5.8612                24.2372

                     31                     32                     33
                      A                      A                      A
 Frequencies --   1337.2544              1364.7156              1381.5432
 Red. masses --      1.9290                 1.7577                 1.2664
 Frc consts  --      2.0324                 1.9287                 1.4241
 IR Inten    --      9.4039                22.3081                 0.4733

                     34                     35                     36
                      A                      A                      A
 Frequencies --   1405.3202              1464.6841              1470.5153
 Red. masses --      1.2288                 1.1510                 1.1432
 Frc consts  --      1.4298                 1.4548                 1.4565
 IR Inten    --     10.6725                47.3438                67.6153

                     37                     38                     39
                      A                      A                      A
 Frequencies --   1489.9920              1496.3013              1510.4590
 Red. masses --      1.0529                 1.0552                 1.0856
 Frc consts  --      1.3772                 1.3920                 1.4593
 IR Inten    --      4.4273                12.0688                 0.2442

                     40                     41                     42
                      A                      A                      A
 Frequencies --   1646.2331              1774.2923              2944.4889
 Red. masses --      5.9437                11.5239                 1.0706
 Frc consts  --      9.4905                21.3748                 5.4688
 IR Inten    --     21.8573               229.6200                64.3444

                     43                     44                     45
                      A                      A                      A
 Frequencies --   3017.9261              3035.1727              3045.1322
 Red. masses --      1.0649                 1.0380                 1.0904
 Frc consts  --      5.7142                 5.6338                 5.9571
 IR Inten    --     15.6684                15.5158                39.1550

                     46                     47                     48
                      A                      A                      A
 Frequencies --   3055.6719              3099.4829              3139.9488
 Red. masses --      1.0957                 1.1021                 1.0989
 Frc consts  --      6.0279                 6.2380                 6.3836
 IR Inten    --     13.9724                21.8380                 7.2464

                     49                     50                     51
                      A                      A                      A
 Frequencies --   3188.4442              3228.5186              3699.6492
 Red. masses --      1.0892                 1.1018                 1.0658
 Frc consts  --      6.5242                 6.7662                 8.5953
 IR Inten    --      8.1144                 5.5831                79.5922

 - Thermochemistry -
 -------------------
 Temperature   298.150 Kelvin.  Pressure   1.00000 Atm.
 Atom     1 has atomic number  6 and mass  12.00000

 Molecular mass:   126.06808 amu.
 Principal axes and moments of inertia in atomic units:
                           1         2         3
     Eigenvalues --   731.597231180.849871449.55225
           X            0.99989  -0.00515   0.01379
           Y            0.00547   0.99971  -0.02333
           Z           -0.01367   0.02341   0.99963
 This molecule is an asymmetric top.
 Rotational symmetry number  1.
 Warning -- assumption of classical behavior for rotation
           may cause significant error
 Rotational temperatures (Kelvin)      0.11839     0.07335     0.05975
 Rotational constants (GHZ):           2.46685     1.52834     1.24503
 Zero-point vibrational energy     418350.5 (Joules/Mol)
                                   99.98817 (Kcal/Mol)
 Warning -- explicit consideration of  11 degrees of freedom as
           vibrations may cause significant error
 Vibrational temperatures:     99.34   248.53   283.96   331.36   373.92
          (Kelvin)            433.12   440.04   545.49   596.90   726.42
                              822.93   938.38   989.21  1009.52  1097.32
                             1212.92  1280.14  1322.08  1361.43  1394.88
                             1438.80  1447.36  1568.95  1583.77  1614.94
                             1638.18  1711.47  1730.63  1788.33  1834.23
                             1924.01  1963.52  1987.73  2021.94  2107.35
                             2115.74  2143.76  2152.84  2173.21  2368.56
                             2552.81  4236.46  4342.12  4366.93  4381.26
                             4396.42  4459.46  4517.68  4587.45  4645.11
                             5322.96

 Zero-point correction=                           0.159341 (Hartree/Particle)
 Thermal correction to Energy=                    0.167985
 Thermal correction to Enthalpy=                  0.168930
 Thermal correction to Gibbs Free Energy=         0.126247
 Sum of electronic and zero-point Energies=           -423.066462
 Sum of electronic and thermal Energies=              -423.057818
 Sum of electronic and thermal Enthalpies=            -423.056873
 Sum of electronic and thermal Free Energies=         -423.099556

                     E (Thermal)             CV                S
                      KCal/Mol        Cal/Mol-Kelvin    Cal/Mol-Kelvin
 Total                  105.412             33.062             89.833
 Electronic               0.000              0.000              0.000
 Translational            0.889              2.981             40.409
 Rotational               0.889              2.981             28.617
 Vibrational            103.635             27.101             20.807
 Vibration     1          0.598              1.969              4.180
 Vibration     2          0.626              1.876              2.406
 Vibration     3          0.637              1.844              2.158
 Vibration     4          0.652              1.795              1.877
 Vibration     5          0.668              1.746              1.663
 Vibration     6          0.693              1.672              1.411
 Vibration     7          0.696              1.663              1.385
 Vibration     8          0.749              1.515              1.043
 Vibration     9          0.778              1.438              0.910
 Vibration    10          0.860              1.239              0.646
 Vibration    11          0.928              1.092              0.500

 Optimization completed.
    -- Stationary point found.
 Normal termination of Gaussian 09 at Tue Jan 28 09:39:39 2020.
