 Gaussian 09, Revision D.01,
 Gaussian 09:  ES64L-G09RevD.01 24-Apr-2013

 -----------------------------
 # b3lyp 6-31G(2df,p) opt Freq
 -----------------------------

 -----
 titel
 -----
 Symbolic Z-matrix:
 Charge =  0 Multiplicity = 1

 SCF Done:  E(RB3LYP) =  -423.147758900     A.U. after   14 cycles
 Optimization completed.
    -- Stationary point found.
 Normal termination of Gaussian 09 at Tue Jan 28 12:38:17 2020.

 ----------------------------------------------------------------------
 #N Geom=AllCheck Guess=TCheck SCRF=Check GenChk RB3LYP/6-31G(2df,p) Fr
 eq
 ----------------------------------------------------------------------

 Structure from the checkpoint file:  "/scratch/puck/g09_3e460589-97f3-4bd9-9bfb-5ce9d9a4f32b/Gau-1451.chk"
 -----
 titel
 -----
 Charge =  0 Multiplicity = 1

                         Standard orientation:
 ---------------------------------------------------------------------
 Center     Atomic      Atomic             Coordinates (Angstroms)
 Number     Number       Type             X           Y           Z
 ---------------------------------------------------------------------
      1          6           0       -2.813716   -0.627305   -0.223230
      2          6           0       -1.347556   -0.941092    0.021825
      3          6           0       -0.513849   -0.107361    1.064917
      4          6           0        0.758298   -0.641018    0.314414
      5          6           0        2.090143    0.078221    0.453819
      6          8           0        3.054869   -0.404860   -0.469649
      7          6           0       -0.228060   -0.268947   -0.856130
      8          6           0       -0.528144    0.986218   -0.018486
      9          8           0       -0.694147    2.159692   -0.143810
     10          1           0       -3.169358   -1.129753   -1.128977
     11          1           0       -3.428104   -0.979232    0.612202
     12          1           0       -2.991054    0.445971   -0.342465
     13          1           0       -1.177150   -2.015702    0.137763
     14          1           0       -0.673300   -0.028737    2.138788
     15          1           0        0.890368   -1.722348    0.416160
     16          1           0        1.958260    1.167416    0.367042
     17          1           0        2.508745   -0.118834    1.446927
     18          1           0        2.767072   -0.154707   -1.353475
     19          1           0       -0.073958   -0.375026   -1.929067
 ---------------------------------------------------------------------

 SCF Done:  E(RB3LYP) =  -423.147758900     A.U. after    1 cycles

 The electronic state is 1-A.
 Alpha  occ. eigenvalues --  -19.14013 -19.13918 -10.27752 -10.23283 -10.21985
 Alpha  occ. eigenvalues --  -10.21402 -10.21317 -10.21288 -10.18602  -1.05242
 Alpha  occ. eigenvalues --   -1.02099  -0.92776  -0.75717  -0.71048  -0.65412
 Alpha  occ. eigenvalues --   -0.62701  -0.60008  -0.52019  -0.51269  -0.48261
 Alpha  occ. eigenvalues --   -0.46848  -0.44569  -0.43495  -0.42932  -0.41652
 Alpha  occ. eigenvalues --   -0.38811  -0.37081  -0.35448  -0.34751  -0.33575
 Alpha  occ. eigenvalues --   -0.32404  -0.32062  -0.27160  -0.24577
 Alpha virt. eigenvalues --    0.00858   0.06508   0.09857   0.11232   0.11907
 Alpha virt. eigenvalues --    0.12683   0.13144   0.13947   0.14548   0.16217
 Alpha virt. eigenvalues --    0.16772   0.17205   0.17535   0.18689   0.20170

 Mulliken charges:
               1
     1  C   -0.444718
     2  C    0.029850
     3  C   -0.195742
     4  C   -0.000285
     5  C   -0.125165
     6  O   -0.414169
     7  C   -0.195429
     8  C    0.434140
     9  O   -0.335834
    10  H    0.124234
    11  H    0.124715
    12  H    0.139185
    13  H    0.083396
    14  H    0.091098
    15  H    0.088136
    16  H    0.109213
    17  H    0.115425
    18  H    0.285738
    19  H    0.086213
 Sum of Mulliken charges =   0.00000

 Dipole moment (field-independent basis, Debye):
    X=             -1.0390    Y=             -2.2485    Z=             -0.1322  Tot=              2.4805
 Quadrupole moment (field-independent basis, Debye-Ang):
   XX=            -58.2275   YY=            -60.1064   ZZ=            -48.8107
   XY=              4.9059   XZ=             -1.1017   YZ=              0.1814

  Exact polarizability:  85.646   0.724  73.335   0.642  -0.172  69.668
 Approx polarizability: 109.550  -3.449 121.505  -0.505  -1.645 109.691

                      1                      2                      3
                      A                      A                      A
 Frequencies --     81.7024               135.8384               150.3558
 Red. masses --      3.8872                 4.9480                 4.3128
 Frc consts  --      0.0153                 0.0538                 0.0574
 IR Inten    --      4.2172                 1.2425                 1.4235

                      4                      5                      6
                      A                      A                      A
 Frequencies --    210.5723               213.8928               284.0727
 Red. masses --      1.8914                 1.1286                 1.6142
 Frc consts  --      0.0494                 0.0304                 0.0767
 IR Inten    --      4.1251                 0.9216                36.9496

                      7                      8                      9
                      A                      A                      A
 Frequencies --    316.9593               417.5926               423.2455
 Red. masses --      1.7679                 4.1427                 2.9132
 Frc consts  --      0.1046                 0.4256                 0.3075
 IR Inten    --     70.7505                 4.6157                 0.0954

                     10                     11                     12
                      A                      A                      A
 Frequencies --    453.4780               539.5697               677.3975
 Red. masses --      3.7232                 3.7574                 4.3228
 Frc consts  --      0.4511                 0.6445                 1.1687
 IR Inten    --      0.5963                 2.9900                 2.4895

                     13                     14                     15
                      A                      A                      A
 Frequencies --    738.5315               761.7681               789.8476
 Red. masses --      3.5939                 3.0557                 2.2579
 Frc consts  --      1.1549                 1.0447                 0.8299
 IR Inten    --      0.9833                 3.3065                 2.4166

                     16                     17                     18
                      A                      A                      A
 Frequencies --    833.3958               870.6533               950.0184
 Red. masses --      3.4552                 3.1377                 1.5320
 Frc consts  --      1.4139                 1.4014                 0.8146
 IR Inten    --     11.1981                11.3644                13.9206

                     19                     20                     21
                      A                      A                      A
 Frequencies --   1002.9648              1021.0605              1039.9229
 Red. masses --      1.7174                 1.2943                 1.7606
 Frc consts  --      1.0179                 0.7951                 1.1218
 IR Inten    --     39.8898                 0.2726                 2.0244

                     22                     23                     24
                      A                      A                      A
 Frequencies --   1045.2690              1073.7110              1087.3100
 Red. masses --      1.2807                 4.1924                 1.7738
 Frc consts  --      0.8244                 2.8476                 1.2356
 IR Inten    --      1.5807                62.3984                 9.8558

                     25                     26                     27
                      A                      A                      A
 Frequencies --   1095.0769              1105.6041              1151.1945
 Red. masses --      2.1463                 3.9540                 1.4118
 Frc consts  --      1.5164                 2.8476                 1.1023
 IR Inten    --      9.3619                 0.2601                 4.4745

                     28                     29                     30
                      A                      A                      A
 Frequencies --   1166.4243              1213.1817              1225.7432
 Red. masses --      2.0265                 1.7276                 1.5988
 Frc consts  --      1.6245                 1.4981                 1.4153
 IR Inten    --      9.7002                 4.2464                 2.8963

                     31                     32                     33
                      A                      A                      A
 Frequencies --   1229.3295              1257.3146              1351.1614
 Red. masses --      1.6859                 1.7124                 1.2953
 Frc consts  --      1.5011                 1.5949                 1.3933
 IR Inten    --     10.4485                 1.9232                 5.9291

                     34                     35                     36
                      A                      A                      A
 Frequencies --   1390.3875              1407.9571              1421.1434
 Red. masses --      1.2644                 1.1872                 1.2609
 Frc consts  --      1.4401                 1.3866                 1.5004
 IR Inten    --     11.5885                33.6136                 2.2714

                     37                     38                     39
                      A                      A                      A
 Frequencies --   1436.6817              1494.6274              1500.8371
 Red. masses --      1.4157                 1.0456                 1.0477
 Frc consts  --      1.7217                 1.3762                 1.3904
 IR Inten    --     23.5992                 3.7068                 5.9564

                     40                     41                     42
                      A                      A                      A
 Frequencies --   1502.2805              1911.1245              2994.9916
 Red. masses --      1.0840                12.0903                 1.0676
 Frc consts  --      1.4414                26.0175                 5.6423
 IR Inten    --      1.6573               328.6605                30.9335

                     43                     44                     45
                      A                      A                      A
 Frequencies --   3034.6809              3061.4989              3064.4407
 Red. masses --      1.0358                 1.0857                 1.0873
 Frc consts  --      5.6201                 5.9956                 6.0160
 IR Inten    --     21.9950                 9.1969                18.1670

                     46                     47                     48
                      A                      A                      A
 Frequencies --   3076.9021              3099.0014              3111.5382
 Red. masses --      1.0915                 1.1010                 1.1012
 Frc consts  --      6.0883                 6.2297                 6.2817
 IR Inten    --     39.6670                17.1814                21.0015

                     49                     50                     51
                      A                      A                      A
 Frequencies --   3130.1475              3140.5008              3817.0608
 Red. masses --      1.0923                 1.0939                 1.0662
 Frc consts  --      6.3056                 6.3565                 9.1528
 IR Inten    --     33.7350                14.3994                14.7570

 - Thermochemistry -
 -------------------
 Temperature   298.150 Kelvin.  Pressure   1.00000 Atm.
 Atom     1 has atomic number  6 and mass  12.00000

 Molecular mass:   126.06808 amu.
 Principal axes and moments of inertia in atomic units:
                           1         2         3
     Eigenvalues --   592.309401560.203961831.57039
           X            0.99954   0.02984   0.00594
           Y           -0.02989   0.99951   0.00899
           Z           -0.00567  -0.00916   0.99994
 This molecule is an asymmetric top.
 Rotational symmetry number  1.
 Warning -- assumption of classical behavior for rotation
           may cause significant error
 Rotational temperatures (Kelvin)      0.14623     0.05551     0.04729
 Rotational constants (GHZ):           3.04696     1.15673     0.98535
 Zero-point vibrational energy     415761.9 (Joules/Mol)
                                   99.36948 (Kcal/Mol)
 Warning -- explicit consideration of  11 degrees of freedom as
           vibrations may cause significant error
 Vibrational temperatures:    117.55   195.44   216.33   302.97   307.74
          (Kelvin)            408.72   456.03   600.82   608.96   652.45
                              776.32   974.62  1062.58  1096.01  1136.41
                             1199.07  1252.67  1366.86  1443.04  1469.08
                             1496.22  1503.91  1544.83  1564.39  1575.57
                             1590.72  1656.31  1678.22  1745.50  1763.57
                             1768.73  1808.99  1944.02  2000.46  2025.73
                             2044.71  2067.06  2150.43  2159.37  2161.44
                             2749.68  4309.12  4366.22  4404.81  4409.04
                             4426.97  4458.77  4476.80  4503.58  4518.47
                             5491.89

 Zero-point correction=                           0.158355 (Hartree/Particle)
 Thermal correction to Energy=                    0.167184
 Thermal correction to Enthalpy=                  0.168128
 Thermal correction to Gibbs Free Energy=         0.124799
 Sum of electronic and zero-point Energies=           -422.989404
 Sum of electronic and thermal Energies=              -422.980575
 Sum of electronic and thermal Enthalpies=            -422.979631
 Sum of electronic and thermal Free Energies=         -423.022960

                     E (Thermal)             CV                S
                      KCal/Mol        Cal/Mol-Kelvin    Cal/Mol-Kelvin
 Total                  104.910             33.216             91.194
 Electronic               0.000              0.000              0.000
 Translational            0.889              2.981             40.409
 Rotational               0.889              2.981             28.917
 Vibrational            103.132             27.255             21.869
 Vibration     1          0.600              1.962              3.850
 Vibration     2          0.614              1.918              2.862
 Vibration     3          0.618              1.902              2.668
 Vibration     4          0.643              1.825              2.039
 Vibration     5          0.644              1.820              2.010
 Vibration     6          0.682              1.703              1.509
 Vibration     7          0.704              1.641              1.326
 Vibration     8          0.781              1.432              0.900
 Vibration     9          0.785              1.420              0.881
 Vibration    10          0.812              1.353              0.785
 Vibration    11          0.895              1.163              0.566

 Normal termination of Gaussian 09 at Tue Jan 28 13:27:21 2020.
