 Gaussian 09, Revision D.01,
 Gaussian 09:  ES64L-G09RevD.01 24-Apr-2013

 -----------------------------
 # b3lyp 6-31G(2df,p) opt Freq
 -----------------------------

 -----
 titel
 -----
 Symbolic Z-matrix:
 Charge =  0 Multiplicity = 1

 SCF Done:  E(RB3LYP) =  -423.122891037     A.U. after   14 cycles
 Optimization completed.
    -- Stationary point found.
 Normal termination of Gaussian 09 at Tue Jan 28 08:11:26 2020.

 ----------------------------------------------------------------------
 #N Geom=AllCheck Guess=TCheck SCRF=Check GenChk RB3LYP/6-31G(2df,p) Fr
 eq
 ----------------------------------------------------------------------

 Structure from the checkpoint file:  "/scratch/puck/g09_785d7fa1-cbca-4db6-8b66-a55b2cd982a7/Gau-8200.chk"
 -----
 titel
 -----
 Charge =  0 Multiplicity = 1

                         Standard orientation:
 ---------------------------------------------------------------------
 Center     Atomic      Atomic             Coordinates (Angstroms)
 Number     Number       Type             X           Y           Z
 ---------------------------------------------------------------------
      1          6           0        2.449102   -0.989599   -0.186446
      2          6           0        1.290294   -0.216017    0.429016
      3          8           0        1.276347    1.065101   -0.192470
      4          6           0        0.084194    1.796620    0.028991
      5          6           0       -1.150605    0.918687   -0.118638
      6          6           0       -1.324972   -0.275823    0.853375
      7          8           0       -2.147868   -0.965811   -0.159813
      8          6           0       -0.991405   -0.417597   -0.899287
      9          6           0       -0.054706   -0.917396    0.239946
     10          1           0        2.578292   -1.952685    0.316235
     11          1           0        2.266740   -1.171611   -1.250068
     12          1           0        3.375898   -0.418186   -0.089737
     13          1           0        1.474696   -0.095928    1.512688
     14          1           0        0.090629    2.272725    1.025377
     15          1           0        0.081033    2.598261   -0.716529
     16          1           0       -2.071987    1.467079   -0.323830
     17          1           0       -1.677076   -0.285672    1.886091
     18          1           0       -0.947152   -0.598583   -1.973133
     19          1           0       -0.010319   -2.002982    0.349439
 ---------------------------------------------------------------------

 SCF Done:  E(RB3LYP) =  -423.122891037     A.U. after    1 cycles

 The electronic state is 1-A.
 Alpha  occ. eigenvalues --  -19.14088 -19.13124 -10.24816 -10.24540 -10.23720
 Alpha  occ. eigenvalues --  -10.23220 -10.19822 -10.19640 -10.17782  -1.05986
 Alpha  occ. eigenvalues --   -1.03335  -0.80316  -0.78356  -0.69773  -0.65390
 Alpha  occ. eigenvalues --   -0.64369  -0.60723  -0.52259  -0.51257  -0.49016
 Alpha  occ. eigenvalues --   -0.48372  -0.45656  -0.43947  -0.39906  -0.39045
 Alpha  occ. eigenvalues --   -0.38370  -0.37259  -0.35753  -0.35176  -0.32182
 Alpha  occ. eigenvalues --   -0.31937  -0.29363  -0.25515  -0.23580
 Alpha virt. eigenvalues --    0.07346   0.10377   0.11167   0.11450   0.12590
 Alpha virt. eigenvalues --    0.13001   0.13951   0.14687   0.15188   0.16058
 Alpha virt. eigenvalues --    0.16800   0.16970   0.17983   0.18861   0.20326

 Mulliken charges:
               1
     1  C   -0.398882
     2  C    0.097524
     3  O   -0.262788
     4  C   -0.120374
     5  C   -0.028837
     6  C    0.021173
     7  O   -0.316199
     8  C    0.042097
     9  C   -0.019773
    10  H    0.115986
    11  H    0.123257
    12  H    0.126686
    13  H    0.066455
    14  H    0.090572
    15  H    0.114208
    16  H    0.083891
    17  H    0.088498
    18  H    0.095712
    19  H    0.080793
 Sum of Mulliken charges =   0.00000

 Dipole moment (field-independent basis, Debye):
    X=              0.8118    Y=              0.5287    Z=              0.6881  Tot=              1.1883
 Quadrupole moment (field-independent basis, Debye-Ang):
   XX=            -59.3631   YY=            -52.9071   ZZ=            -50.2156
   XY=             -5.8451   XZ=              0.0296   YZ=             -0.0130

  Exact polarizability:  79.218  -4.224  76.109  -0.019  -0.149  68.682
 Approx polarizability: 109.130  -0.910 109.783  -0.502  -0.599 109.326

                      1                      2                      3
                      A                      A                      A
 Frequencies --    128.7098               194.4776               242.1624
 Red. masses --      3.1750                 1.8645                 1.2943
 Frc consts  --      0.0310                 0.0415                 0.0447
 IR Inten    --      1.2650                 3.2262                 1.2993

                      4                      5                      6
                      A                      A                      A
 Frequencies --    284.2017               329.4575               453.4371
 Red. masses --      2.3702                 2.8257                 4.6145
 Frc consts  --      0.1128                 0.1807                 0.5590
 IR Inten    --      0.6780                 1.1816                 1.3943

                      7                      8                      9
                      A                      A                      A
 Frequencies --    475.7183               496.0499               615.3887
 Red. masses --      6.8738                 3.9429                 3.6672
 Frc consts  --      0.9165                 0.5716                 0.8182
 IR Inten    --      0.2245                 6.1723                 0.5066

                     10                     11                     12
                      A                      A                      A
 Frequencies --    724.8506               746.4089               816.9343
 Red. masses --      3.7998                 3.9852                 3.1005
 Frc consts  --      1.1763                 1.3081                 1.2192
 IR Inten    --      5.5829                 6.8112                 6.6920

                     13                     14                     15
                      A                      A                      A
 Frequencies --    851.7583               866.9498               886.7355
 Red. masses --      2.4267                 2.5638                 2.8160
 Frc consts  --      1.0373                 1.1353                 1.3046
 IR Inten    --      5.5792                 1.6200                 3.8648

                     16                     17                     18
                      A                      A                      A
 Frequencies --    895.5796               950.2036               974.7795
 Red. masses --      3.2035                 3.0027                 1.6259
 Frc consts  --      1.5139                 1.5973                 0.9103
 IR Inten    --     55.3609                 6.2531                 5.9374

                     19                     20                     21
                      A                      A                      A
 Frequencies --    997.2156              1028.1760              1037.7671
 Red. masses --      1.1744                 1.8081                 2.0437
 Frc consts  --      0.6881                 1.1262                 1.2968
 IR Inten    --      5.3993                 9.8703                 3.4933

                     22                     23                     24
                      A                      A                      A
 Frequencies --   1082.3014              1115.4406              1134.2595
 Red. masses --      2.0369                 2.0067                 3.1403
 Frc consts  --      1.4058                 1.4711                 2.3804
 IR Inten    --      4.3773                 7.5784                13.8833

                     25                     26                     27
                      A                      A                      A
 Frequencies --   1149.1308              1159.7900              1167.5209
 Red. masses --      1.6203                 2.3360                 2.0126
 Frc consts  --      1.2606                 1.8513                 1.6163
 IR Inten    --     15.5046                44.2971                30.8249

                     28                     29                     30
                      A                      A                      A
 Frequencies --   1194.1731              1207.0759              1255.7765
 Red. masses --      1.5080                 1.6229                 1.4197
 Frc consts  --      1.2670                 1.3932                 1.3191
 IR Inten    --      5.9788                21.3733                 7.5622

                     31                     32                     33
                      A                      A                      A
 Frequencies --   1264.8402              1284.5185              1302.7213
 Red. masses --      1.6259                 1.2294                 1.8205
 Frc consts  --      1.5325                 1.1952                 1.8203
 IR Inten    --      1.6643                12.7039                 0.5714

                     34                     35                     36
                      A                      A                      A
 Frequencies --   1356.2301              1358.9233              1395.1110
 Red. masses --      1.3094                 1.5874                 1.6050
 Frc consts  --      1.4190                 1.7272                 1.8406
 IR Inten    --      4.4061                 3.9834                 8.6513

                     37                     38                     39
                      A                      A                      A
 Frequencies --   1408.6611              1417.3956              1485.0759
 Red. masses --      1.3311                 1.4869                 1.0570
 Frc consts  --      1.5563                 1.7600                 1.3735
 IR Inten    --     12.9699                 3.0496                 3.0632

                     40                     41                     42
                      A                      A                      A
 Frequencies --   1496.9076              1504.5344              2928.9482
 Red. masses --      1.0510                 1.0890                 1.0816
 Frc consts  --      1.3876                 1.4524                 5.4667
 IR Inten    --      2.1039                 1.6879                51.7575

                     43                     44                     45
                      A                      A                      A
 Frequencies --   2952.8480              3042.4068              3069.7781
 Red. masses --      1.0721                 1.0348                 1.0900
 Frc consts  --      5.5077                 5.6432                 6.0519
 IR Inten    --     78.1341                14.8809                26.5315

                     46                     47                     48
                      A                      A                      A
 Frequencies --   3096.1832              3102.1793              3108.7095
 Red. masses --      1.0856                 1.0864                 1.0909
 Frc consts  --      6.1318                 6.1599                 6.2116
 IR Inten    --     10.5732                46.1435                59.2535

                     49                     50                     51
                      A                      A                      A
 Frequencies --   3116.6223              3123.4158              3124.3445
 Red. masses --      1.1016                 1.0973                 1.1009
 Frc consts  --      6.3044                 6.3070                 6.3314
 IR Inten    --     29.3323                13.3580                28.4224

 - Thermochemistry -
 -------------------
 Temperature   298.150 Kelvin.  Pressure   1.00000 Atm.
 Atom     1 has atomic number  6 and mass  12.00000

 Molecular mass:   126.06808 amu.
 Principal axes and moments of inertia in atomic units:
                           1         2         3
     Eigenvalues --   595.871361111.078031448.16265
           X            0.99723  -0.07438  -0.00305
           Y            0.07440   0.99720   0.00737
           Z            0.00250  -0.00758   0.99997
 This molecule is an asymmetric top.
 Rotational symmetry number  1.
 Warning -- assumption of classical behavior for rotation
           may cause significant error
 Rotational temperatures (Kelvin)      0.14536     0.07795     0.05981
 Rotational constants (GHZ):           3.02874     1.62432     1.24623
 Zero-point vibrational energy     421102.2 (Joules/Mol)
                                  100.64583 (Kcal/Mol)
 Warning -- explicit consideration of   9 degrees of freedom as
           vibrations may cause significant error
 Vibrational temperatures:    185.18   279.81   348.42   408.90   474.02
          (Kelvin)            652.39   684.45   713.70   885.41  1042.90
                             1073.91  1175.38  1225.49  1247.35  1275.81
                             1288.54  1367.13  1402.49  1434.77  1479.31
                             1493.11  1557.19  1604.87  1631.94  1653.34
                             1668.68  1679.80  1718.15  1736.71  1806.78
                             1819.82  1848.13  1874.32  1951.31  1955.19
                             2007.25  2026.75  2039.31  2136.69  2153.71
                             2164.69  4214.10  4248.48  4377.34  4416.72
                             4454.71  4463.34  4472.73  4484.12  4493.89
                             4495.23

 Zero-point correction=                           0.160389 (Hartree/Particle)
 Thermal correction to Energy=                    0.167643
 Thermal correction to Enthalpy=                  0.168587
 Thermal correction to Gibbs Free Energy=         0.128889
 Sum of electronic and zero-point Energies=           -422.962502
 Sum of electronic and thermal Energies=              -422.955248
 Sum of electronic and thermal Enthalpies=            -422.954304
 Sum of electronic and thermal Free Energies=         -422.994002

                     E (Thermal)             CV                S
                      KCal/Mol        Cal/Mol-Kelvin    Cal/Mol-Kelvin
 Total                  105.197             29.287             83.550
 Electronic               0.000              0.000              0.000
 Translational            0.889              2.981             40.409
 Rotational               0.889              2.981             28.352
 Vibrational            103.420             23.326             14.790
 Vibration     1          0.611              1.925              2.965
 Vibration     2          0.635              1.848              2.185
 Vibration     3          0.658              1.776              1.787
 Vibration     4          0.683              1.703              1.508
 Vibration     5          0.712              1.617              1.263
 Vibration     6          0.812              1.353              0.785
 Vibration     7          0.832              1.304              0.722
 Vibration     8          0.852              1.259              0.668
 Vibration     9          0.975              0.999              0.424

 Optimization completed.
    -- Stationary point found.
 Normal termination of Gaussian 09 at Tue Jan 28 09:02:28 2020.
