 Gaussian 09, Revision D.01,
 Gaussian 09:  ES64L-G09RevD.01 24-Apr-2013

 -----------------------------
 # b3lyp 6-31G(2df,p) opt Freq
 -----------------------------

 -----
 titel
 -----
 Symbolic Z-matrix:
 Charge =  0 Multiplicity = 1

 SCF Done:  E(RB3LYP) =  -423.164385459     A.U. after   13 cycles
 Optimization completed.
    -- Stationary point found.
 Normal termination of Gaussian 09 at Mon Jan 27 17:02:37 2020.

 ----------------------------------------------------------------------
 #N Geom=AllCheck Guess=TCheck SCRF=Check GenChk RB3LYP/6-31G(2df,p) Fr
 eq
 ----------------------------------------------------------------------

 Structure from the checkpoint file:  "/scratch/puck/g09_5b9fdf53-0397-4c91-a1e2-132e3e3d7d0a/Gau-59030.chk"
 -----
 titel
 -----
 Charge =  0 Multiplicity = 1

                         Standard orientation:
 ---------------------------------------------------------------------
 Center     Atomic      Atomic             Coordinates (Angstroms)
 Number     Number       Type             X           Y           Z
 ---------------------------------------------------------------------
      1          8           0        1.294496    1.576817   -0.819734
      2          6           0        0.597679    0.556438   -0.185624
      3          6           0        1.174851   -0.632933    0.685932
      4          6           0        0.066476   -0.334023    1.734798
      5          6           0       -0.531095    0.808397    0.850510
      6          6           0       -1.808781    0.488927    0.084057
      7          8           0       -1.458447   -0.515558   -0.870812
      8          6           0       -0.059913   -0.482790   -1.128071
      9          6           0        0.734900   -1.620353   -0.420416
     10          1           0        1.703153    2.133504   -0.148266
     11          1           0        2.201562   -0.689519    1.048136
     12          1           0       -0.612160   -1.162659    1.956044
     13          1           0        0.470097    0.043658    2.677224
     14          1           0       -0.548283    1.792766    1.323959
     15          1           0       -2.612304    0.089956    0.713409
     16          1           0       -2.186641    1.388548   -0.426517
     17          1           0        0.125979   -0.349460   -2.197355
     18          1           0        0.143259   -2.489046   -0.121113
     19          1           0        1.582246   -1.949799   -1.028270
 ---------------------------------------------------------------------

 SCF Done:  E(RB3LYP) =  -423.164385459     A.U. after    1 cycles

 The electronic state is 1-A.
 Alpha  occ. eigenvalues --  -19.15004 -19.12956 -10.23266 -10.22250 -10.22124
 Alpha  occ. eigenvalues --  -10.18627 -10.18420 -10.18341 -10.17550  -1.03957
 Alpha  occ. eigenvalues --   -1.02095  -0.85717  -0.77147  -0.68393  -0.66471
 Alpha  occ. eigenvalues --   -0.61755  -0.57019  -0.53824  -0.52460  -0.47680
 Alpha  occ. eigenvalues --   -0.45938  -0.44854  -0.42978  -0.41269  -0.40247
 Alpha  occ. eigenvalues --   -0.38705  -0.36763  -0.34758  -0.32688  -0.31473
 Alpha  occ. eigenvalues --   -0.31157  -0.26719  -0.25353  -0.23661
 Alpha virt. eigenvalues --    0.06955   0.07882   0.10742   0.11401   0.12496
 Alpha virt. eigenvalues --    0.13282   0.14890   0.15089   0.16647   0.17272
 Alpha virt. eigenvalues --    0.18431   0.18977   0.20165   0.22290   0.23301

 Mulliken charges:
               1
     1  O   -0.489089
     2  C    0.381471
     3  C   -0.120187
     4  C   -0.236355
     5  C   -0.113511
     6  C   -0.088642
     7  O   -0.278255
     8  C    0.085180
     9  C   -0.241888
    10  H    0.280614
    11  H    0.065253
    12  H    0.102937
    13  H    0.099768
    14  H    0.067311
    15  H    0.104004
    16  H    0.093915
    17  H    0.085060
    18  H    0.100363
    19  H    0.102049
 Sum of Mulliken charges =   0.00000

 Dipole moment (field-independent basis, Debye):
    X=              1.0841    Y=              1.0176    Z=              2.0670  Tot=              2.5462
 Quadrupole moment (field-independent basis, Debye-Ang):
   XX=            -52.9850   YY=            -51.2221   ZZ=            -54.1257
   XY=             -0.5524   XZ=             -0.3595   YZ=              2.4731

  Exact polarizability:  75.037  -3.374  73.705  -1.409   1.420  72.368
 Approx polarizability: 107.408  -0.621 107.680  -1.765   1.175 105.779

                      1                      2                      3
                      A                      A                      A
 Frequencies --    111.9794               209.6705               273.4588
 Red. masses --      3.0723                 2.3081                 2.6014
 Frc consts  --      0.0227                 0.0598                 0.1146
 IR Inten    --      2.3992                 6.7608                10.5545

                      4                      5                      6
                      A                      A                      A
 Frequencies --    305.0594               366.6403               381.0257
 Red. masses --      1.3471                 2.1842                 3.2834
 Frc consts  --      0.0739                 0.1730                 0.2809
 IR Inten    --     70.9970                 4.8015                 5.8465

                      7                      8                      9
                      A                      A                      A
 Frequencies --    415.0180               581.4436               589.9764
 Red. masses --      2.2910                 3.8610                 3.2314
 Frc consts  --      0.2325                 0.7691                 0.6627
 IR Inten    --     11.8346                 2.1662                 0.4842

                     10                     11                     12
                      A                      A                      A
 Frequencies --    660.7434               705.5538               796.0493
 Red. masses --      3.9034                 4.0662                 2.9513
 Frc consts  --      1.0041                 1.1926                 1.1019
 IR Inten    --      6.2658                 3.4096                 1.7457

                     13                     14                     15
                      A                      A                      A
 Frequencies --    806.1214               846.8982               879.2567
 Red. masses --      1.9876                 2.5477                 2.2837
 Frc consts  --      0.7610                 1.0766                 1.0402
 IR Inten    --      9.2093                 6.0785                 2.5329

                     16                     17                     18
                      A                      A                      A
 Frequencies --    930.9007               961.9827               967.1830
 Red. masses --      2.0540                 2.4295                 1.9315
 Frc consts  --      1.0487                 1.3246                 1.0646
 IR Inten    --      2.2980                12.9901                16.3373

                     19                     20                     21
                      A                      A                      A
 Frequencies --   1007.0819              1024.9045              1033.6421
 Red. masses --      2.7689                 1.9593                 1.9340
 Frc consts  --      1.6546                 1.2126                 1.2174
 IR Inten    --      7.2292                32.8122                 8.5126

                     22                     23                     24
                      A                      A                      A
 Frequencies --   1073.9239              1086.8242              1111.5414
 Red. masses --      2.3910                 1.9877                 1.6648
 Frc consts  --      1.6247                 1.3833                 1.2119
 IR Inten    --      8.7403                36.2389                 4.2079

                     25                     26                     27
                      A                      A                      A
 Frequencies --   1127.1619              1134.4090              1154.6804
 Red. masses --      2.2830                 1.7139                 2.0144
 Frc consts  --      1.7089                 1.2995                 1.5825
 IR Inten    --     37.9328                12.3024                26.3889

                     28                     29                     30
                      A                      A                      A
 Frequencies --   1191.2972              1198.6709              1235.7204
 Red. masses --      1.9720                 1.4086                 1.2374
 Frc consts  --      1.6489                 1.1924                 1.1133
 IR Inten    --     21.7466                 7.6284                19.0245

                     31                     32                     33
                      A                      A                      A
 Frequencies --   1249.7432              1279.4792              1285.0629
 Red. masses --      1.6155                 1.5420                 1.3890
 Frc consts  --      1.4866                 1.4873                 1.3515
 IR Inten    --      2.1433                11.2718                22.7773

                     34                     35                     36
                      A                      A                      A
 Frequencies --   1305.9882              1320.6510              1334.2282
 Red. masses --      1.7938                 1.7196                 1.2848
 Frc consts  --      1.8026                 1.7671                 1.3475
 IR Inten    --    116.9479                 2.8806                 6.4760

                     37                     38                     39
                      A                      A                      A
 Frequencies --   1386.0885              1401.3840              1466.3115
 Red. masses --      1.4793                 1.9410                 1.1082
 Frc consts  --      1.6745                 2.2459                 1.4038
 IR Inten    --      4.5781                 6.7372                 1.9656

                     40                     41                     42
                      A                      A                      A
 Frequencies --   1485.7902              1517.1742              2981.3527
 Red. masses --      1.1181                 1.0914                 1.0687
 Frc consts  --      1.4542                 1.4802                 5.5969
 IR Inten    --      6.6357                 0.4818                78.6189

                     43                     44                     45
                      A                      A                      A
 Frequencies --   3054.1361              3055.5176              3058.8523
 Red. masses --      1.0598                 1.0621                 1.0915
 Frc consts  --      5.8247                 5.8425                 6.0171
 IR Inten    --     23.0021                19.3787                57.5661

                     46                     47                     48
                      A                      A                      A
 Frequencies --   3071.5243              3083.6453              3101.5785
 Red. masses --      1.0865                 1.0892                 1.0952
 Frc consts  --      6.0394                 6.1024                 6.2072
 IR Inten    --     43.5951                18.8438                21.1413

                     49                     50                     51
                      A                      A                      A
 Frequencies --   3110.9106              3116.7921              3804.8321
 Red. masses --      1.1056                 1.1031                 1.0659
 Frc consts  --      6.3043                 6.3139                 9.0914
 IR Inten    --     19.6281                47.7271                20.5063

 - Thermochemistry -
 -------------------
 Temperature   298.150 Kelvin.  Pressure   1.00000 Atm.
 Atom     1 has atomic number  8 and mass  15.99491

 Molecular mass:   126.06808 amu.
 Principal axes and moments of inertia in atomic units:
                           1         2         3
     Eigenvalues --   827.39175 949.45987 982.03429
           X            0.98975  -0.13131  -0.05610
           Y            0.14006   0.96927   0.20224
           Z            0.02782  -0.20802   0.97773
 This molecule is an asymmetric top.
 Rotational symmetry number  1.
 Warning -- assumption of classical behavior for rotation
           may cause significant error
 Rotational temperatures (Kelvin)      0.10468     0.09122     0.08820
 Rotational constants (GHZ):           2.18124     1.90081     1.83776
 Zero-point vibrational energy     422520.2 (Joules/Mol)
                                  100.98475 (Kcal/Mol)
 Warning -- explicit consideration of   9 degrees of freedom as
           vibrations may cause significant error
 Vibrational temperatures:    161.11   301.67   393.45   438.91   527.51
          (Kelvin)            548.21   597.12   836.57   848.84   950.66
                             1015.13  1145.34  1159.83  1218.50  1265.05
                             1339.36  1384.08  1391.56  1448.96  1474.61
                             1487.18  1545.13  1563.70  1599.26  1621.73
                             1632.16  1661.33  1714.01  1724.62  1777.92
                             1798.10  1840.88  1848.92  1879.02  1900.12
                             1919.65  1994.27  2016.28  2109.69  2137.72
                             2182.87  4289.50  4394.22  4396.20  4401.00
                             4419.23  4436.67  4462.47  4475.90  4484.36
                             5474.30

 Zero-point correction=                           0.160929 (Hartree/Particle)
 Thermal correction to Energy=                    0.168235
 Thermal correction to Enthalpy=                  0.169179
 Thermal correction to Gibbs Free Energy=         0.129515
 Sum of electronic and zero-point Energies=           -423.003456
 Sum of electronic and thermal Energies=              -422.996150
 Sum of electronic and thermal Enthalpies=            -422.995206
 Sum of electronic and thermal Free Energies=         -423.034871

                     E (Thermal)             CV                S
                      KCal/Mol        Cal/Mol-Kelvin    Cal/Mol-Kelvin
 Total                  105.569             29.777             83.482
 Electronic               0.000              0.000              0.000
 Translational            0.889              2.981             40.409
 Rotational               0.889              2.981             28.136
 Vibrational            103.792             23.815             14.937
 Vibration     1          0.607              1.940              3.234
 Vibration     2          0.642              1.826              2.047
 Vibration     3          0.676              1.722              1.574
 Vibration     4          0.696              1.664              1.389
 Vibration     5          0.740              1.541              1.094
 Vibration     6          0.751              1.511              1.035
 Vibration     7          0.778              1.438              0.909
 Vibration     8          0.938              1.071              0.483
 Vibration     9          0.947              1.053              0.467

 Normal termination of Gaussian 09 at Mon Jan 27 17:50:42 2020.
