 Gaussian 09, Revision D.01,
 Gaussian 09:  ES64L-G09RevD.01 24-Apr-2013

 -----------------------------
 # b3lyp 6-31G(2df,p) opt Freq
 -----------------------------

 -----
 titel
 -----
 Symbolic Z-matrix:
 Charge =  0 Multiplicity = 1

 SCF Done:  E(RB3LYP) =  -423.119551109     A.U. after   13 cycles
 Optimization completed.
    -- Stationary point found.
 Normal termination of Gaussian 09 at Tue Jan 28 09:01:39 2020.

 ----------------------------------------------------------------------
 #N Geom=AllCheck Guess=TCheck SCRF=Check GenChk RB3LYP/6-31G(2df,p) Fr
 eq
 ----------------------------------------------------------------------

 Structure from the checkpoint file:  "/scratch/puck/g09_59f246ac-2e52-4483-a4a2-c84b16117489/Gau-16374.chk"
 -----
 titel
 -----
 Charge =  0 Multiplicity = 1

                         Standard orientation:
 ---------------------------------------------------------------------
 Center     Atomic      Atomic             Coordinates (Angstroms)
 Number     Number       Type             X           Y           Z
 ---------------------------------------------------------------------
      1          6           0        1.345952    1.800814   -0.659971
      2          8           0        0.748337    1.299835    0.535314
      3          6           0        0.312980   -0.034828    0.431297
      4          6           0       -0.777208   -0.378786    1.436085
      5          6           0       -1.155646   -0.178045   -0.008667
      6          6           0       -1.625091   -1.326710   -0.858546
      7          8           0       -1.792335    1.011686   -0.367703
      8          6           0        1.309192   -1.009165    0.083571
      9          6           0        2.141567   -1.822976   -0.222982
     10          1           0        0.642852    1.764723   -1.501264
     11          1           0        1.619484    2.837828   -0.454778
     12          1           0        2.245969    1.231556   -0.918603
     13          1           0       -0.772262   -1.380758    1.849639
     14          1           0       -1.025269    0.412492    2.136116
     15          1           0       -2.689511   -1.513254   -0.682928
     16          1           0       -1.488922   -1.093445   -1.918735
     17          1           0       -1.067341   -2.236305   -0.627662
     18          1           0       -1.299939    1.727264    0.056044
     19          1           0        2.876447   -2.544085   -0.483439
 ---------------------------------------------------------------------

 SCF Done:  E(RB3LYP) =  -423.119551109     A.U. after    1 cycles

 The electronic state is 1-A.
 Alpha  occ. eigenvalues --  -19.16254 -19.14232 -10.25967 -10.24900 -10.22864
 Alpha  occ. eigenvalues --  -10.18991 -10.18800 -10.18115 -10.17824  -1.06003
 Alpha  occ. eigenvalues --   -1.02321  -0.85421  -0.75174  -0.72761  -0.68906
 Alpha  occ. eigenvalues --   -0.62905  -0.58347  -0.54604  -0.52562  -0.50784
 Alpha  occ. eigenvalues --   -0.46238  -0.44929  -0.43546  -0.42267  -0.40247
 Alpha  occ. eigenvalues --   -0.38947  -0.38038  -0.35831  -0.34997  -0.32293
 Alpha  occ. eigenvalues --   -0.29616  -0.27945  -0.26044  -0.22637
 Alpha virt. eigenvalues --    0.02786   0.04365   0.08591   0.11665   0.12451
 Alpha virt. eigenvalues --    0.13155   0.13319   0.13920   0.15197   0.15490
 Alpha virt. eigenvalues --    0.16735   0.17699   0.18610   0.19937   0.21692

 Mulliken charges:
               1
     1  C   -0.265155
     2  O   -0.291010
     3  C    0.140251
     4  C   -0.406470
     5  C    0.379840
     6  C   -0.442806
     7  O   -0.470889
     8  C    0.318901
     9  C   -0.474610
    10  H    0.125829
    11  H    0.129807
    12  H    0.132276
    13  H    0.127583
    14  H    0.125583
    15  H    0.128052
    16  H    0.128043
    17  H    0.128475
    18  H    0.289597
    19  H    0.196703
 Sum of Mulliken charges =   0.00000

 Dipole moment (field-independent basis, Debye):
    X=              0.8911    Y=             -0.3352    Z=             -0.2843  Tot=              0.9936
 Quadrupole moment (field-independent basis, Debye-Ang):
   XX=            -54.0826   YY=            -47.9057   ZZ=            -53.5565
   XY=              0.1561   XZ=             -3.9491   YZ=             -0.1530

  Exact polarizability:  87.782  -8.529  83.420  -5.261   1.635  65.297
 Approx polarizability: 128.993 -23.250 122.348  -9.453   6.174  98.055

                      1                      2                      3
                      A                      A                      A
 Frequencies --    105.9634               132.2574               151.9580
 Red. masses --      2.8426                 3.4757                 3.4919
 Frc consts  --      0.0188                 0.0358                 0.0475
 IR Inten    --      3.4628                 3.3531                 4.3794

                      4                      5                      6
                      A                      A                      A
 Frequencies --    174.3572               194.6830               199.7572
 Red. masses --      2.0486                 1.2358                 1.2420
 Frc consts  --      0.0367                 0.0276                 0.0292
 IR Inten    --      3.1895                 0.2004                 0.0998

                      7                      8                      9
                      A                      A                      A
 Frequencies --    272.0630               343.4689               358.2913
 Red. masses --      3.2416                 3.1333                 2.8371
 Frc consts  --      0.1414                 0.2178                 0.2146
 IR Inten    --     13.0922                16.9691                 5.9066

                     10                     11                     12
                      A                      A                      A
 Frequencies --    401.5929               443.0789               458.6533
 Red. masses --      2.9722                 3.0394                 1.5250
 Frc consts  --      0.2824                 0.3516                 0.1890
 IR Inten    --      7.4619                 9.0751                68.6197

                     13                     14                     15
                      A                      A                      A
 Frequencies --    491.2767               564.1019               571.0091
 Red. masses --      2.4071                 2.9265                 1.6648
 Frc consts  --      0.3423                 0.5487                 0.3198
 IR Inten    --     12.1820                20.3235                39.9453

                     16                     17                     18
                      A                      A                      A
 Frequencies --    591.9473               665.6702               683.0309
 Red. masses --      2.9763                 4.7967                 1.2599
 Frc consts  --      0.6145                 1.2523                 0.3463
 IR Inten    --      3.7225                 7.3777                32.9093

                     19                     20                     21
                      A                      A                      A
 Frequencies --    780.0068               874.5060               894.7761
 Red. masses --      4.4735                 3.4829                 1.5534
 Frc consts  --      1.6036                 1.5693                 0.7328
 IR Inten    --     14.9156                18.3780                 0.6395

                     22                     23                     24
                      A                      A                      A
 Frequencies --    919.7626               987.1767              1048.9294
 Red. masses --      1.6868                 1.8988                 2.2534
 Frc consts  --      0.8408                 1.0903                 1.4607
 IR Inten    --      4.6717                17.1235                26.7988

                     25                     26                     27
                      A                      A                      A
 Frequencies --   1059.2936              1104.7965              1143.3230
 Red. masses --      1.8778                 1.6336                 3.8007
 Frc consts  --      1.2415                 1.1748                 2.9272
 IR Inten    --     24.8634                22.8343                80.1692

                     28                     29                     30
                      A                      A                      A
 Frequencies --   1182.3503              1192.2929              1230.5329
 Red. masses --      1.3394                 1.8536                 2.0266
 Frc consts  --      1.1032                 1.5525                 1.8081
 IR Inten    --      4.5946                36.1909                78.9366

                     31                     32                     33
                      A                      A                      A
 Frequencies --   1252.0934              1323.4127              1401.0636
 Red. masses --      2.6234                 3.1624                 1.2245
 Frc consts  --      2.4232                 3.2633                 1.4162
 IR Inten    --     66.6807                15.8849                35.7673

                     34                     35                     36
                      A                      A                      A
 Frequencies --   1442.2742              1466.6316              1473.7167
 Red. masses --      1.4151                 1.5423                 1.1699
 Frc consts  --      1.7344                 1.9547                 1.4970
 IR Inten    --     12.6772                42.2025                 1.7530

                     37                     38                     39
                      A                      A                      A
 Frequencies --   1477.8384              1488.5799              1503.9876
 Red. masses --      1.0498                 1.0518                 1.1450
 Frc consts  --      1.3508                 1.3732                 1.5260
 IR Inten    --      2.5777                 7.9090                 6.6455

                     40                     41                     42
                      A                      A                      A
 Frequencies --   1510.8549              2223.0422              3016.8255
 Red. masses --      1.0521                 6.0328                 1.0325
 Frc consts  --      1.4150                17.5655                 5.5363
 IR Inten    --      8.3304                 7.4017                38.3207

                     43                     44                     45
                      A                      A                      A
 Frequencies --   3043.5760              3084.2871              3108.6719
 Red. masses --      1.0363                 1.1042                 1.1012
 Frc consts  --      5.6558                 6.1889                 6.2700
 IR Inten    --     22.0237                25.4501                16.9194

                     46                     47                     48
                      A                      A                      A
 Frequencies --   3130.3335              3132.3452              3137.2972
 Red. masses --      1.1020                 1.0576                 1.0967
 Frc consts  --      6.3625                 6.1138                 6.3598
 IR Inten    --     21.1236                 3.1431                13.1671

                     49                     50                     51
                      A                      A                      A
 Frequencies --   3229.0335              3500.3098              3761.8698
 Red. masses --      1.1179                 1.1594                 1.0646
 Frc consts  --      6.8672                 8.3696                 8.8764
 IR Inten    --      2.5535                79.7441                38.4444

 - Thermochemistry -
 -------------------
 Temperature   298.150 Kelvin.  Pressure   1.00000 Atm.
 Atom     1 has atomic number  6 and mass  12.00000

 Molecular mass:   126.06808 amu.
 Principal axes and moments of inertia in atomic units:
                           1         2         3
     Eigenvalues --   907.447531107.025271553.45728
           X            0.99040   0.13683  -0.01942
           Y           -0.13701   0.99054  -0.00798
           Z            0.01814   0.01056   0.99978
 This molecule is an asymmetric top.
 Rotational symmetry number  1.
 Warning -- assumption of classical behavior for rotation
           may cause significant error
 Rotational temperatures (Kelvin)      0.09545     0.07824     0.05576
 Rotational constants (GHZ):           1.98881     1.63026     1.16176
 Zero-point vibrational energy     406305.4 (Joules/Mol)
                                   97.10931 (Kcal/Mol)
 Warning -- explicit consideration of  16 degrees of freedom as
           vibrations may cause significant error
 Vibrational temperatures:    152.46   190.29   218.63   250.86   280.11
          (Kelvin)            287.41   391.44   494.17   515.50   577.80
                              637.49   659.90   706.84   811.62   821.55
                              851.68   957.75   982.73  1122.25  1258.22
                             1287.38  1323.33  1420.33  1509.17  1524.09
                             1589.55  1644.98  1701.14  1715.44  1770.46
                             1801.48  1904.09  2015.82  2075.11  2110.15
                             2120.35  2126.28  2141.73  2163.90  2173.78
                             3198.46  4340.53  4379.02  4437.60  4472.68
                             4503.85  4506.74  4513.87  4645.85  5036.16
                             5412.48

 Zero-point correction=                           0.154754 (Hartree/Particle)
 Thermal correction to Energy=                    0.164879
 Thermal correction to Enthalpy=                  0.165823
 Thermal correction to Gibbs Free Energy=         0.120474
 Sum of electronic and zero-point Energies=           -422.964798
 Sum of electronic and thermal Energies=              -422.954672
 Sum of electronic and thermal Enthalpies=            -422.953728
 Sum of electronic and thermal Free Energies=         -422.999078

                     E (Thermal)             CV                S
                      KCal/Mol        Cal/Mol-Kelvin    Cal/Mol-Kelvin
 Total                  103.463             37.978             95.446
 Electronic               0.000              0.000              0.000
 Translational            0.889              2.981             40.409
 Rotational               0.889              2.981             28.836
 Vibrational            101.686             32.017             26.201
 Vibration     1          0.605              1.944              3.342
 Vibration     2          0.612              1.921              2.913
 Vibration     3          0.619              1.901              2.648
 Vibration     4          0.627              1.874              2.388
 Vibration     5          0.635              1.847              2.183
 Vibration     6          0.638              1.840              2.135
 Vibration     7          0.675              1.725              1.583
 Vibration     8          0.722              1.589              1.196
 Vibration     9          0.733              1.558              1.130
 Vibration    10          0.767              1.467              0.957
 Vibration    11          0.803              1.376              0.817
 Vibration    12          0.817              1.342              0.770
 Vibration    13          0.847              1.269              0.680
 Vibration    14          0.920              1.109              0.516
 Vibration    15          0.927              1.094              0.502
 Vibration    16          0.949              1.049              0.464

 Optimization completed.
    -- Stationary point found.
 Normal termination of Gaussian 09 at Tue Jan 28 09:43:29 2020.
