 Gaussian 09, Revision D.01,
 Gaussian 09:  ES64L-G09RevD.01 24-Apr-2013

 -----------------------------
 # b3lyp 6-31G(2df,p) opt Freq
 -----------------------------

 -----
 titel
 -----
 Symbolic Z-matrix:
 Charge =  0 Multiplicity = 1

 SCF Done:  E(RB3LYP) =  -423.115176851     A.U. after   12 cycles
 Optimization completed.
    -- Stationary point found.
 Normal termination of Gaussian 09 at Tue Jan 28 01:54:12 2020.

 ----------------------------------------------------------------------
 #N Geom=AllCheck Guess=TCheck SCRF=Check GenChk RB3LYP/6-31G(2df,p) Fr
 eq
 ----------------------------------------------------------------------

 Structure from the checkpoint file:  "/scratch/puck/g09_43548a99-1f64-49c8-97dd-15826a333176/Gau-193578.chk"
 -----
 titel
 -----
 Charge =  0 Multiplicity = 1

                         Standard orientation:
 ---------------------------------------------------------------------
 Center     Atomic      Atomic             Coordinates (Angstroms)
 Number     Number       Type             X           Y           Z
 ---------------------------------------------------------------------
      1          6           0       -3.290257    0.208461    0.152575
      2          6           0       -1.863557    0.195533   -0.350972
      3          6           0       -1.008302   -0.982187    0.001287
      4          8           0        0.247639   -0.937851   -0.699187
      5          6           0        0.576288    0.284840    0.001428
      6          6           0        1.509989    1.284499   -0.607166
      7          6           0        1.969135    0.373967    0.530063
      8          8           0        2.820647   -0.692806    0.260520
      9          6           0       -0.760809    0.341989    0.688925
     10          1           0       -3.652506    1.233010    0.286880
     11          1           0       -3.960529   -0.297519   -0.549869
     12          1           0       -3.374619   -0.300340    1.119169
     13          1           0       -1.700246    0.643764   -1.328921
     14          1           0       -1.356061   -1.945579    0.355246
     15          1           0        1.892657    1.053043   -1.595856
     16          1           0        1.352378    2.338406   -0.400565
     17          1           0        2.137950    0.824948    1.505454
     18          1           0        2.259901   -1.400690   -0.088520
     19          1           0       -0.940137    0.653601    1.709479
 ---------------------------------------------------------------------

 SCF Done:  E(RB3LYP) =  -423.115176851     A.U. after    1 cycles

 The electronic state is 1-A.
 Alpha  occ. eigenvalues --  -19.15385 -19.13245 -10.24580 -10.24570 -10.23183
 Alpha  occ. eigenvalues --  -10.20218 -10.20163 -10.18925 -10.18064  -1.06733
 Alpha  occ. eigenvalues --   -1.01773  -0.85023  -0.83587  -0.72062  -0.64102
 Alpha  occ. eigenvalues --   -0.60803  -0.58239  -0.54760  -0.52339  -0.51158
 Alpha  occ. eigenvalues --   -0.47059  -0.44952  -0.43026  -0.41659  -0.39893
 Alpha  occ. eigenvalues --   -0.39001  -0.38695  -0.36289  -0.34843  -0.33100
 Alpha  occ. eigenvalues --   -0.31549  -0.26412  -0.24820  -0.22969
 Alpha virt. eigenvalues --    0.06101   0.09653   0.10418   0.11344   0.12325
 Alpha virt. eigenvalues --    0.12936   0.14536   0.14924   0.15703   0.16192
 Alpha virt. eigenvalues --    0.16351   0.17867   0.18873   0.20764   0.23063

 Mulliken charges:
               1
     1  C   -0.426233
     2  C   -0.034637
     3  C    0.082430
     4  O   -0.329681
     5  C    0.408855
     6  C   -0.389512
     7  C    0.047524
     8  O   -0.433108
     9  C   -0.242558
    10  H    0.126103
    11  H    0.125750
    12  H    0.117598
    13  H    0.096919
    14  H    0.108401
    15  H    0.129171
    16  H    0.116475
    17  H    0.098168
    18  H    0.294714
    19  H    0.103620
 Sum of Mulliken charges =   0.00000

 Dipole moment (field-independent basis, Debye):
    X=             -2.7186    Y=              0.6586    Z=              0.8069  Tot=              2.9113
 Quadrupole moment (field-independent basis, Debye-Ang):
   XX=            -58.0996   YY=            -50.6924   ZZ=            -52.4877
   XY=              2.1285   XZ=             -1.2090   YZ=             -0.1336

  Exact polarizability:  94.821   2.322  71.327   0.526  -0.628  64.068
 Approx polarizability: 117.970   1.379 110.657   2.314   2.032  99.445

                      1                      2                      3
                      A                      A                      A
 Frequencies --    100.9731               152.2427               192.9649
 Red. masses --      4.4669                 3.4690                 1.3949
 Frc consts  --      0.0268                 0.0474                 0.0306
 IR Inten    --      0.3842                 1.8664                 0.8098

                      4                      5                      6
                      A                      A                      A
 Frequencies --    232.4153               257.5838               296.0715
 Red. masses --      1.8101                 3.4612                 3.1305
 Frc consts  --      0.0576                 0.1353                 0.1617
 IR Inten    --      1.7879                 2.2879                 2.5297

                      7                      8                      9
                      A                      A                      A
 Frequencies --    347.0266               394.3408               446.1692
 Red. masses --      2.7118                 1.4501                 1.6349
 Frc consts  --      0.1924                 0.1329                 0.1918
 IR Inten    --      7.3190                39.7406                 8.0600

                     10                     11                     12
                      A                      A                      A
 Frequencies --    472.8921               590.5517               638.1149
 Red. masses --      3.5847                 4.0662                 3.7783
 Frc consts  --      0.4723                 0.8355                 0.9065
 IR Inten    --      9.8540                 8.9746                 4.8951

                     13                     14                     15
                      A                      A                      A
 Frequencies --    781.1387               808.3766               847.9321
 Red. masses --      1.6107                 2.2013                 1.7006
 Frc consts  --      0.5791                 0.8475                 0.7204
 IR Inten    --     11.9881                 8.5843                 7.9054

                     16                     17                     18
                      A                      A                      A
 Frequencies --    857.4567               873.8119               900.3931
 Red. masses --      2.3297                 2.3756                 2.2508
 Frc consts  --      1.0092                 1.0687                 1.0751
 IR Inten    --     15.4866                 3.9245                23.4544

                     19                     20                     21
                      A                      A                      A
 Frequencies --    953.4410               993.8865              1014.6691
 Red. masses --      2.6294                 2.5647                 2.4218
 Frc consts  --      1.4083                 1.4927                 1.4691
 IR Inten    --     18.5565                18.5407                48.9039

                     22                     23                     24
                      A                      A                      A
 Frequencies --   1020.7398              1023.9758              1043.5466
 Red. masses --      1.6896                 1.3544                 1.8024
 Frc consts  --      1.0372                 0.8367                 1.1564
 IR Inten    --     12.9276                17.7476                49.0960

                     25                     26                     27
                      A                      A                      A
 Frequencies --   1067.6198              1094.1027              1112.6363
 Red. masses --      1.8525                 1.4511                 2.0883
 Frc consts  --      1.2441                 1.0234                 1.5232
 IR Inten    --      5.9633                 9.1818                 0.7801

                     28                     29                     30
                      A                      A                      A
 Frequencies --   1144.2680              1157.4355              1174.9454
 Red. masses --      1.6303                 2.8061                 1.7612
 Frc consts  --      1.2577                 2.2149                 1.4325
 IR Inten    --     11.6999                80.6010                11.0985

                     31                     32                     33
                      A                      A                      A
 Frequencies --   1205.0088              1244.4290              1288.1274
 Red. masses --      2.0889                 1.8646                 1.4645
 Frc consts  --      1.7871                 1.7013                 1.4317
 IR Inten    --     12.7434                 4.0061                13.3619

                     34                     35                     36
                      A                      A                      A
 Frequencies --   1315.9255              1390.0472              1413.9127
 Red. masses --      1.5219                 1.4882                 1.9965
 Frc consts  --      1.5528                 1.6943                 2.3517
 IR Inten    --      0.8899                68.6716                 4.4104

                     37                     38                     39
                      A                      A                      A
 Frequencies --   1415.4579              1417.7822              1491.2888
 Red. masses --      1.2042                 1.3506                 2.5575
 Frc consts  --      1.4215                 1.5995                 3.3511
 IR Inten    --     18.5676                14.9317                44.8507

                     40                     41                     42
                      A                      A                      A
 Frequencies --   1493.2032              1502.6988              3030.2063
 Red. masses --      1.0688                 1.0720                 1.0351
 Frc consts  --      1.4041                 1.4262                 5.5998
 IR Inten    --      0.8049                 5.3630                32.5395

                     43                     44                     45
                      A                      A                      A
 Frequencies --   3094.3377              3098.8197              3125.4774
 Red. masses --      1.0996                 1.1018                 1.0570
 Frc consts  --      6.2034                 6.2337                 6.0837
 IR Inten    --     16.0890                20.1856                 4.4137

                     46                     47                     48
                      A                      A                      A
 Frequencies --   3130.1460              3130.3860              3181.2906
 Red. masses --      1.0885                 1.0867                 1.0907
 Frc consts  --      6.2836                 6.2743                 6.5040
 IR Inten    --     32.3853                 9.8693                17.8621

                     49                     50                     51
                      A                      A                      A
 Frequencies --   3200.6513              3221.5792              3727.5544
 Red. masses --      1.0971                 1.1167                 1.0655
 Frc consts  --      6.6217                 6.8286                 8.7224
 IR Inten    --      9.6629                 3.9004                46.7629

 - Thermochemistry -
 -------------------
 Temperature   298.150 Kelvin.  Pressure   1.00000 Atm.
 Atom     1 has atomic number  6 and mass  12.00000

 Molecular mass:   126.06808 amu.
 Principal axes and moments of inertia in atomic units:
                           1         2         3
     Eigenvalues --   390.662791762.828751899.31300
           X            0.99996   0.00537  -0.00742
           Y           -0.00565   0.99923  -0.03872
           Z            0.00720   0.03876   0.99922
 This molecule is an asymmetric top.
 Rotational symmetry number  1.
 Rotational temperatures (Kelvin)      0.22171     0.04913     0.04560
 Rotational constants (GHZ):           4.61969     1.02378     0.95021
 Zero-point vibrational energy     413369.9 (Joules/Mol)
                                   98.79778 (Kcal/Mol)
 Warning -- explicit consideration of  11 degrees of freedom as
           vibrations may cause significant error
 Vibrational temperatures:    145.28   219.04   277.63   334.39   370.61
          (Kelvin)            425.98   499.29   567.37   641.94   680.39
                              849.67   918.10  1123.88  1163.07  1219.98
                             1233.69  1257.22  1295.46  1371.79  1429.98
                             1459.88  1468.62  1473.27  1501.43  1536.06
                             1574.17  1600.83  1646.34  1665.29  1690.48
                             1733.74  1790.45  1853.33  1893.32  1999.97
                             2034.30  2036.53  2039.87  2145.63  2148.38
                             2162.05  4359.79  4452.06  4458.50  4496.86
                             4503.58  4503.92  4577.16  4605.02  4635.13
                             5363.11

 Zero-point correction=                           0.157444 (Hartree/Particle)
 Thermal correction to Energy=                    0.165982
 Thermal correction to Enthalpy=                  0.166926
 Thermal correction to Gibbs Free Energy=         0.124612
 Sum of electronic and zero-point Energies=           -422.957733
 Sum of electronic and thermal Energies=              -422.949195
 Sum of electronic and thermal Enthalpies=            -422.948251
 Sum of electronic and thermal Free Energies=         -422.990565

                     E (Thermal)             CV                S
                      KCal/Mol        Cal/Mol-Kelvin    Cal/Mol-Kelvin
 Total                  104.155             33.213             89.057
 Electronic               0.000              0.000              0.000
 Translational            0.889              2.981             40.409
 Rotational               0.889              2.981             28.660
 Vibrational            102.378             27.251             19.988
 Vibration     1          0.604              1.948              3.435
 Vibration     2          0.619              1.900              2.644
 Vibration     3          0.635              1.850              2.199
 Vibration     4          0.653              1.791              1.860
 Vibration     5          0.667              1.750              1.678
 Vibration     6          0.690              1.681              1.439
 Vibration     7          0.725              1.581              1.180
 Vibration     8          0.761              1.482              0.984
 Vibration     9          0.805              1.369              0.807
 Vibration    10          0.830              1.310              0.729
 Vibration    11          0.948              1.052              0.466

 Optimization completed.
    -- Stationary point found.
 Normal termination of Gaussian 09 at Tue Jan 28 02:38:34 2020.
