 Gaussian 09, Revision D.01,
 Gaussian 09:  ES64L-G09RevD.01 24-Apr-2013

 -----------------------------
 # b3lyp 6-31G(2df,p) opt Freq
 -----------------------------

 -----
 titel
 -----
 Symbolic Z-matrix:
 Charge =  0 Multiplicity = 1

 SCF Done:  E(RB3LYP) =  -423.225675852     A.U. after   14 cycles
 Optimization completed.
    -- Stationary point found.
 Normal termination of Gaussian 09 at Mon Jan 27 22:03:17 2020.

 ----------------------------------------------------------------------
 #N Geom=AllCheck Guess=TCheck SCRF=Check GenChk RB3LYP/6-31G(2df,p) Fr
 eq
 ----------------------------------------------------------------------

 Structure from the checkpoint file:  "/scratch/puck/g09_b8773617-76e8-47ac-b9a9-900d56f46459/Gau-181016.chk"
 -----
 titel
 -----
 Charge =  0 Multiplicity = 1

                         Standard orientation:
 ---------------------------------------------------------------------
 Center     Atomic      Atomic             Coordinates (Angstroms)
 Number     Number       Type             X           Y           Z
 ---------------------------------------------------------------------
      1          6           0        2.600504   -0.780335   -0.411642
      2          6           0        1.374283   -0.060724    0.072534
      3          6           0        1.184773    1.251511   -0.062819
      4          6           0       -0.086600    1.916025    0.400064
      5          6           0       -1.311919    1.446647   -0.382891
      6          8           0       -1.757861    0.090123   -0.209453
      7          6           0       -1.027897   -1.020823    0.052182
      8          8           0       -1.514135   -2.090123   -0.201750
      9          6           0        0.316853   -0.901783    0.765832
     10          1           0        3.115224   -1.284080    0.416592
     11          1           0        2.337414   -1.562721   -1.134551
     12          1           0        3.307046   -0.095998   -0.888281
     13          1           0        1.940401    1.865397   -0.545248
     14          1           0       -0.253513    1.755981    1.474632
     15          1           0       -0.025964    3.000256    0.258546
     16          1           0       -2.185133    2.044491   -0.104066
     17          1           0       -1.132373    1.591632   -1.455376
     18          1           0        0.114437   -0.490027    1.764528
     19          1           0        0.658442   -1.928032    0.903286
 ---------------------------------------------------------------------

 SCF Done:  E(RB3LYP) =  -423.225675852     A.U. after    1 cycles

 The electronic state is 1-A.
 Alpha  occ. eigenvalues --  -19.17083 -19.11330 -10.30401 -10.25072 -10.20363
 Alpha  occ. eigenvalues --  -10.20253 -10.20153 -10.18978 -10.18679  -1.08643
 Alpha  occ. eigenvalues --   -1.00667  -0.83618  -0.78471  -0.72503  -0.70086
 Alpha  occ. eigenvalues --   -0.64771  -0.54903  -0.54133  -0.50276  -0.49444
 Alpha  occ. eigenvalues --   -0.47716  -0.44183  -0.43050  -0.42084  -0.41490
 Alpha  occ. eigenvalues --   -0.40380  -0.39239  -0.38442  -0.36756  -0.33624
 Alpha  occ. eigenvalues --   -0.32473  -0.28971  -0.27037  -0.23844
 Alpha virt. eigenvalues --    0.00251   0.01958   0.08330   0.10056   0.10495
 Alpha virt. eigenvalues --    0.12409   0.13731   0.14641   0.14969   0.16137
 Alpha virt. eigenvalues --    0.16422   0.19200   0.19475   0.20416   0.23473

 Mulliken charges:
               1
     1  C   -0.479479
     2  C    0.320506
     3  C   -0.165157
     4  C   -0.280833
     5  C   -0.040280
     6  O   -0.234465
     7  C    0.398839
     8  O   -0.308095
     9  C   -0.422928
    10  H    0.129592
    11  H    0.138046
    12  H    0.123781
    13  H    0.088545
    14  H    0.116798
    15  H    0.111599
    16  H    0.119215
    17  H    0.117405
    18  H    0.134727
    19  H    0.132185
 Sum of Mulliken charges =   0.00000

 Dipole moment (field-independent basis, Debye):
    X=              2.6067    Y=              3.2143    Z=              0.7378  Tot=              4.2037
 Quadrupole moment (field-independent basis, Debye-Ang):
   XX=            -56.6697   YY=            -55.0203   ZZ=            -51.8909
   XY=             -7.2240   XZ=             -1.7414   YZ=             -1.9620

  Exact polarizability:  80.376  -4.573  95.949  -1.674  -1.830  58.304
 Approx polarizability: 106.179  -2.639 150.812  -1.362  -2.315  89.946

                      1                      2                      3
                      A                      A                      A
 Frequencies --     69.2982                72.9202               146.9967
 Red. masses --      5.2625                 3.7129                 2.3831
 Frc consts  --      0.0149                 0.0116                 0.0303
 IR Inten    --      1.7216                 3.5366                 2.3016

                      4                      5                      6
                      A                      A                      A
 Frequencies --    214.4187               293.3912               302.6294
 Red. masses --      1.0567                 2.8665                 2.9605
 Frc consts  --      0.0286                 0.1454                 0.1598
 IR Inten    --      0.2334                 0.3313                 1.2235

                      7                      8                      9
                      A                      A                      A
 Frequencies --    350.6422               386.1605               476.0841
 Red. masses --      2.2775                 3.2876                 3.8986
 Frc consts  --      0.1650                 0.2888                 0.5206
 IR Inten    --      0.7952                 2.3157                 2.8005

                     10                     11                     12
                      A                      A                      A
 Frequencies --    496.6143               565.9133               588.3977
 Red. masses --      2.6202                 4.0229                 2.0372
 Frc consts  --      0.3807                 0.7591                 0.4156
 IR Inten    --      1.1032                13.8221                 0.7954

                     13                     14                     15
                      A                      A                      A
 Frequencies --    648.8127               791.8515               833.6466
 Red. masses --      4.8217                 3.9174                 2.1099
 Frc consts  --      1.1959                 1.4472                 0.8639
 IR Inten    --      1.7873                14.0178                 5.9811

                     16                     17                     18
                      A                      A                      A
 Frequencies --    850.2605               897.9089               949.9390
 Red. masses --      1.5495                 2.8648                 2.0703
 Frc consts  --      0.6600                 1.3609                 1.1007
 IR Inten    --     12.2901                 5.2125                 2.8952

                     19                     20                     21
                      A                      A                      A
 Frequencies --    958.7286              1010.8388              1055.6750
 Red. masses --      2.2671                 1.6953                 2.2773
 Frc consts  --      1.2278                 1.0206                 1.4953
 IR Inten    --      9.0916                 5.0128                25.5282

                     22                     23                     24
                      A                      A                      A
 Frequencies --   1067.3770              1083.2564              1117.2694
 Red. masses --      1.5809                 2.1817                 3.5937
 Frc consts  --      1.0612                 1.5084                 2.6431
 IR Inten    --      1.2543                 1.6967                44.0395

                     25                     26                     27
                      A                      A                      A
 Frequencies --   1146.4102              1210.6802              1228.8845
 Red. masses --      1.6259                 2.4229                 1.4547
 Frc consts  --      1.2590                 2.0924                 1.2943
 IR Inten    --     48.2453               103.5637                36.2772

                     28                     29                     30
                      A                      A                      A
 Frequencies --   1262.8093              1302.2628              1322.2548
 Red. masses --      1.4973                 1.2635                 1.2643
 Frc consts  --      1.4068                 1.2625                 1.3023
 IR Inten    --     54.8584                37.6839                 2.2493

                     31                     32                     33
                      A                      A                      A
 Frequencies --   1358.2186              1369.5979              1414.1186
 Red. masses --      1.5054                 1.6206                 1.2733
 Frc consts  --      1.6363                 1.7911                 1.5003
 IR Inten    --     19.5608                 1.4909                 1.3883

                     34                     35                     36
                      A                      A                      A
 Frequencies --   1440.3744              1461.8342              1477.6419
 Red. masses --      1.3499                 1.0916                 1.0461
 Frc consts  --      1.6500                 1.3744                 1.3457
 IR Inten    --     21.4300                 4.3009                 8.0511

                     37                     38                     39
                      A                      A                      A
 Frequencies --   1481.7429              1490.2728              1506.4841
 Red. masses --      1.0940                 1.0593                 1.0986
 Frc consts  --      1.4152                 1.3861                 1.4691
 IR Inten    --      9.8607                 3.7230                 6.6502

                     40                     41                     42
                      A                      A                      A
 Frequencies --   1743.9124              1826.5098              3008.7114
 Red. masses --      7.1551                11.7392                 1.0680
 Frc consts  --     12.8207                23.0745                 5.6963
 IR Inten    --      9.2358               324.0127                24.7980

                     43                     44                     45
                      A                      A                      A
 Frequencies --   3016.0517              3018.6424              3029.2342
 Red. masses --      1.0635                 1.0437                 1.0608
 Frc consts  --      5.7001                 5.6036                 5.7353
 IR Inten    --      7.1266                19.3674                38.9521

                     46                     47                     48
                      A                      A                      A
 Frequencies --   3066.2705              3075.4276              3083.0812
 Red. masses --      1.0986                 1.0944                 1.1030
 Frc consts  --      6.0855                 6.0985                 6.1773
 IR Inten    --     15.2080                23.8421                38.8029

                     49                     50                     51
                      A                      A                      A
 Frequencies --   3115.0737              3127.4969              3163.4394
 Red. masses --      1.0995                 1.0923                 1.0906
 Frc consts  --      6.2864                 6.2951                 6.4301
 IR Inten    --     15.6867                 9.2061                17.0043

 - Thermochemistry -
 -------------------
 Temperature   298.150 Kelvin.  Pressure   1.00000 Atm.
 Atom     1 has atomic number  6 and mass  12.00000

 Molecular mass:   126.06808 amu.
 Principal axes and moments of inertia in atomic units:
                           1         2         3
     Eigenvalues --   859.768961089.673991769.95166
           X            0.98150  -0.19110  -0.01152
           Y            0.19103   0.98156  -0.00667
           Z            0.01258   0.00434   0.99991
 This molecule is an asymmetric top.
 Rotational symmetry number  1.
 Warning -- assumption of classical behavior for rotation
           may cause significant error
 Rotational temperatures (Kelvin)      0.10074     0.07949     0.04894
 Rotational constants (GHZ):           2.09910     1.65622     1.01966
 Zero-point vibrational energy     418552.2 (Joules/Mol)
                                  100.03638 (Kcal/Mol)
 Warning -- explicit consideration of  12 degrees of freedom as
           vibrations may cause significant error
 Vibrational temperatures:     99.70   104.92   211.50   308.50   422.12
          (Kelvin)            435.42   504.50   555.60   684.98   714.52
                              814.22   846.57   933.50  1139.30  1199.43
                             1223.33  1291.89  1366.75  1379.39  1454.37
                             1518.88  1535.72  1558.56  1607.50  1649.43
                             1741.90  1768.09  1816.90  1873.66  1902.43
                             1954.17  1970.54  2034.60  2072.37  2103.25
                             2125.99  2131.89  2144.17  2167.49  2509.10
                             2627.94  4328.86  4339.42  4343.15  4358.39
                             4411.67  4424.85  4435.86  4481.89  4499.76
                             4551.48

 Zero-point correction=                           0.159418 (Hartree/Particle)
 Thermal correction to Energy=                    0.168146
 Thermal correction to Enthalpy=                  0.169091
 Thermal correction to Gibbs Free Energy=         0.125525
 Sum of electronic and zero-point Energies=           -423.066258
 Sum of electronic and thermal Energies=              -423.057529
 Sum of electronic and thermal Enthalpies=            -423.056585
 Sum of electronic and thermal Free Energies=         -423.100151

                     E (Thermal)             CV                S
                      KCal/Mol        Cal/Mol-Kelvin    Cal/Mol-Kelvin
 Total                  105.514             32.418             91.692
 Electronic               0.000              0.000              0.000
 Translational            0.889              2.981             40.409
 Rotational               0.889              2.981             28.896
 Vibrational            103.736             26.456             22.387
 Vibration     1          0.598              1.969              4.173
 Vibration     2          0.599              1.967              4.073
 Vibration     3          0.617              1.906              2.711
 Vibration     4          0.644              1.819              2.006
 Vibration     5          0.688              1.686              1.454
 Vibration     6          0.694              1.669              1.402
 Vibration     7          0.728              1.574              1.163
 Vibration     8          0.755              1.500              1.015
 Vibration     9          0.833              1.303              0.721
 Vibration    10          0.852              1.258              0.667
 Vibration    11          0.922              1.105              0.512
 Vibration    12          0.946              1.057              0.470

 Optimization completed.
    -- Stationary point found.
 Normal termination of Gaussian 09 at Mon Jan 27 22:46:45 2020.
