 Gaussian 09, Revision D.01,
 Gaussian 09:  ES64L-G09RevD.01 24-Apr-2013

 -----------------------------
 # b3lyp 6-31G(2df,p) opt Freq
 -----------------------------

 -----
 titel
 -----
 Symbolic Z-matrix:
 Charge =  0 Multiplicity = 1

 SCF Done:  E(RB3LYP) =  -423.206118900     A.U. after   14 cycles
 Optimization completed.
    -- Stationary point found.
 Normal termination of Gaussian 09 at Mon Jan 27 13:06:21 2020.

 ----------------------------------------------------------------------
 #N Geom=AllCheck Guess=TCheck SCRF=Check GenChk RB3LYP/6-31G(2df,p) Fr
 eq
 ----------------------------------------------------------------------

 Structure from the checkpoint file:  "/scratch/puck/g09_2fd300c5-08fc-43f1-b725-70fec6f17d95/Gau-47870.chk"
 -----
 titel
 -----
 Charge =  0 Multiplicity = 1

                         Standard orientation:
 ---------------------------------------------------------------------
 Center     Atomic      Atomic             Coordinates (Angstroms)
 Number     Number       Type             X           Y           Z
 ---------------------------------------------------------------------
      1          8           0        2.856447   -0.831690   -0.195665
      2          6           0        1.790124   -0.303515   -0.022795
      3          6           0        1.465667    1.177745   -0.256787
      4          6           0        0.100548    1.385743    0.414767
      5          6           0       -0.601810    0.027139    0.251281
      6          6           0       -1.988068   -0.181743    0.895354
      7          6           0       -2.498177   -0.295519   -0.553871
      8          8           0       -1.170497   -0.107235   -1.085083
      9          6           0        0.513676   -0.992704    0.480204
     10          1           0        2.271372    1.821023    0.103036
     11          1           0        1.387956    1.322479   -1.341465
     12          1           0        0.224407    1.600010    1.483721
     13          1           0       -0.491764    2.191012   -0.025406
     14          1           0       -2.085594   -1.085581    1.499469
     15          1           0       -2.364217    0.671776    1.463145
     16          1           0       -2.917342   -1.267964   -0.838097
     17          1           0       -3.185860    0.493704   -0.880528
     18          1           0        0.640150   -1.190193    1.553225
     19          1           0        0.341535   -1.947744   -0.020036
 ---------------------------------------------------------------------

 SCF Done:  E(RB3LYP) =  -423.206118900     A.U. after    1 cycles

 The electronic state is 1-A.
 Alpha  occ. eigenvalues --  -19.13402 -19.12653 -10.26676 -10.24716 -10.23571
 Alpha  occ. eigenvalues --  -10.19515 -10.19163 -10.18997 -10.18895  -1.04180
 Alpha  occ. eigenvalues --   -1.03671  -0.83382  -0.75031  -0.72703  -0.68603
 Alpha  occ. eigenvalues --   -0.62448  -0.54019  -0.53439  -0.49394  -0.49340
 Alpha  occ. eigenvalues --   -0.47818  -0.44322  -0.43689  -0.42558  -0.40451
 Alpha  occ. eigenvalues --   -0.39136  -0.37476  -0.37166  -0.36175  -0.33997
 Alpha  occ. eigenvalues --   -0.32671  -0.30834  -0.25348  -0.23487
 Alpha virt. eigenvalues --   -0.01450   0.07268   0.09086   0.10248   0.10960
 Alpha virt. eigenvalues --    0.12571   0.14272   0.14974   0.15626   0.16383
 Alpha virt. eigenvalues --    0.17631   0.18392   0.20093   0.20327   0.22791

 Mulliken charges:
               1
     1  O   -0.311947
     2  C    0.406134
     3  C   -0.318773
     4  C   -0.272907
     5  C    0.442077
     6  C   -0.363761
     7  C   -0.067108
     8  O   -0.325997
     9  C   -0.375452
    10  H    0.125962
    11  H    0.147787
    12  H    0.104462
    13  H    0.110079
    14  H    0.112608
    15  H    0.111212
    16  H    0.106337
    17  H    0.104824
    18  H    0.129245
    19  H    0.135219
 Sum of Mulliken charges =   0.00000

 Dipole moment (field-independent basis, Debye):
    X=             -3.0260    Y=              1.1979    Z=              1.8808  Tot=              3.7589
 Quadrupole moment (field-independent basis, Debye-Ang):
   XX=            -59.5590   YY=            -51.6381   ZZ=            -53.3669
   XY=              4.7052   XZ=              0.1300   YZ=             -0.7061

  Exact polarizability:  89.032   0.387  72.334  -0.163  -0.784  63.530
 Approx polarizability: 118.198  -4.208 104.549  -1.223  -0.444  99.288

                      1                      2                      3
                      A                      A                      A
 Frequencies --     59.5986                75.3436               135.2741
 Red. masses --      2.8323                 3.3968                 2.3862
 Frc consts  --      0.0059                 0.0114                 0.0257
 IR Inten    --      1.4527                 3.0079                 3.4185

                      4                      5                      6
                      A                      A                      A
 Frequencies --    245.8053               355.5803               388.3239
 Red. masses --      2.3887                 2.2214                 3.1697
 Frc consts  --      0.0850                 0.1655                 0.2816
 IR Inten    --      0.1610                 1.7386                 6.1974

                      7                      8                      9
                      A                      A                      A
 Frequencies --    441.9396               466.2260               496.9026
 Red. masses --      3.7737                 2.1104                 3.8263
 Frc consts  --      0.4343                 0.2703                 0.5566
 IR Inten    --      1.7567                 1.3450                 4.6035

                     10                     11                     12
                      A                      A                      A
 Frequencies --    589.3250               700.8694               748.8469
 Red. masses --      3.0410                 1.9925                 3.5293
 Frc consts  --      0.6223                 0.5767                 1.1661
 IR Inten    --      6.6071                 0.5071                 5.4493

                     13                     14                     15
                      A                      A                      A
 Frequencies --    784.5091               807.0257               862.2289
 Red. masses --      1.1557                 2.6407                 4.5651
 Frc consts  --      0.4191                 1.0133                 1.9996
 IR Inten    --      0.1814                 2.8511                16.1595

                     16                     17                     18
                      A                      A                      A
 Frequencies --    869.4124               928.8070               958.5769
 Red. masses --      2.4848                 1.6651                 1.8198
 Frc consts  --      1.1066                 0.8463                 0.9852
 IR Inten    --      3.9943                 1.8343                22.8653

                     19                     20                     21
                      A                      A                      A
 Frequencies --    983.3605               984.2593              1002.2936
 Red. masses --      1.6771                 2.5444                 1.7219
 Frc consts  --      0.9555                 1.4523                 1.0192
 IR Inten    --      1.9364                13.4639                 1.5889

                     22                     23                     24
                      A                      A                      A
 Frequencies --   1023.1720              1105.1166              1154.0282
 Red. masses --      7.5747                 3.4645                 1.6292
 Frc consts  --      4.6721                 2.4929                 1.2784
 IR Inten    --    108.9059                42.0870                 1.6357

                     25                     26                     27
                      A                      A                      A
 Frequencies --   1165.5934              1173.2157              1195.6571
 Red. masses --      1.2599                 2.0928                 1.7252
 Frc consts  --      1.0085                 1.6972                 1.4531
 IR Inten    --      3.4778                35.7132                 7.8336

                     28                     29                     30
                      A                      A                      A
 Frequencies --   1208.1904              1220.6426              1257.3287
 Red. masses --      1.4413                 1.4996                 1.4817
 Frc consts  --      1.2396                 1.3165                 1.3801
 IR Inten    --      7.3561                 3.0646                 0.2455

                     31                     32                     33
                      A                      A                      A
 Frequencies --   1273.6420              1291.0825              1298.8937
 Red. masses --      1.8406                 1.9646                 1.2902
 Frc consts  --      1.7592                 1.9295                 1.2825
 IR Inten    --     23.6494                 8.3351                 9.4374

                     34                     35                     36
                      A                      A                      A
 Frequencies --   1341.2923              1361.8873              1426.3905
 Red. masses --      1.7057                 1.6269                 1.1034
 Frc consts  --      1.8080                 1.7778                 1.3227
 IR Inten    --      7.9907                 6.1937                10.7162

                     37                     38                     39
                      A                      A                      A
 Frequencies --   1446.5610              1481.6133              1489.3300
 Red. masses --      1.0821                 1.1001                 1.1072
 Frc consts  --      1.3341                 1.4228                 1.4470
 IR Inten    --      7.7409                 3.4067                 4.3168

                     40                     41                     42
                      A                      A                      A
 Frequencies --   1532.0856              1852.2919              3019.8764
 Red. masses --      1.1081                12.7045                 1.0553
 Frc consts  --      1.5324                25.6818                 5.6701
 IR Inten    --      1.0646               232.0154                88.9574

                     43                     44                     45
                      A                      A                      A
 Frequencies --   3031.3502              3036.6840              3047.1914
 Red. masses --      1.0673                 1.0675                 1.0645
 Frc consts  --      5.7786                 5.7998                 5.8238
 IR Inten    --      6.9766                12.8402                 9.7049

                     46                     47                     48
                      A                      A                      A
 Frequencies --   3058.5405              3073.7716              3106.1036
 Red. masses --      1.1114                 1.0594                 1.0967
 Frc consts  --      6.1255                 5.8973                 6.2341
 IR Inten    --     30.7863                25.7905                14.6432

                     49                     50                     51
                      A                      A                      A
 Frequencies --   3116.1019              3119.1114              3128.2274
 Red. masses --      1.0984                 1.0948                 1.1087
 Frc consts  --      6.2839                 6.2752                 6.3924
 IR Inten    --     13.6403                 3.9142                21.3066

 - Thermochemistry -
 -------------------
 Temperature   298.150 Kelvin.  Pressure   1.00000 Atm.
 Atom     1 has atomic number  8 and mass  15.99491

 Molecular mass:   126.06808 amu.
 Principal axes and moments of inertia in atomic units:
                           1         2         3
     Eigenvalues --   492.278941552.193361677.29588
           X            0.99975   0.02151  -0.00589
           Y           -0.02168   0.99931  -0.03020
           Z            0.00523   0.03032   0.99953
 This molecule is an asymmetric top.
 Rotational symmetry number  1.
 Warning -- assumption of classical behavior for rotation
           may cause significant error
 Rotational temperatures (Kelvin)      0.17594     0.05580     0.05164
 Rotational constants (GHZ):           3.66609     1.16270     1.07598
 Zero-point vibrational energy     418211.4 (Joules/Mol)
                                   99.95492 (Kcal/Mol)
 Warning -- explicit consideration of  10 degrees of freedom as
           vibrations may cause significant error
 Vibrational temperatures:     85.75   108.40   194.63   353.66   511.60
          (Kelvin)            558.71   635.85   670.79   714.93   847.91
                             1008.39  1077.42  1128.73  1161.13  1240.55
                             1250.89  1336.34  1379.18  1414.83  1416.13
                             1442.08  1472.11  1590.01  1660.39  1677.03
                             1687.99  1720.28  1738.31  1756.23  1809.01
                             1832.48  1857.58  1868.82  1929.82  1959.45
                             2052.26  2081.28  2131.71  2142.81  2204.33
                             2665.03  4344.92  4361.43  4369.11  4384.22
                             4400.55  4422.47  4468.98  4483.37  4487.70
                             4500.82

 Zero-point correction=                           0.159288 (Hartree/Particle)
 Thermal correction to Energy=                    0.167426
 Thermal correction to Enthalpy=                  0.168370
 Thermal correction to Gibbs Free Energy=         0.125856
 Sum of electronic and zero-point Energies=           -423.046831
 Sum of electronic and thermal Energies=              -423.038693
 Sum of electronic and thermal Enthalpies=            -423.037749
 Sum of electronic and thermal Free Energies=         -423.080263

                     E (Thermal)             CV                S
                      KCal/Mol        Cal/Mol-Kelvin    Cal/Mol-Kelvin
 Total                  105.061             30.925             89.478
 Electronic               0.000              0.000              0.000
 Translational            0.889              2.981             40.409
 Rotational               0.889              2.981             28.640
 Vibrational            103.284             24.963             20.430
 Vibration     1          0.597              1.974              4.470
 Vibration     2          0.599              1.965              4.009
 Vibration     3          0.613              1.918              2.870
 Vibration     4          0.660              1.770              1.760
 Vibration     5          0.731              1.564              1.141
 Vibration     6          0.756              1.495              1.007
 Vibration     7          0.802              1.379              0.821
 Vibration     8          0.824              1.325              0.748
 Vibration     9          0.852              1.257              0.666
 Vibration    10          0.947              1.055              0.468

 Normal termination of Gaussian 09 at Mon Jan 27 13:49:54 2020.
