 Gaussian 09, Revision D.01,
 Gaussian 09:  ES64L-G09RevD.01 24-Apr-2013

 -----------------------------
 # b3lyp 6-31G(2df,p) opt Freq
 -----------------------------

 -----
 titel
 -----
 Symbolic Z-matrix:
 Charge =  0 Multiplicity = 1

 SCF Done:  E(RB3LYP) =  -423.152837067     A.U. after   14 cycles
 Optimization completed.
    -- Stationary point found.
 Normal termination of Gaussian 09 at Mon Jan 27 15:59:24 2020.

 ----------------------------------------------------------------------
 #N Geom=AllCheck Guess=TCheck SCRF=Check GenChk RB3LYP/6-31G(2df,p) Fr
 eq
 ----------------------------------------------------------------------

 Structure from the checkpoint file:  "/scratch/puck/g09_c5efcbcb-85d1-4eee-9ac3-48ce7574c516/Gau-10489.chk"
 -----
 titel
 -----
 Charge =  0 Multiplicity = 1

                         Standard orientation:
 ---------------------------------------------------------------------
 Center     Atomic      Atomic             Coordinates (Angstroms)
 Number     Number       Type             X           Y           Z
 ---------------------------------------------------------------------
      1          8           0        1.687347    1.755611    0.296364
      2          6           0        1.611334    0.470638   -0.299629
      3          6           0        0.457304   -0.390737    0.224873
      4          6           0       -0.921743    0.154360   -0.151936
      5          6           0       -2.068206   -0.734477    0.371804
      6          6           0       -3.387470   -0.220143    0.025840
      7          6           0       -4.461530    0.228836   -0.273460
      8          6           0        2.963599   -0.187474   -0.045904
      9          8           0        3.173885   -1.364886   -0.172428
     10          1           0        0.949908    2.285240   -0.018997
     11          1           0        1.522582    0.556004   -1.398608
     12          1           0        0.595665   -1.402236   -0.173217
     13          1           0        0.548699   -0.460925    1.315947
     14          1           0       -1.055982    1.164040    0.254947
     15          1           0       -1.008535    0.239629   -1.242213
     16          1           0       -1.952569   -1.749901   -0.029021
     17          1           0       -1.985847   -0.829075    1.462472
     18          1           0       -5.417493    0.612514   -0.530669
     19          1           0        3.753986    0.532889    0.258338
 ---------------------------------------------------------------------

 SCF Done:  E(RB3LYP) =  -423.152837067     A.U. after    1 cycles

 The electronic state is 1-A.
 Alpha  occ. eigenvalues --  -19.15461 -19.14800 -10.27451 -10.25014 -10.21485
 Alpha  occ. eigenvalues --  -10.20139 -10.19417 -10.18348 -10.17253  -1.05699
 Alpha  occ. eigenvalues --   -1.03598  -0.82213  -0.77308  -0.72698  -0.68129
 Alpha  occ. eigenvalues --   -0.61357  -0.56896  -0.53163  -0.52768  -0.48639
 Alpha  occ. eigenvalues --   -0.48157  -0.46955  -0.44652  -0.42520  -0.41040
 Alpha  occ. eigenvalues --   -0.39794  -0.37630  -0.36262  -0.35753  -0.34898
 Alpha  occ. eigenvalues --   -0.28790  -0.26846  -0.26625  -0.25605
 Alpha virt. eigenvalues --   -0.03112   0.04728   0.05569   0.06624   0.09752
 Alpha virt. eigenvalues --    0.10948   0.12640   0.12928   0.13613   0.15083
 Alpha virt. eigenvalues --    0.15761   0.18686   0.19960   0.21027   0.21595

 Mulliken charges:
               1
     1  O   -0.435822
     2  C    0.006636
     3  C   -0.186396
     4  C   -0.200828
     5  C   -0.355303
     6  C    0.289342
     7  C   -0.433148
     8  C    0.157815
     9  O   -0.247029
    10  H    0.295837
    11  H    0.097590
    12  H    0.123922
    13  H    0.109834
    14  H    0.103308
    15  H    0.111237
    16  H    0.135209
    17  H    0.134304
    18  H    0.195507
    19  H    0.097985
 Sum of Mulliken charges =   0.00000

 Dipole moment (field-independent basis, Debye):
    X=             -1.4222    Y=              1.6531    Z=             -0.6094  Tot=              2.2642
 Quadrupole moment (field-independent basis, Debye-Ang):
   XX=            -59.8396   YY=            -55.1109   ZZ=            -52.6921
   XY=              2.7313   XZ=             -0.0776   YZ=             -2.4897

  Exact polarizability: 108.425  -7.677  70.536   5.875  -1.248  57.536
 Approx polarizability: 135.711 -17.960 113.050  12.089  -1.390  90.040

                      1                      2                      3
                      A                      A                      A
 Frequencies --     45.1813                72.9011                94.2336
 Red. masses --      3.9749                 3.8336                 2.6580
 Frc consts  --      0.0048                 0.0120                 0.0139
 IR Inten    --      2.1511                 4.7182                 0.4231

                      4                      5                      6
                      A                      A                      A
 Frequencies --     94.5858               130.7326               173.5360
 Red. masses --      2.6989                 2.3944                 4.3879
 Frc consts  --      0.0142                 0.0241                 0.0779
 IR Inten    --      7.4604                 1.1195                 2.6892

                      7                      8                      9
                      A                      A                      A
 Frequencies --    230.6157               262.5085               319.3108
 Red. masses --      1.3075                 2.7842                 3.9286
 Frc consts  --      0.0410                 0.1130                 0.2360
 IR Inten    --    106.1958                20.5783                 2.1060

                     10                     11                     12
                      A                      A                      A
 Frequencies --    349.2799               425.7343               463.1894
 Red. masses --      3.1895                 3.6825                 2.7359
 Frc consts  --      0.2293                 0.3933                 0.3458
 IR Inten    --      3.3921                 5.9955                 5.5583

                     13                     14                     15
                      A                      A                      A
 Frequencies --    522.4824               611.5221               619.2104
 Red. masses --      5.5402                 4.3449                 1.2010
 Frc consts  --      0.8911                 0.9573                 0.2713
 IR Inten    --     10.4928                 7.3204                44.5710

                     16                     17                     18
                      A                      A                      A
 Frequencies --    641.1271               742.8651               829.8834
 Red. masses --      1.2207                 1.1307                 2.1546
 Frc consts  --      0.2956                 0.3676                 0.8743
 IR Inten    --     41.0343                 1.3479                 3.1604

                     19                     20                     21
                      A                      A                      A
 Frequencies --    845.0202               957.5348               980.3699
 Red. masses --      1.6745                 2.9273                 1.9525
 Frc consts  --      0.7045                 1.5813                 1.1057
 IR Inten    --      6.3208                 1.9772                13.6142

                     22                     23                     24
                      A                      A                      A
 Frequencies --    997.6164              1041.7228              1070.6653
 Red. masses --      3.0191                 2.7668                 2.7530
 Frc consts  --      1.7704                 1.7690                 1.8594
 IR Inten    --     52.3810                 5.9313                 3.8121

                     25                     26                     27
                      A                      A                      A
 Frequencies --   1117.4688              1130.0652              1188.2708
 Red. masses --      1.7978                 4.1459                 1.3462
 Frc consts  --      1.3227                 3.1194                 1.1199
 IR Inten    --      2.4863                42.9846                 3.8250

                     28                     29                     30
                      A                      A                      A
 Frequencies --   1219.8604              1251.1923              1294.6395
 Red. masses --      1.1456                 1.2657                 1.2609
 Frc consts  --      1.0044                 1.1674                 1.2452
 IR Inten    --     44.3949                15.8573                 1.4253

                     31                     32                     33
                      A                      A                      A
 Frequencies --   1323.6631              1327.1889              1362.4509
 Red. masses --      1.2995                 1.1128                 1.2492
 Frc consts  --      1.3415                 1.1549                 1.3663
 IR Inten    --     19.5873                 4.1834                 3.7222

                     34                     35                     36
                      A                      A                      A
 Frequencies --   1378.1665              1399.3712              1423.1514
 Red. masses --      1.4163                 1.4448                 1.4686
 Frc consts  --      1.5849                 1.6669                 1.7525
 IR Inten    --      9.9856                16.7841                 0.7819

                     37                     38                     39
                      A                      A                      A
 Frequencies --   1473.0424              1476.9894              1501.9588
 Red. masses --      1.0863                 1.0827                 1.0967
 Frc consts  --      1.3887                 1.3916                 1.4577
 IR Inten    --      0.4543                 2.3354                 2.5484

                     40                     41                     42
                      A                      A                      A
 Frequencies --   1839.1364              2239.6776              2905.2073
 Red. masses --     10.8819                 5.9299                 1.0851
 Frc consts  --     21.6863                17.5255                 5.3962
 IR Inten    --    128.1125                 3.2903               104.1357

                     43                     44                     45
                      A                      A                      A
 Frequencies --   2937.3666              3016.7765              3025.6237
 Red. masses --      1.0796                 1.0578                 1.0591
 Frc consts  --      5.4882                 5.6720                 5.7123
 IR Inten    --     31.1416                 3.4447                12.5565

                     46                     47                     48
                      A                      A                      A
 Frequencies --   3035.8544              3043.6936              3065.9235
 Red. masses --      1.0618                 1.0991                 1.1021
 Frc consts  --      5.7657                 5.9991                 6.1038
 IR Inten    --     36.8180                 0.7737                12.1930

                     49                     50                     51
                      A                      A                      A
 Frequencies --   3089.8790              3507.3806              3843.5530
 Red. masses --      1.1034                 1.1622                 1.0665
 Frc consts  --      6.2068                 8.4237                 9.2830
 IR Inten    --     37.6689                69.1380                24.3025

 - Thermochemistry -
 -------------------
 Temperature   298.150 Kelvin.  Pressure   1.00000 Atm.
 Atom     1 has atomic number  8 and mass  15.99491

 Molecular mass:   126.06808 amu.
 Principal axes and moments of inertia in atomic units:
                           1         2         3
     Eigenvalues --   428.136563055.411853381.86406
           X            0.99998   0.00563   0.00041
           Y           -0.00562   0.99961  -0.02746
           Z           -0.00056   0.02746   0.99962
 This molecule is an asymmetric top.
 Rotational symmetry number  1.
 Rotational temperatures (Kelvin)      0.20230     0.02835     0.02561
 Rotational constants (GHZ):           4.21534     0.59067     0.53365
 Zero-point vibrational energy     406367.7 (Joules/Mol)
                                   97.12422 (Kcal/Mol)
 Warning -- explicit consideration of  15 degrees of freedom as
           vibrations may cause significant error
 Vibrational temperatures:     65.01   104.89   135.58   136.09   188.09
          (Kelvin)            249.68   331.80   377.69   459.42   502.54
                              612.54   666.43   751.73   879.84   890.90
                              922.44  1068.82  1194.02  1215.79  1377.68
                             1410.53  1435.35  1498.80  1540.45  1607.79
                             1625.91  1709.65  1755.10  1800.18  1862.70
                             1904.45  1909.53  1960.26  1982.87  2013.38
                             2047.59  2119.38  2125.06  2160.98  2646.10
                             3222.39  4179.94  4226.21  4340.46  4353.19
                             4367.91  4379.19  4411.17  4445.64  5046.33
                             5530.01

 Zero-point correction=                           0.154777 (Hartree/Particle)
 Thermal correction to Energy=                    0.165529
 Thermal correction to Enthalpy=                  0.166473
 Thermal correction to Gibbs Free Energy=         0.117630
 Sum of electronic and zero-point Energies=           -422.998060
 Sum of electronic and thermal Energies=              -422.987308
 Sum of electronic and thermal Enthalpies=            -422.986364
 Sum of electronic and thermal Free Energies=         -423.035207

                     E (Thermal)             CV                S
                      KCal/Mol        Cal/Mol-Kelvin    Cal/Mol-Kelvin
 Total                  103.871             37.254            102.799
 Electronic               0.000              0.000              0.000
 Translational            0.889              2.981             40.409
 Rotational               0.889              2.981             29.871
 Vibrational            102.094             31.293             32.519
 Vibration     1          0.595              1.979              5.018
 Vibration     2          0.599              1.967              4.073
 Vibration     3          0.603              1.953              3.570
 Vibration     4          0.603              1.953              3.563
 Vibration     5          0.612              1.923              2.935
 Vibration     6          0.627              1.875              2.397
 Vibration     7          0.652              1.794              1.874
 Vibration     8          0.670              1.741              1.645
 Vibration     9          0.705              1.637              1.314
 Vibration    10          0.727              1.577              1.169
 Vibration    11          0.788              1.414              0.873
 Vibration    12          0.821              1.332              0.757
 Vibration    13          0.877              1.200              0.604
 Vibration    14          0.971              1.007              0.430
 Vibration    15          0.979              0.991              0.418

 Optimization completed.
    -- Stationary point found.
 Normal termination of Gaussian 09 at Mon Jan 27 17:28:06 2020.
