 Gaussian 09, Revision D.01,
 Gaussian 09:  ES64L-G09RevD.01 24-Apr-2013

 -----------------------------
 # b3lyp 6-31G(2df,p) opt Freq
 -----------------------------

 -----
 titel
 -----
 Symbolic Z-matrix:
 Charge =  0 Multiplicity = 1

 SCF Done:  E(RB3LYP) =  -423.196630350     A.U. after   14 cycles
 Optimization completed.
    -- Stationary point found.
 Normal termination of Gaussian 09 at Mon Jan 27 12:55:26 2020.

 ----------------------------------------------------------------------
 #N Geom=AllCheck Guess=TCheck SCRF=Check GenChk RB3LYP/6-31G(2df,p) Fr
 eq
 ----------------------------------------------------------------------

 Structure from the checkpoint file:  "/scratch/puck/g09_29c3b389-f5bb-4981-9bb4-b69e6dfd266b/Gau-167118.chk"
 -----
 titel
 -----
 Charge =  0 Multiplicity = 1

                         Standard orientation:
 ---------------------------------------------------------------------
 Center     Atomic      Atomic             Coordinates (Angstroms)
 Number     Number       Type             X           Y           Z
 ---------------------------------------------------------------------
      1          8           0        3.211614   -0.220312   -0.282192
      2          6           0        2.043420   -0.010945   -0.135805
      3          6           0        0.811086   -0.158230   -1.041302
      4          6           0       -0.081277    0.157100    0.207105
      5          6           0        1.189973    0.468103    1.051263
      6          6           0       -1.162825    1.230501    0.035893
      7          6           0       -2.385904    0.413679   -0.433586
      8          8           0       -2.115599   -0.956548   -0.115800
      9          6           0       -0.939164   -1.020426    0.672281
     10          1           0        0.782409    0.609111   -1.823014
     11          1           0        0.680326   -1.135186   -1.515301
     12          1           0        1.340560    1.530407    1.271913
     13          1           0        1.319298   -0.096080    1.980583
     14          1           0       -1.365721    1.709399    0.999871
     15          1           0       -0.881593    2.015203   -0.671172
     16          1           0       -3.309627    0.739254    0.061604
     17          1           0       -2.541501    0.484063   -1.516491
     18          1           0       -1.169576   -0.920853    1.747345
     19          1           0       -0.474565   -1.999129    0.513516
 ---------------------------------------------------------------------

 SCF Done:  E(RB3LYP) =  -423.196630350     A.U. after    1 cycles

 The electronic state is 1-A.
 Alpha  occ. eigenvalues --  -19.13939 -19.13909 -10.27353 -10.23225 -10.23218
 Alpha  occ. eigenvalues --  -10.21068 -10.19700 -10.19548 -10.19405  -1.04815
 Alpha  occ. eigenvalues --   -1.03667  -0.85916  -0.76125  -0.72320  -0.68960
 Alpha  occ. eigenvalues --   -0.60424  -0.56946  -0.53310  -0.50130  -0.49024
 Alpha  occ. eigenvalues --   -0.47525  -0.45675  -0.43428  -0.42848  -0.41805
 Alpha  occ. eigenvalues --   -0.40103  -0.38773  -0.36914  -0.34751  -0.33737
 Alpha  occ. eigenvalues --   -0.32281  -0.31296  -0.25296  -0.24508
 Alpha virt. eigenvalues --   -0.02382   0.06716   0.09114   0.10285   0.12252
 Alpha virt. eigenvalues --    0.13043   0.13352   0.15085   0.15705   0.16060
 Alpha virt. eigenvalues --    0.16440   0.18088   0.18773   0.21302   0.21971

 Mulliken charges:
               1
     1  O   -0.286965
     2  C    0.413992
     3  C   -0.401756
     4  C    0.330826
     5  C   -0.432679
     6  C   -0.319942
     7  C   -0.064948
     8  O   -0.258631
     9  C   -0.124215
    10  H    0.127584
    11  H    0.136373
    12  H    0.131582
    13  H    0.130456
    14  H    0.109799
    15  H    0.105814
    16  H    0.100924
    17  H    0.106856
    18  H    0.085640
    19  H    0.109289
 Sum of Mulliken charges =   0.00000

 Dipole moment (field-independent basis, Debye):
    X=             -1.8482    Y=              1.6957    Z=              0.6269  Tot=              2.5854
 Quadrupole moment (field-independent basis, Debye-Ang):
   XX=            -68.1165   YY=            -51.9702   ZZ=            -50.7718
   XY=             -2.3660   XZ=              1.1786   YZ=             -0.9980

  Exact polarizability:  87.736  -3.932  66.576   1.247   0.259  71.475
 Approx polarizability: 119.939  -5.138 100.581   0.739   1.262 106.955

                      1                      2                      3
                      A                      A                      A
 Frequencies --     32.6156                68.3991               135.2774
 Red. masses --      4.2814                 2.0691                 4.7231
 Frc consts  --      0.0027                 0.0057                 0.0509
 IR Inten    --      4.8054                 2.5613                 5.3275

                      4                      5                      6
                      A                      A                      A
 Frequencies --    249.5858               345.3545               369.8356
 Red. masses --      2.1550                 2.5904                 2.2910
 Frc consts  --      0.0791                 0.1820                 0.1846
 IR Inten    --      0.2354                 1.1282                 0.4231

                      7                      8                      9
                      A                      A                      A
 Frequencies --    396.7255               427.4164               509.6275
 Red. masses --      3.1953                 2.2319                 3.0736
 Frc consts  --      0.2963                 0.2402                 0.4703
 IR Inten    --      1.1237                 1.1510                 1.0293

                     10                     11                     12
                      A                      A                      A
 Frequencies --    658.7066               690.8719               701.6905
 Red. masses --      1.5639                 3.5852                 3.4083
 Frc consts  --      0.3998                 1.0082                 0.9887
 IR Inten    --      0.8960                 1.7940                 4.0446

                     13                     14                     15
                      A                      A                      A
 Frequencies --    746.4057               843.0056               878.9537
 Red. masses --      2.4370                 1.5403                 2.5793
 Frc consts  --      0.7999                 0.6449                 1.1740
 IR Inten    --      1.7411                 2.0719                 9.0361

                     16                     17                     18
                      A                      A                      A
 Frequencies --    909.5499               932.0246               938.3644
 Red. masses --      3.7028                 2.7488                 3.3041
 Frc consts  --      1.8048                 1.4069                 1.7141
 IR Inten    --      4.3751                 4.6563                 9.2082

                     19                     20                     21
                      A                      A                      A
 Frequencies --    983.5502               993.1162              1049.1004
 Red. masses --      1.5544                 1.7375                 1.2626
 Frc consts  --      0.8859                 1.0097                 0.8187
 IR Inten    --     12.5975                 6.2509                 3.9744

                     22                     23                     24
                      A                      A                      A
 Frequencies --   1069.6664              1091.9880              1125.6966
 Red. masses --      3.4211                 5.6136                 2.3598
 Frc consts  --      2.3063                 3.9439                 1.7618
 IR Inten    --     36.0544                98.0064                18.8650

                     25                     26                     27
                      A                      A                      A
 Frequencies --   1145.2026              1172.1608              1200.0854
 Red. masses --      2.6070                 1.8469                 1.4719
 Frc consts  --      2.0144                 1.4951                 1.2490
 IR Inten    --     10.6912                10.7511                 8.3946

                     28                     29                     30
                      A                      A                      A
 Frequencies --   1212.8949              1222.8928              1239.5595
 Red. masses --      1.4534                 1.1796                 1.4322
 Frc consts  --      1.2597                 1.0394                 1.2965
 IR Inten    --      2.3073                 1.3519                 2.1264

                     31                     32                     33
                      A                      A                      A
 Frequencies --   1280.5843              1307.4601              1311.6494
 Red. masses --      1.8418                 1.8000                 1.4204
 Frc consts  --      1.7796                 1.8129                 1.4398
 IR Inten    --      6.5566                 5.6135                 4.5599

                     34                     35                     36
                      A                      A                      A
 Frequencies --   1362.9465              1403.7563              1424.3463
 Red. masses --      1.3425                 1.4143                 1.0857
 Frc consts  --      1.4694                 1.6420                 1.2978
 IR Inten    --      0.7894                 6.6780                17.7339

                     37                     38                     39
                      A                      A                      A
 Frequencies --   1442.5488              1491.1207              1517.4404
 Red. masses --      1.1123                 1.0921                 1.0869
 Frc consts  --      1.3638                 1.4306                 1.4746
 IR Inten    --      0.6226                 3.0528                 0.6245

                     40                     41                     42
                      A                      A                      A
 Frequencies --   1533.5570              1896.3876              2951.8335
 Red. masses --      1.0940                12.7634                 1.0713
 Frc consts  --      1.5159                27.0440                 5.4997
 IR Inten    --      0.0953               295.2932                69.8344

                     43                     44                     45
                      A                      A                      A
 Frequencies --   3016.5515              3043.1661              3044.3226
 Red. masses --      1.0596                 1.0751                 1.0593
 Frc consts  --      5.6811                 5.8664                 5.7844
 IR Inten    --     70.0060                12.2118                11.8469

                     46                     47                     48
                      A                      A                      A
 Frequencies --   3049.5379              3054.7986              3070.1084
 Red. masses --      1.0650                 1.0880                 1.0918
 Frc consts  --      5.8356                 5.9822                 6.0631
 IR Inten    --      9.2252                39.0775                24.2335

                     49                     50                     51
                      A                      A                      A
 Frequencies --   3097.7165              3099.5478              3104.9265
 Red. masses --      1.1052                 1.1031                 1.1030
 Frc consts  --      6.2487                 6.2439                 6.2651
 IR Inten    --      8.6148                24.7997                 9.6658

 - Thermochemistry -
 -------------------
 Temperature   298.150 Kelvin.  Pressure   1.00000 Atm.
 Atom     1 has atomic number  8 and mass  15.99491

 Molecular mass:   126.06808 amu.
 Principal axes and moments of inertia in atomic units:
                           1         2         3
     Eigenvalues --   437.575091741.115541789.33079
           X            0.99991  -0.01127   0.00678
           Y            0.01156   0.99895  -0.04437
           Z           -0.00627   0.04445   0.99899
 This molecule is an asymmetric top.
 Rotational symmetry number  1.
 Warning -- assumption of classical behavior for rotation
           may cause significant error
 Rotational temperatures (Kelvin)      0.19794     0.04975     0.04841
 Rotational constants (GHZ):           4.12441     1.03654     1.00861
 Zero-point vibrational energy     417763.7 (Joules/Mol)
                                   99.84791 (Kcal/Mol)
 Warning -- explicit consideration of   9 degrees of freedom as
           vibrations may cause significant error
 Vibrational temperatures:     46.93    98.41   194.63   359.10   496.89
          (Kelvin)            532.11   570.80   614.96   733.24   947.73
                              994.01  1009.57  1073.91  1212.90  1264.62
                             1308.64  1340.97  1350.10  1415.11  1428.87
                             1509.42  1539.01  1571.13  1619.62  1647.69
                             1686.48  1726.65  1745.08  1759.47  1783.45
                             1842.47  1881.14  1887.17  1960.97  2019.69
                             2049.31  2075.50  2145.39  2183.26  2206.44
                             2728.48  4247.02  4340.14  4378.43  4380.10
                             4387.60  4395.17  4417.20  4456.92  4459.55
                             4467.29

 Zero-point correction=                           0.159118 (Hartree/Particle)
 Thermal correction to Energy=                    0.167384
 Thermal correction to Enthalpy=                  0.168328
 Thermal correction to Gibbs Free Energy=         0.125014
 Sum of electronic and zero-point Energies=           -423.037513
 Sum of electronic and thermal Energies=              -423.029246
 Sum of electronic and thermal Enthalpies=            -423.028302
 Sum of electronic and thermal Free Energies=         -423.071616

                     E (Thermal)             CV                S
                      KCal/Mol        Cal/Mol-Kelvin    Cal/Mol-Kelvin
 Total                  105.035             30.954             91.163
 Electronic               0.000              0.000              0.000
 Translational            0.889              2.981             40.409
 Rotational               0.889              2.981             28.701
 Vibrational            103.258             24.993             22.053
 Vibration     1          0.594              1.983              5.664
 Vibration     2          0.598              1.969              4.199
 Vibration     3          0.613              1.918              2.870
 Vibration     4          0.662              1.763              1.734
 Vibration     5          0.724              1.585              1.187
 Vibration     6          0.742              1.534              1.080
 Vibration     7          0.763              1.477              0.975
 Vibration     8          0.789              1.411              0.867
 Vibration     9          0.865              1.229              0.634

 Optimization completed.
    -- Stationary point found.
 Normal termination of Gaussian 09 at Mon Jan 27 13:36:40 2020.
