 Gaussian 09, Revision D.01,
 Gaussian 09:  ES64L-G09RevD.01 24-Apr-2013

 -----------------------------
 # b3lyp 6-31G(2df,p) opt Freq
 -----------------------------

 -----
 titel
 -----
 Symbolic Z-matrix:
 Charge =  0 Multiplicity = 1

 SCF Done:  E(RB3LYP) =  -423.126073916     A.U. after   14 cycles
 Optimization completed.
    -- Stationary point found.
 Normal termination of Gaussian 09 at Tue Jan 28 09:48:43 2020.

 ----------------------------------------------------------------------
 #N Geom=AllCheck Guess=TCheck SCRF=Check GenChk RB3LYP/6-31G(2df,p) Fr
 eq
 ----------------------------------------------------------------------

 Structure from the checkpoint file:  "/scratch/puck/g09_02847a6a-a527-40db-ac7a-616885c8b15d/Gau-18672.chk"
 -----
 titel
 -----
 Charge =  0 Multiplicity = 1

                         Standard orientation:
 ---------------------------------------------------------------------
 Center     Atomic      Atomic             Coordinates (Angstroms)
 Number     Number       Type             X           Y           Z
 ---------------------------------------------------------------------
      1          6           0        2.509753    0.716106    0.298313
      2          6           0        1.710726   -0.112364   -0.719967
      3          6           0        0.358994   -0.483045   -0.196908
      4          8           0        0.285818   -1.478493    0.847456
      5          6           0       -0.508775   -1.676452   -0.323700
      6          6           0       -1.798382   -0.865310   -0.113068
      7          6           0       -0.883910    0.382661   -0.031328
      8          6           0       -1.139016    1.727787   -0.545906
      9          8           0       -1.012783    1.468930    0.861812
     10          1           0        1.965403    1.621091    0.584247
     11          1           0        2.684054    0.134953    1.208049
     12          1           0        3.479104    1.011586   -0.112976
     13          1           0        1.587628    0.450380   -1.653556
     14          1           0        2.253890   -1.030561   -0.968846
     15          1           0       -0.357893   -2.585915   -0.893037
     16          1           0       -2.476585   -0.846743   -0.969859
     17          1           0       -2.344217   -1.118014    0.798015
     18          1           0       -0.331910    2.312651   -0.985270
     19          1           0       -2.140091    1.990783   -0.885528
 ---------------------------------------------------------------------

 SCF Done:  E(RB3LYP) =  -423.126073916     A.U. after    1 cycles

 The electronic state is 1-A.
 Alpha  occ. eigenvalues --  -19.15456 -19.15054 -10.24761 -10.24068 -10.24037
 Alpha  occ. eigenvalues --  -10.23759 -10.19412 -10.19350 -10.17625  -1.08513
 Alpha  occ. eigenvalues --   -1.06784  -0.79764  -0.77875  -0.67272  -0.66147
 Alpha  occ. eigenvalues --   -0.62718  -0.60619  -0.53894  -0.50476  -0.50229
 Alpha  occ. eigenvalues --   -0.45749  -0.44324  -0.44122  -0.42332  -0.39828
 Alpha  occ. eigenvalues --   -0.39063  -0.37070  -0.36742  -0.34842  -0.33979
 Alpha  occ. eigenvalues --   -0.30466  -0.29462  -0.27372  -0.24682
 Alpha virt. eigenvalues --    0.07352   0.08417   0.09648   0.11270   0.12364
 Alpha virt. eigenvalues --    0.13068   0.13135   0.14328   0.15341   0.16061
 Alpha virt. eigenvalues --    0.17173   0.17315   0.18744   0.19740   0.20909

 Mulliken charges:
               1
     1  C   -0.381651
     2  C   -0.322114
     3  C    0.360156
     4  O   -0.291076
     5  C   -0.065342
     6  C   -0.358424
     7  C    0.413299
     8  C   -0.271499
     9  O   -0.263942
    10  H    0.134149
    11  H    0.138532
    12  H    0.111688
    13  H    0.102050
    14  H    0.112751
    15  H    0.108190
    16  H    0.111024
    17  H    0.126680
    18  H    0.117269
    19  H    0.118258
 Sum of Mulliken charges =   0.00000

 Dipole moment (field-independent basis, Debye):
    X=             -0.1898    Y=             -0.0621    Z=             -3.0976  Tot=              3.1040
 Quadrupole moment (field-independent basis, Debye-Ang):
   XX=            -49.9878   YY=            -52.8674   ZZ=            -55.1798
   XY=              1.7332   XZ=              1.1687   YZ=             -0.5281

  Exact polarizability:  82.726   2.695  81.234   1.257  -2.025  61.573
 Approx polarizability: 107.212   2.358 117.901   3.358  -4.036 102.429

                      1                      2                      3
                      A                      A                      A
 Frequencies --     85.8173               118.2378               168.7589
 Red. masses --      2.6088                 3.5510                 4.1407
 Frc consts  --      0.0113                 0.0292                 0.0695
 IR Inten    --      0.5265                 2.0777                 1.6220

                      4                      5                      6
                      A                      A                      A
 Frequencies --    189.5648               254.9991               302.0037
 Red. masses --      1.2496                 1.8024                 3.4937
 Frc consts  --      0.0265                 0.0691                 0.1877
 IR Inten    --      0.4827                 0.2104                 0.5023

                      7                      8                      9
                      A                      A                      A
 Frequencies --    365.0115               408.4823               484.8035
 Red. masses --      2.4084                 2.7597                 2.9611
 Frc consts  --      0.1891                 0.2713                 0.4101
 IR Inten    --      1.6394                 2.5026                 6.3033

                     10                     11                     12
                      A                      A                      A
 Frequencies --    501.3531               596.2976               691.0026
 Red. masses --      4.0192                 4.5092                 3.5246
 Frc consts  --      0.5952                 0.9447                 0.9916
 IR Inten    --      3.8264                12.5093                13.2135

                     13                     14                     15
                      A                      A                      A
 Frequencies --    756.0855               809.1959               838.9386
 Red. masses --      2.3321                 1.7209                 2.5919
 Frc consts  --      0.7855                 0.6639                 1.0748
 IR Inten    --      3.9992                 8.2470                14.2791

                     16                     17                     18
                      A                      A                      A
 Frequencies --    867.2771               905.7527               931.9830
 Red. masses --      2.0461                 2.6827                 2.8680
 Frc consts  --      0.9068                 1.2967                 1.4677
 IR Inten    --      4.4016                17.6194                 4.5251

                     19                     20                     21
                      A                      A                      A
 Frequencies --    932.5068               975.8664               988.3903
 Red. masses --      2.3091                 2.3537                 1.6057
 Frc consts  --      1.1830                 1.3207                 0.9242
 IR Inten    --     16.1221                11.1903                 9.4656

                     22                     23                     24
                      A                      A                      A
 Frequencies --   1062.3726              1065.3514              1102.6605
 Red. masses --      2.3768                 2.3292                 1.8111
 Frc consts  --      1.5805                 1.5576                 1.2974
 IR Inten    --     10.4829                12.8906                 4.7511

                     25                     26                     27
                      A                      A                      A
 Frequencies --   1119.8305              1123.5539              1150.2023
 Red. masses --      2.0725                 1.3042                 1.3105
 Frc consts  --      1.5313                 0.9700                 1.0215
 IR Inten    --      2.6567                 1.3404                 1.8104

                     28                     29                     30
                      A                      A                      A
 Frequencies --   1175.0179              1208.3118              1248.5217
 Red. masses --      1.4752                 1.9039                 1.5579
 Frc consts  --      1.2000                 1.6378                 1.4308
 IR Inten    --      2.1173                 9.1642                 9.1228

                     31                     32                     33
                      A                      A                      A
 Frequencies --   1250.0022              1310.7314              1346.3287
 Red. masses --      1.6588                 1.4172                 1.5337
 Frc consts  --      1.5271                 1.4345                 1.6380
 IR Inten    --      5.3895                 4.5751                 3.8377

                     34                     35                     36
                      A                      A                      A
 Frequencies --   1411.1825              1428.4484              1447.9164
 Red. masses --      1.2715                 2.2022                 1.8791
 Frc consts  --      1.4919                 2.6475                 2.3211
 IR Inten    --      4.9717                15.1680                 4.3272

                     37                     38                     39
                      A                      A                      A
 Frequencies --   1473.0956              1477.4678              1495.5177
 Red. masses --      1.2039                 1.3758                 1.0421
 Frc consts  --      1.5392                 1.7695                 1.3732
 IR Inten    --      4.6551                 4.0650                 4.5437

                     40                     41                     42
                      A                      A                      A
 Frequencies --   1511.8776              1537.4003              3031.9877
 Red. masses --      1.1351                 1.6516                 1.0611
 Frc consts  --      1.5287                 2.3000                 5.7472
 IR Inten    --      6.0051                 8.5599                20.2374

                     43                     44                     45
                      A                      A                      A
 Frequencies --   3044.6130              3068.9642              3073.1801
 Red. masses --      1.0346                 1.0580                 1.1001
 Frc consts  --      5.6507                 5.8709                 6.1218
 IR Inten    --     21.9456                21.4849                 9.4435

                     46                     47                     48
                      A                      A                      A
 Frequencies --   3080.3065              3117.4380              3122.3052
 Red. masses --      1.0506                 1.1023                 1.1023
 Frc consts  --      5.8731                 6.3117                 6.3315
 IR Inten    --     25.3292                29.7367                21.1904

                     49                     50                     51
                      A                      A                      A
 Frequencies --   3130.1722              3166.1413              3193.0794
 Red. masses --      1.1082                 1.1194                 1.0943
 Frc consts  --      6.3976                 6.6112                 6.5737
 IR Inten    --     11.3612                21.8102                15.6622

 - Thermochemistry -
 -------------------
 Temperature   298.150 Kelvin.  Pressure   1.00000 Atm.
 Atom     1 has atomic number  6 and mass  12.00000

 Molecular mass:   126.06808 amu.
 Principal axes and moments of inertia in atomic units:
                           1         2         3
     Eigenvalues --   810.650641037.567781522.04370
           X            0.99530   0.09632   0.01050
           Y           -0.09628   0.99535  -0.00399
           Z           -0.01084   0.00296   0.99994
 This molecule is an asymmetric top.
 Rotational symmetry number  1.
 Warning -- assumption of classical behavior for rotation
           may cause significant error
 Rotational temperatures (Kelvin)      0.10684     0.08348     0.05691
 Rotational constants (GHZ):           2.22629     1.73940     1.18574
 Zero-point vibrational energy     413586.8 (Joules/Mol)
                                   98.84961 (Kcal/Mol)
 Warning -- explicit consideration of  11 degrees of freedom as
           vibrations may cause significant error
 Vibrational temperatures:    123.47   170.12   242.81   272.74   366.89
          (Kelvin)            434.52   525.17   587.71   697.52   721.33
                              857.94   994.20  1087.84  1164.25  1207.04
                             1247.82  1303.17  1340.91  1341.67  1404.05
                             1422.07  1528.52  1532.80  1586.48  1611.18
                             1616.54  1654.88  1690.59  1738.49  1796.34
                             1798.47  1885.85  1937.06  2030.37  2055.22
                             2083.23  2119.45  2125.74  2151.71  2175.25
                             2211.97  4362.35  4380.51  4415.55  4421.62
                             4431.87  4485.29  4492.30  4503.61  4555.37
                             4594.12

 Zero-point correction=                           0.157527 (Hartree/Particle)
 Thermal correction to Energy=                    0.166090
 Thermal correction to Enthalpy=                  0.167034
 Thermal correction to Gibbs Free Energy=         0.124312
 Sum of electronic and zero-point Energies=           -422.968547
 Sum of electronic and thermal Energies=              -422.959984
 Sum of electronic and thermal Enthalpies=            -422.959040
 Sum of electronic and thermal Free Energies=         -423.001762

                     E (Thermal)             CV                S
                      KCal/Mol        Cal/Mol-Kelvin    Cal/Mol-Kelvin
 Total                  104.223             32.498             89.917
 Electronic               0.000              0.000              0.000
 Translational            0.889              2.981             40.409
 Rotational               0.889              2.981             28.639
 Vibrational            102.446             26.537             20.869
 Vibration     1          0.601              1.959              3.753
 Vibration     2          0.608              1.934              3.129
 Vibration     3          0.625              1.881              2.449
 Vibration     4          0.633              1.854              2.232
 Vibration     5          0.665              1.754              1.696
 Vibration     6          0.694              1.670              1.406
 Vibration     7          0.738              1.544              1.101
 Vibration     8          0.773              1.452              0.932
 Vibration     9          0.841              1.284              0.697
 Vibration    10          0.857              1.247              0.655
 Vibration    11          0.954              1.040              0.456

 Normal termination of Gaussian 09 at Tue Jan 28 10:31:17 2020.
