 Gaussian 09, Revision D.01,
 Gaussian 09:  ES64L-G09RevD.01 24-Apr-2013

 -----------------------------
 # b3lyp 6-31G(2df,p) opt Freq
 -----------------------------

 -----
 titel
 -----
 Symbolic Z-matrix:
 Charge =  0 Multiplicity = 1

 SCF Done:  E(RB3LYP) =  -423.152630373     A.U. after   14 cycles
 Optimization completed.
    -- Stationary point found.
 Normal termination of Gaussian 09 at Tue Jan 28 14:29:10 2020.

 ----------------------------------------------------------------------
 #N Geom=AllCheck Guess=TCheck SCRF=Check GenChk RB3LYP/6-31G(2df,p) Fr
 eq
 ----------------------------------------------------------------------

 Structure from the checkpoint file:  "/scratch/puck/g09_8eae1848-41ff-4a06-abf0-93c03c8e6a0d/Gau-11970.chk"
 -----
 titel
 -----
 Charge =  0 Multiplicity = 1

                         Standard orientation:
 ---------------------------------------------------------------------
 Center     Atomic      Atomic             Coordinates (Angstroms)
 Number     Number       Type             X           Y           Z
 ---------------------------------------------------------------------
      1          6           0       -3.779672   -0.514111   -0.047160
      2          8           0       -2.417766   -0.825728    0.122712
      3          6           0       -1.577797    0.295903   -0.040378
      4          6           0       -0.143532   -0.168532    0.161062
      5          6           0        0.866520    0.945482    0.001659
      6          8           0        0.561629    2.065772   -0.331552
      7          6           0        2.340073    0.625883    0.335202
      8          6           0        2.787811   -0.719856    0.012521
      9          6           0        3.152163   -1.831285   -0.263630
     10          1           0       -3.986920   -0.121981   -1.055535
     11          1           0       -4.347300   -1.436709    0.096529
     12          1           0       -4.123007    0.232919    0.686208
     13          1           0       -1.697645    0.737448   -1.041780
     14          1           0       -1.830974    1.085619    0.684991
     15          1           0       -0.021120   -0.626482    1.151289
     16          1           0        0.104097   -0.966148   -0.549828
     17          1           0        2.950650    1.383484   -0.165591
     18          1           0        2.451172    0.803424    1.415352
     19          1           0        3.476747   -2.812830   -0.506575
 ---------------------------------------------------------------------

 SCF Done:  E(RB3LYP) =  -423.152630373     A.U. after    1 cycles

 The electronic state is 1-A.
 Alpha  occ. eigenvalues --  -19.14025 -19.14016 -10.28343 -10.22907 -10.22379
 Alpha  occ. eigenvalues --  -10.22219 -10.19476 -10.19350 -10.18241  -1.05240
 Alpha  occ. eigenvalues --   -1.03361  -0.80943  -0.77548  -0.72159  -0.68663
 Alpha  occ. eigenvalues --   -0.62279  -0.55449  -0.52931  -0.49724  -0.49317
 Alpha  occ. eigenvalues --   -0.47403  -0.46571  -0.45638  -0.43731  -0.42770
 Alpha  occ. eigenvalues --   -0.40918  -0.37759  -0.36344  -0.35264  -0.31988
 Alpha  occ. eigenvalues --   -0.29167  -0.27556  -0.25590  -0.24793
 Alpha virt. eigenvalues --   -0.02065   0.04178   0.04721   0.09008   0.10122
 Alpha virt. eigenvalues --    0.12142   0.12941   0.14035   0.14426   0.15756
 Alpha virt. eigenvalues --    0.17182   0.17564   0.17909   0.20250   0.21763

 Mulliken charges:
               1
     1  C   -0.228375
     2  O   -0.235836
     3  C   -0.053809
     4  C   -0.317625
     5  C    0.378042
     6  O   -0.295612
     7  C   -0.441566
     8  C    0.298001
     9  C   -0.447889
    10  H    0.105405
    11  H    0.126406
    12  H    0.104611
    13  H    0.103250
    14  H    0.097585
    15  H    0.134222
    16  H    0.151942
    17  H    0.159317
    18  H    0.157940
    19  H    0.203992
 Sum of Mulliken charges =   0.00000

 Dipole moment (field-independent basis, Debye):
    X=             -0.0059    Y=             -1.0612    Z=              0.5923  Tot=              1.2153
 Quadrupole moment (field-independent basis, Debye-Ang):
   XX=            -47.2413   YY=            -56.7794   ZZ=            -52.3957
   XY=             -2.4509   XZ=              1.0605   YZ=              2.9302

  Exact polarizability:  91.408  -7.734  87.188  -0.313   2.616  57.849
 Approx polarizability: 104.146 -16.233 146.004  -1.061   4.238  89.662

                      1                      2                      3
                      A                      A                      A
 Frequencies --     37.0206                58.5706                82.9646
 Red. masses --      2.8445                 2.8105                 2.2988
 Frc consts  --      0.0023                 0.0057                 0.0093
 IR Inten    --      0.5885                 1.0130                 3.6434

                      4                      5                      6
                      A                      A                      A
 Frequencies --     94.3219               125.9906               159.4156
 Red. masses --      3.9746                 2.2876                 3.9938
 Frc consts  --      0.0208                 0.0214                 0.0598
 IR Inten    --      2.4341                 3.8696                 3.4390

                      7                      8                      9
                      A                      A                      A
 Frequencies --    237.1324               298.1509               312.6440
 Red. masses --      1.2231                 4.1832                 5.5949
 Frc consts  --      0.0405                 0.2191                 0.3222
 IR Inten    --      3.0384                 2.7822                 1.3715

                     10                     11                     12
                      A                      A                      A
 Frequencies --    331.7518               445.0997               470.6931
 Red. masses --      2.9220                 3.3279                 2.7496
 Frc consts  --      0.1895                 0.3885                 0.3589
 IR Inten    --      4.3647                 4.9276                 6.9925

                     13                     14                     15
                      A                      A                      A
 Frequencies --    504.8426               621.5420               628.4317
 Red. masses --      4.8632                 2.5188                 1.3830
 Frc consts  --      0.7303                 0.5733                 0.3218
 IR Inten    --      4.4578                13.4304                34.5694

                     16                     17                     18
                      A                      A                      A
 Frequencies --    654.5607               756.6510               826.9127
 Red. masses --      1.2629                 1.4076                 4.0255
 Frc consts  --      0.3188                 0.4748                 1.6218
 IR Inten    --     59.4421                 3.4863                 2.1443

                     19                     20                     21
                      A                      A                      A
 Frequencies --    885.8444               985.4311               998.9788
 Red. masses --      1.5546                 3.3804                 3.3254
 Frc consts  --      0.7187                 1.9341                 1.9553
 IR Inten    --      2.8673                 5.3816                15.6282

                     22                     23                     24
                      A                      A                      A
 Frequencies --   1069.3016              1072.1043              1122.7191
 Red. masses --      3.3569                 1.8627                 2.3692
 Frc consts  --      2.2614                 1.2614                 1.7595
 IR Inten    --     29.8161                 2.3941               109.4140

                     25                     26                     27
                      A                      A                      A
 Frequencies --   1166.3914              1178.1042              1204.4357
 Red. masses --      4.4319                 1.2352                 1.3079
 Frc consts  --      3.5524                 1.0100                 1.1179
 IR Inten    --    131.1938                 0.3600                 7.2783

                     28                     29                     30
                      A                      A                      A
 Frequencies --   1231.6355              1236.3110              1293.3622
 Red. masses --      1.4187                 1.5261                 1.2194
 Frc consts  --      1.2679                 1.3743                 1.2018
 IR Inten    --     15.3811                12.5652                 3.7434

                     31                     32                     33
                      A                      A                      A
 Frequencies --   1298.4329              1339.9809              1423.8740
 Red. masses --      1.2880                 1.8404                 1.3509
 Frc consts  --      1.2794                 1.9470                 1.6136
 IR Inten    --      4.5465                31.1014                64.2772

                     34                     35                     36
                      A                      A                      A
 Frequencies --   1441.9969              1450.4955              1483.5296
 Red. masses --      1.0952                 1.1336                 1.1746
 Frc consts  --      1.3418                 1.4052                 1.5231
 IR Inten    --      3.0032                20.0071                 0.3843

                     37                     38                     39
                      A                      A                      A
 Frequencies --   1486.0293              1505.3073              1526.7088
 Red. masses --      1.0483                 1.0668                 1.0888
 Frc consts  --      1.3639                 1.4242                 1.4952
 IR Inten    --      4.7928                 5.8564                 1.2423

                     40                     41                     42
                      A                      A                      A
 Frequencies --   1810.0132              2239.8295              2966.0307
 Red. masses --     11.4555                 5.9288                 1.0409
 Frc consts  --     22.1119                17.5247                 5.3954
 IR Inten    --    169.3283                 1.6553                43.0385

                     43                     44                     45
                      A                      A                      A
 Frequencies --   2979.8595              3005.4115              3010.7096
 Red. masses --      1.0527                 1.1025                 1.0675
 Frc consts  --      5.5074                 5.8671                 5.7013
 IR Inten    --     55.4268                60.6257                 6.4410

                     46                     47                     48
                      A                      A                      A
 Frequencies --   3013.6191              3039.4786              3073.9090
 Red. masses --      1.1035                 1.0624                 1.0970
 Frc consts  --      5.9049                 5.7826                 6.1072
 IR Inten    --     41.3779                11.0702                 8.3740

                     49                     50                     51
                      A                      A                      A
 Frequencies --   3084.7138              3114.0606              3504.7980
 Red. masses --      1.0913                 1.0959                 1.1624
 Frc consts  --      6.1183                 6.2614                 8.4130
 IR Inten    --      2.4726                29.9921                70.0464

 - Thermochemistry -
 -------------------
 Temperature   298.150 Kelvin.  Pressure   1.00000 Atm.
 Atom     1 has atomic number  6 and mass  12.00000

 Molecular mass:   126.06808 amu.
 Principal axes and moments of inertia in atomic units:
                           1         2         3
     Eigenvalues --   617.836212442.820092977.71471
           X            0.99999  -0.00235   0.00383
           Y            0.00229   0.99989   0.01491
           Z           -0.00387  -0.01490   0.99988
 This molecule is an asymmetric top.
 Rotational symmetry number  1.
 Warning -- assumption of classical behavior for rotation
           may cause significant error
 Rotational temperatures (Kelvin)      0.14019     0.03546     0.02909
 Rotational constants (GHZ):           2.92107     0.73879     0.60608
 Zero-point vibrational energy     406073.0 (Joules/Mol)
                                   97.05378 (Kcal/Mol)
 Warning -- explicit consideration of  13 degrees of freedom as
           vibrations may cause significant error
 Vibrational temperatures:     53.26    84.27   119.37   135.71   181.27
          (Kelvin)            229.36   341.18   428.97   449.82   477.32
                              640.40   677.22   726.35   894.26   904.17
                              941.77  1088.65  1189.74  1274.53  1417.81
                             1437.31  1538.48  1542.52  1615.34  1678.17
                             1695.03  1732.91  1772.05  1778.77  1860.86
                             1868.15  1927.93  2048.63  2074.71  2086.94
                             2134.47  2138.06  2165.80  2196.59  2604.20
                             3222.61  4267.45  4287.35  4324.11  4331.73
                             4335.92  4373.13  4422.66  4438.21  4480.43
                             5042.62

 Zero-point correction=                           0.154665 (Hartree/Particle)
 Thermal correction to Energy=                    0.165409
 Thermal correction to Enthalpy=                  0.166353
 Thermal correction to Gibbs Free Energy=         0.117062
 Sum of electronic and zero-point Energies=           -422.997965
 Sum of electronic and thermal Energies=              -422.987222
 Sum of electronic and thermal Enthalpies=            -422.986278
 Sum of electronic and thermal Free Energies=         -423.035568

                     E (Thermal)             CV                S
                      KCal/Mol        Cal/Mol-Kelvin    Cal/Mol-Kelvin
 Total                  103.795             36.729            103.740
 Electronic               0.000              0.000              0.000
 Translational            0.889              2.981             40.409
 Rotational               0.889              2.981             29.887
 Vibrational            102.018             30.767             33.445
 Vibration     1          0.594              1.982              5.412
 Vibration     2          0.596              1.974              4.505
 Vibration     3          0.600              1.961              3.819
 Vibration     4          0.603              1.953              3.568
 Vibration     5          0.611              1.927              3.006
 Vibration     6          0.621              1.892              2.557
 Vibration     7          0.656              1.784              1.824
 Vibration     8          0.691              1.677              1.427
 Vibration     9          0.701              1.650              1.348
 Vibration    10          0.714              1.612              1.252
 Vibration    11          0.804              1.372              0.811
 Vibration    12          0.828              1.315              0.736
 Vibration    13          0.860              1.239              0.646

 Optimization completed.
    -- Stationary point found.
 Normal termination of Gaussian 09 at Tue Jan 28 15:02:25 2020.
