 Gaussian 09, Revision D.01,
 Gaussian 09:  ES64L-G09RevD.01 24-Apr-2013

 -----------------------------
 # b3lyp 6-31G(2df,p) opt Freq
 -----------------------------

 -----
 titel
 -----
 Symbolic Z-matrix:
 Charge =  0 Multiplicity = 1

 SCF Done:  E(RB3LYP) =  -423.190103673     A.U. after   14 cycles
 Optimization completed.
    -- Stationary point found.
 Normal termination of Gaussian 09 at Tue Jan 28 00:45:47 2020.

 ----------------------------------------------------------------------
 #N Geom=AllCheck Guess=TCheck SCRF=Check GenChk RB3LYP/6-31G(2df,p) Fr
 eq
 ----------------------------------------------------------------------

 Structure from the checkpoint file:  "/scratch/puck/g09_91782695-606f-4af9-8b82-14085a2649a6/Gau-71763.chk"
 -----
 titel
 -----
 Charge =  0 Multiplicity = 1

                         Standard orientation:
 ---------------------------------------------------------------------
 Center     Atomic      Atomic             Coordinates (Angstroms)
 Number     Number       Type             X           Y           Z
 ---------------------------------------------------------------------
      1          6           0       -1.003857    2.027556   -0.554588
      2          6           0       -1.280895    0.735272    0.211412
      3          8           0       -0.277542    0.487454    1.218861
      4          6           0        0.705543   -0.408595    0.708224
      5          6           0        1.928968    0.350948    0.195484
      6          8           0        2.668813   -0.048904   -0.665653
      7          6           0        0.027921   -1.226953   -0.370021
      8          6           0       -1.296030   -1.833300    0.010786
      9          6           0       -1.257739   -0.495374   -0.680701
     10          1           0       -0.899770    2.864861    0.140467
     11          1           0       -0.085529    1.949980   -1.146565
     12          1           0       -1.828548    2.249479   -1.240408
     13          1           0       -2.223907    0.832735    0.762902
     14          1           0        1.051628   -1.014205    1.560841
     15          1           0        2.089661    1.324156    0.712058
     16          1           0        0.651720   -1.666121   -1.137036
     17          1           0       -1.637308   -2.684475   -0.567610
     18          1           0       -1.567281   -1.859857    1.062099
     19          1           0       -1.624301   -0.402282   -1.696002
 ---------------------------------------------------------------------

 SCF Done:  E(RB3LYP) =  -423.190103673     A.U. after    1 cycles

 The electronic state is 1-A.
 Alpha  occ. eigenvalues --  -19.14774 -19.14659 -10.27155 -10.24399 -10.24076
 Alpha  occ. eigenvalues --  -10.19945 -10.19848 -10.19270 -10.18101  -1.05613
 Alpha  occ. eigenvalues --   -1.04176  -0.86608  -0.78009  -0.71877  -0.63581
 Alpha  occ. eigenvalues --   -0.61430  -0.57942  -0.56446  -0.51967  -0.49261
 Alpha  occ. eigenvalues --   -0.46741  -0.45034  -0.43832  -0.42383  -0.40903
 Alpha  occ. eigenvalues --   -0.39671  -0.38804  -0.38049  -0.34956  -0.32175
 Alpha  occ. eigenvalues --   -0.30484  -0.29641  -0.28143  -0.23983
 Alpha virt. eigenvalues --   -0.02902   0.08834   0.10465   0.11076   0.12018
 Alpha virt. eigenvalues --    0.13299   0.13588   0.14731   0.15815   0.16601
 Alpha virt. eigenvalues --    0.16790   0.17879   0.19244   0.20122   0.22857

 Mulliken charges:
               1
     1  C   -0.406000
     2  C    0.106076
     3  O   -0.282161
     4  C   -0.002895
     5  C    0.136024
     6  O   -0.246011
     7  C   -0.043980
     8  C   -0.328052
     9  C   -0.037723
    10  H    0.126048
    11  H    0.125277
    12  H    0.118028
    13  H    0.086891
    14  H    0.110482
    15  H    0.090045
    16  H    0.114614
    17  H    0.116362
    18  H    0.122695
    19  H    0.094279
 Sum of Mulliken charges =   0.00000

 Dipole moment (field-independent basis, Debye):
    X=             -1.9919    Y=             -0.1008    Z=              0.0597  Tot=              1.9954
 Quadrupole moment (field-independent basis, Debye-Ang):
   XX=            -57.8461   YY=            -51.0382   ZZ=            -54.1269
   XY=              0.4073   XZ=              5.0406   YZ=             -0.6712

  Exact polarizability:  79.784   0.560  78.875  -0.302   0.885  65.725
 Approx polarizability: 113.951  -3.658 107.103  -5.427   3.552 106.107

                      1                      2                      3
                      A                      A                      A
 Frequencies --     60.2249               130.3162               169.9260
 Red. masses --      4.9975                 3.1095                 2.8300
 Frc consts  --      0.0107                 0.0311                 0.0481
 IR Inten    --      4.9137                 4.8280                 3.3036

                      4                      5                      6
                      A                      A                      A
 Frequencies --    227.1456               252.5354               293.6107
 Red. masses --      3.5396                 1.0577                 2.4232
 Frc consts  --      0.1076                 0.0397                 0.1231
 IR Inten    --      5.1508                 0.0073                 2.2736

                      7                      8                      9
                      A                      A                      A
 Frequencies --    379.9092               395.6356               487.6719
 Red. masses --      3.3449                 3.3756                 3.6207
 Frc consts  --      0.2844                 0.3113                 0.5073
 IR Inten    --      4.9759                 1.7857                 3.4897

                     10                     11                     12
                      A                      A                      A
 Frequencies --    597.0047               688.8616               727.4616
 Red. masses --      3.7774                 3.3255                 3.8699
 Frc consts  --      0.7932                 0.9298                 1.2066
 IR Inten    --     12.2352                 1.1376                 6.4420

                     13                     14                     15
                      A                      A                      A
 Frequencies --    755.4617               800.8324               844.7128
 Red. masses --      2.0834                 2.1832                 1.4424
 Frc consts  --      0.7006                 0.8250                 0.6064
 IR Inten    --      1.6607                 4.9440                 6.1601

                     16                     17                     18
                      A                      A                      A
 Frequencies --    871.9695               905.2404               956.3624
 Red. masses --      2.3439                 2.2450                 2.1310
 Frc consts  --      1.0500                 1.0839                 1.1484
 IR Inten    --     25.2760                 7.1659                14.1036

                     19                     20                     21
                      A                      A                      A
 Frequencies --   1002.0666              1016.8951              1042.9752
 Red. masses --      2.2985                 1.7116                 1.6257
 Frc consts  --      1.3598                 1.0428                 1.0419
 IR Inten    --     12.3375                 5.9830                20.4929

                     22                     23                     24
                      A                      A                      A
 Frequencies --   1076.0620              1079.8806              1085.2226
 Red. masses --      2.3368                 1.8404                 1.6264
 Frc consts  --      1.5942                 1.2645                 1.1285
 IR Inten    --      6.3456                 7.7159                 3.2380

                     25                     26                     27
                      A                      A                      A
 Frequencies --   1114.0298              1120.7992              1134.4544
 Red. masses --      1.4781                 1.4728                 2.3468
 Frc consts  --      1.0808                 1.0901                 1.7795
 IR Inten    --      0.8819                11.8627                40.8686

                     28                     29                     30
                      A                      A                      A
 Frequencies --   1149.6453              1199.5883              1266.7974
 Red. masses --      1.9996                 1.7287                 1.3912
 Frc consts  --      1.5571                 1.4656                 1.3154
 IR Inten    --     26.5457                 0.1955                 6.4490

                     31                     32                     33
                      A                      A                      A
 Frequencies --   1318.6604              1324.7660              1346.3075
 Red. masses --      1.3835                 1.5088                 1.5967
 Frc consts  --      1.4175                 1.5601                 1.7051
 IR Inten    --      2.5321                 1.1957                 6.2579

                     34                     35                     36
                      A                      A                      A
 Frequencies --   1371.7268              1395.9240              1400.5668
 Red. masses --      1.6022                 1.3455                 1.5197
 Frc consts  --      1.7762                 1.5447                 1.7564
 IR Inten    --      5.0129                12.3216                 1.9162

                     37                     38                     39
                      A                      A                      A
 Frequencies --   1406.3110              1482.4408              1492.1927
 Red. masses --      1.2982                 1.2806                 1.0504
 Frc consts  --      1.5127                 1.6581                 1.3781
 IR Inten    --     11.6758                 1.6700                 3.3369

                     40                     41                     42
                      A                      A                      A
 Frequencies --   1494.4101              1830.2850              2885.1329
 Red. masses --      1.0575                10.9463                 1.0843
 Frc consts  --      1.3915                21.6050                 5.3178
 IR Inten    --      1.7524               128.6932                95.1255

                     43                     44                     45
                      A                      A                      A
 Frequencies --   2986.5124              3032.7794              3034.6542
 Red. masses --      1.0815                 1.0796                 1.0410
 Frc consts  --      5.6831                 5.8505                 5.6482
 IR Inten    --     36.9668                27.3844                18.3325

                     46                     47                     48
                      A                      A                      A
 Frequencies --   3103.6352              3120.7400              3126.7254
 Red. masses --      1.1010                 1.1017                 1.0547
 Frc consts  --      6.2484                 6.3217                 6.0750
 IR Inten    --     32.5205                19.2233                13.1216

                     49                     50                     51
                      A                      A                      A
 Frequencies --   3183.7221              3208.2139              3219.3249
 Red. masses --      1.0911                 1.0982                 1.1091
 Frc consts  --      6.5161                 6.6595                 6.7723
 IR Inten    --      7.9180                 0.4311                 8.7286

 - Thermochemistry -
 -------------------
 Temperature   298.150 Kelvin.  Pressure   1.00000 Atm.
 Atom     1 has atomic number  6 and mass  12.00000

 Molecular mass:   126.06808 amu.
 Principal axes and moments of inertia in atomic units:
                           1         2         3
     Eigenvalues --   784.221381143.347281494.30128
           X            0.99969  -0.00080   0.02505
           Y            0.00144   0.99967  -0.02549
           Z           -0.02502   0.02552   0.99936
 This molecule is an asymmetric top.
 Rotational symmetry number  1.
 Warning -- assumption of classical behavior for rotation
           may cause significant error
 Rotational temperatures (Kelvin)      0.11045     0.07575     0.05796
 Rotational constants (GHZ):           2.30132     1.57847     1.20775
 Zero-point vibrational energy     416290.5 (Joules/Mol)
                                   99.49581 (Kcal/Mol)
 Warning -- explicit consideration of  10 degrees of freedom as
           vibrations may cause significant error
 Vibrational temperatures:     86.65   187.50   244.49   326.81   363.34
          (Kelvin)            422.44   546.60   569.23   701.65   858.96
                              991.12  1046.65  1086.94  1152.22  1215.35
                             1254.57  1302.44  1375.99  1441.75  1463.08
                             1500.61  1548.21  1553.71  1561.39  1602.84
                             1612.58  1632.22  1654.08  1725.94  1822.64
                             1897.26  1906.04  1937.03  1973.61  2008.42
                             2015.10  2023.37  2132.90  2146.93  2150.12
                             2633.37  4151.06  4296.92  4363.49  4366.19
                             4465.43  4490.04  4498.65  4580.66  4615.90
                             4631.88

 Zero-point correction=                           0.158557 (Hartree/Particle)
 Thermal correction to Energy=                    0.166950
 Thermal correction to Enthalpy=                  0.167894
 Thermal correction to Gibbs Free Energy=         0.125266
 Sum of electronic and zero-point Energies=           -423.031547
 Sum of electronic and thermal Energies=              -423.023153
 Sum of electronic and thermal Enthalpies=            -423.022209
 Sum of electronic and thermal Free Energies=         -423.064837

                     E (Thermal)             CV                S
                      KCal/Mol        Cal/Mol-Kelvin    Cal/Mol-Kelvin
 Total                  104.763             31.777             89.718
 Electronic               0.000              0.000              0.000
 Translational            0.889              2.981             40.409
 Rotational               0.889              2.981             28.684
 Vibrational            102.985             25.816             20.625
 Vibration     1          0.597              1.973              4.450
 Vibration     2          0.612              1.923              2.941
 Vibration     3          0.625              1.880              2.436
 Vibration     4          0.651              1.800              1.901
 Vibration     5          0.664              1.759              1.713
 Vibration     6          0.688              1.686              1.453
 Vibration     7          0.750              1.513              1.040
 Vibration     8          0.762              1.479              0.979
 Vibration     9          0.844              1.277              0.690
 Vibration    10          0.955              1.038              0.455

 Optimization completed.
    -- Stationary point found.
 Normal termination of Gaussian 09 at Tue Jan 28 01:28:21 2020.
