 Gaussian 09, Revision D.01,
 Gaussian 09:  ES64L-G09RevD.01 24-Apr-2013

 -----------------------------
 # b3lyp 6-31G(2df,p) opt Freq
 -----------------------------

 -----
 titel
 -----
 Symbolic Z-matrix:
 Charge =  0 Multiplicity = 1

 SCF Done:  E(RB3LYP) =  -423.177736037     A.U. after   14 cycles
 Optimization completed.
    -- Stationary point found.
 Normal termination of Gaussian 09 at Tue Jan 28 03:06:38 2020.

 ----------------------------------------------------------------------
 #N Geom=AllCheck Guess=TCheck SCRF=Check GenChk RB3LYP/6-31G(2df,p) Fr
 eq
 ----------------------------------------------------------------------

 Structure from the checkpoint file:  "/scratch/puck/g09_0b6e0352-40a8-4827-9abd-32acf1aa6f49/Gau-173632.chk"
 -----
 titel
 -----
 Charge =  0 Multiplicity = 1

                         Standard orientation:
 ---------------------------------------------------------------------
 Center     Atomic      Atomic             Coordinates (Angstroms)
 Number     Number       Type             X           Y           Z
 ---------------------------------------------------------------------
      1          6           0        2.018875    1.396939   -0.306375
      2          6           0        1.535850   -0.014026   -0.019654
      3          8           0        2.307612   -0.943440    0.108909
      4          6           0        0.069296   -0.205329    0.093792
      5          6           0       -0.477099   -1.322282    0.967029
      6          6           0       -0.766971   -1.385530   -0.484468
      7          6           0       -1.903602   -0.424008   -0.840162
      8          6           0       -1.041046    0.766776   -0.285488
      9          8           0       -1.526645    1.511931    0.810416
     10          1           0        3.102428    1.440885   -0.192033
     11          1           0        1.757164    1.684687   -1.331687
     12          1           0        1.532970    2.115200    0.362312
     13          1           0        0.300664   -1.987306    1.324319
     14          1           0       -1.263493   -1.081010    1.675797
     15          1           0       -0.371588   -2.168402   -1.118738
     16          1           0       -2.103572   -0.338293   -1.910178
     17          1           0       -2.843988   -0.600251   -0.308633
     18          1           0       -0.731549    1.430219   -1.104006
     19          1           0       -2.238587    2.081102    0.500195
 ---------------------------------------------------------------------

 SCF Done:  E(RB3LYP) =  -423.177736037     A.U. after    1 cycles

 The electronic state is 1-A.
 Alpha  occ. eigenvalues --  -19.14545 -19.11491 -10.26224 -10.24514 -10.20707
 Alpha  occ. eigenvalues --  -10.19860 -10.19296 -10.19219 -10.18263  -1.02987
 Alpha  occ. eigenvalues --   -1.02554  -0.90006  -0.74608  -0.73285  -0.66837
 Alpha  occ. eigenvalues --   -0.60627  -0.57486  -0.53268  -0.51852  -0.48143
 Alpha  occ. eigenvalues --   -0.45949  -0.43425  -0.42937  -0.41560  -0.41034
 Alpha  occ. eigenvalues --   -0.39210  -0.37869  -0.36236  -0.35636  -0.33775
 Alpha  occ. eigenvalues --   -0.29646  -0.27631  -0.26459  -0.23607
 Alpha virt. eigenvalues --   -0.01060   0.06407   0.09278   0.11331   0.12799
 Alpha virt. eigenvalues --    0.13010   0.13698   0.15262   0.15561   0.16485
 Alpha virt. eigenvalues --    0.17585   0.17862   0.20166   0.21475   0.22482

 Mulliken charges:
               1
     1  C   -0.500378
     2  C    0.274206
     3  O   -0.326268
     4  C    0.280408
     5  C   -0.311803
     6  C   -0.087799
     7  C   -0.272477
     8  C    0.009959
     9  O   -0.434560
    10  H    0.139704
    11  H    0.137561
    12  H    0.147656
    13  H    0.142840
    14  H    0.125348
    15  H    0.109984
    16  H    0.104927
    17  H    0.103560
    18  H    0.071436
    19  H    0.285694
 Sum of Mulliken charges =   0.00000

 Dipole moment (field-independent basis, Debye):
    X=             -2.7806    Y=              1.8840    Z=             -1.5656  Tot=              3.7057
 Quadrupole moment (field-independent basis, Debye-Ang):
   XX=            -55.0775   YY=            -51.2729   ZZ=            -52.7388
   XY=              2.0734   XZ=              0.7828   YZ=             -1.7660

  Exact polarizability:  87.725   1.143  78.459   1.301  -2.584  64.538
 Approx polarizability: 123.079  -4.121 116.558   2.516  -2.395 100.433

                      1                      2                      3
                      A                      A                      A
 Frequencies --     58.7885               109.3982               158.7906
 Red. masses --      4.0091                 3.3260                 1.1164
 Frc consts  --      0.0082                 0.0235                 0.0166
 IR Inten    --      3.7291                 1.2899                 0.0111

                      4                      5                      6
                      A                      A                      A
 Frequencies --    183.1465               203.8590               294.7062
 Red. masses --      3.0457                 3.2995                 1.2807
 Frc consts  --      0.0602                 0.0808                 0.0655
 IR Inten    --      3.0811                 0.1277                82.2070

                      7                      8                      9
                      A                      A                      A
 Frequencies --    328.2636               371.4371               413.3187
 Red. masses --      3.1595                 3.0529                 2.1952
 Frc consts  --      0.2006                 0.2482                 0.2209
 IR Inten    --     14.8911                10.9959                 1.3011

                     10                     11                     12
                      A                      A                      A
 Frequencies --    475.0180               568.3052               602.4933
 Red. masses --      3.3652                 2.8634                 3.1529
 Frc consts  --      0.4474                 0.5449                 0.6743
 IR Inten    --      5.3554                 8.6739                12.1809

                     13                     14                     15
                      A                      A                      A
 Frequencies --    635.9806               700.0054               811.0938
 Red. masses --      3.2848                 3.2043                 5.5940
 Frc consts  --      0.7828                 0.9251                 2.1683
 IR Inten    --      3.7438                 3.4438                 4.9803

                     16                     17                     18
                      A                      A                      A
 Frequencies --    836.9987               857.5836               929.9356
 Red. masses --      2.0163                 1.7698                 1.7009
 Frc consts  --      0.8322                 0.7669                 0.8666
 IR Inten    --      3.7171                 6.3689                 4.7031

                     19                     20                     21
                      A                      A                      A
 Frequencies --    951.7924               970.3344              1011.8659
 Red. masses --      2.0936                 1.6140                 1.4073
 Frc consts  --      1.1174                 0.8953                 0.8489
 IR Inten    --      5.7603                35.4288                10.0570

                     22                     23                     24
                      A                      A                      A
 Frequencies --   1033.5272              1051.6206              1073.0419
 Red. masses --      1.9169                 1.7212                 2.1764
 Frc consts  --      1.2064                 1.1215                 1.4765
 IR Inten    --      8.2800                 0.8417                54.5006

                     25                     26                     27
                      A                      A                      A
 Frequencies --   1086.3162              1123.0819              1130.9701
 Red. masses --      1.4148                 2.3845                 1.8261
 Frc consts  --      0.9837                 1.7720                 1.3762
 IR Inten    --      3.4972                21.2748                30.1201

                     28                     29                     30
                      A                      A                      A
 Frequencies --   1193.3649              1209.0678              1236.9337
 Red. masses --      2.0328                 1.2725                 1.5623
 Frc consts  --      1.7057                 1.0960                 1.4083
 IR Inten    --    101.7337                 8.4515                 3.3510

                     31                     32                     33
                      A                      A                      A
 Frequencies --   1248.1754              1301.5020              1324.7644
 Red. masses --      1.5491                 2.2261                 1.5857
 Frc consts  --      1.4219                 2.2217                 1.6396
 IR Inten    --     43.9447                63.6548                15.8768

                     34                     35                     36
                      A                      A                      A
 Frequencies --   1371.9315              1388.9346              1434.5451
 Red. masses --      1.4715                 1.8450                 1.6365
 Frc consts  --      1.6318                 2.0971                 1.9843
 IR Inten    --      3.9348                95.5375                17.9634

                     37                     38                     39
                      A                      A                      A
 Frequencies --   1466.1328              1471.2898              1475.7514
 Red. masses --      1.0561                 1.1668                 1.0587
 Frc consts  --      1.3375                 1.4882                 1.3585
 IR Inten    --     10.4558                 3.0015                10.9940

                     40                     41                     42
                      A                      A                      A
 Frequencies --   1493.1386              1779.6723              3008.7487
 Red. masses --      1.2377                10.8393                 1.0844
 Frc consts  --      1.6259                20.2270                 5.7838
 IR Inten    --      6.1803               164.6647                41.6758

                     43                     44                     45
                      A                      A                      A
 Frequencies --   3035.0454              3052.1459              3097.0236
 Red. masses --      1.0383                 1.0606                 1.0969
 Frc consts  --      5.6350                 5.8212                 6.1989
 IR Inten    --      5.6657                40.5734                 6.9357

                     46                     47                     48
                      A                      A                      A
 Frequencies --   3114.8715              3129.9646              3153.3482
 Red. masses --      1.1054                 1.0552                 1.1021
 Frc consts  --      6.3192                 6.0905                 6.4571
 IR Inten    --     21.1619                10.8913                10.9044

                     49                     50                     51
                      A                      A                      A
 Frequencies --   3202.2727              3231.6634              3812.5887
 Red. masses --      1.0934                 1.1150                 1.0660
 Frc consts  --      6.6064                 6.8609                 9.1298
 IR Inten    --      7.5170                 1.5549                22.8995

 - Thermochemistry -
 -------------------
 Temperature   298.150 Kelvin.  Pressure   1.00000 Atm.
 Atom     1 has atomic number  6 and mass  12.00000

 Molecular mass:   126.06808 amu.
 Principal axes and moments of inertia in atomic units:
                           1         2         3
     Eigenvalues --   721.674901249.986741626.43278
           X            0.99821   0.05984   0.00255
           Y           -0.05972   0.99768  -0.03272
           Z           -0.00451   0.03251   0.99946
 This molecule is an asymmetric top.
 Rotational symmetry number  1.
 Warning -- assumption of classical behavior for rotation
           may cause significant error
 Rotational temperatures (Kelvin)      0.12002     0.06929     0.05325
 Rotational constants (GHZ):           2.50077     1.44381     1.10963
 Zero-point vibrational energy     413935.1 (Joules/Mol)
                                   98.93287 (Kcal/Mol)
 Warning -- explicit consideration of  12 degrees of freedom as
           vibrations may cause significant error
 Vibrational temperatures:     84.58   157.40   228.46   263.51   293.31
          (Kelvin)            424.02   472.30   534.41   594.67   683.44
                              817.66   866.85   915.03  1007.15  1166.98
                             1204.25  1233.87  1337.97  1369.42  1396.09
                             1455.85  1487.01  1513.05  1543.87  1562.96
                             1615.86  1627.21  1716.98  1739.58  1779.67
                             1795.84  1872.57  1906.04  1973.90  1998.36
                             2063.99  2109.44  2116.86  2123.27  2148.29
                             2560.55  4328.91  4366.75  4391.35  4455.92
                             4481.60  4503.32  4536.96  4607.35  4649.64
                             5485.46

 Zero-point correction=                           0.157660 (Hartree/Particle)
 Thermal correction to Energy=                    0.166744
 Thermal correction to Enthalpy=                  0.167688
 Thermal correction to Gibbs Free Energy=         0.123648
 Sum of electronic and zero-point Energies=           -423.020076
 Sum of electronic and thermal Energies=              -423.010992
 Sum of electronic and thermal Enthalpies=            -423.010048
 Sum of electronic and thermal Free Energies=         -423.054088

                     E (Thermal)             CV                S
                      KCal/Mol        Cal/Mol-Kelvin    Cal/Mol-Kelvin
 Total                  104.633             33.914             92.690
 Electronic               0.000              0.000              0.000
 Translational            0.889              2.981             40.409
 Rotational               0.889              2.981             28.775
 Vibrational            102.856             27.952             23.507
 Vibration     1          0.596              1.974              4.497
 Vibration     2          0.606              1.942              3.280
 Vibration     3          0.621              1.893              2.564
 Vibration     4          0.631              1.863              2.296
 Vibration     5          0.640              1.834              2.098
 Vibration     6          0.689              1.684              1.447
 Vibration     7          0.711              1.619              1.269
 Vibration     8          0.743              1.531              1.074
 Vibration     9          0.777              1.441              0.915
 Vibration    10          0.832              1.305              0.724
 Vibration    11          0.924              1.100              0.508
 Vibration    12          0.961              1.027              0.445

 Normal termination of Gaussian 09 at Tue Jan 28 03:41:14 2020.
