 Gaussian 09, Revision D.01,
 Gaussian 09:  ES64L-G09RevD.01 24-Apr-2013

 -----------------------------
 # b3lyp 6-31G(2df,p) opt Freq
 -----------------------------

 -----
 titel
 -----
 Symbolic Z-matrix:
 Charge =  0 Multiplicity = 1

 SCF Done:  E(RB3LYP) =  -423.088378414     A.U. after   13 cycles
 Optimization completed.
    -- Stationary point found.
 Normal termination of Gaussian 09 at Tue Jan 28 09:26:41 2020.

 ----------------------------------------------------------------------
 #N Geom=AllCheck Guess=TCheck SCRF=Check GenChk RB3LYP/6-31G(2df,p) Fr
 eq
 ----------------------------------------------------------------------

 Structure from the checkpoint file:  "/scratch/puck/g09_df0f6a8e-0405-46ce-a985-d436842f674d/Gau-105170.chk"
 -----
 titel
 -----
 Charge =  0 Multiplicity = 1

                         Standard orientation:
 ---------------------------------------------------------------------
 Center     Atomic      Atomic             Coordinates (Angstroms)
 Number     Number       Type             X           Y           Z
 ---------------------------------------------------------------------
      1          6           0       -2.868439   -0.624078   -0.040434
      2          8           0       -1.807850   -0.070694   -0.803999
      3          6           0       -0.673680    0.161410   -0.060546
      4          6           0       -0.497180    1.387674    0.796190
      5          6           0        0.435234    1.126543   -0.374950
      6          6           0        1.473080   -0.014785   -0.116211
      7          8           0        2.523288   -0.231719   -0.988139
      8          6           0        1.405179   -0.630120    1.255693
      9          6           0        0.363494   -0.978796    0.206599
     10          1           0       -3.174934    0.053700    0.768323
     11          1           0       -3.707380   -0.775379   -0.723085
     12          1           0       -2.588329   -1.590541    0.401570
     13          1           0       -1.235031    2.155953    0.581058
     14          1           0       -0.168099    1.374623    1.829747
     15          1           0        0.525949    1.804800   -1.213175
     16          1           0        3.265574    0.315664   -0.706247
     17          1           0        2.140697   -1.417687    1.395333
     18          1           0        1.173266   -0.081299    2.162361
     19          1           0        0.218657   -1.987609   -0.156832
 ---------------------------------------------------------------------

 SCF Done:  E(RB3LYP) =  -423.088378414     A.U. after    1 cycles

 The electronic state is 1-A.
 Alpha  occ. eigenvalues --  -19.14682 -19.14671 -10.24031 -10.23805 -10.22349
 Alpha  occ. eigenvalues --  -10.18704 -10.18680 -10.18658 -10.18617  -1.04272
 Alpha  occ. eigenvalues --   -1.03211  -0.90589  -0.79876  -0.69401  -0.64549
 Alpha  occ. eigenvalues --   -0.61372  -0.56715  -0.53699  -0.52494  -0.49611
 Alpha  occ. eigenvalues --   -0.48399  -0.44710  -0.43898  -0.42061  -0.39545
 Alpha  occ. eigenvalues --   -0.39278  -0.37674  -0.35569  -0.33535  -0.31694
 Alpha  occ. eigenvalues --   -0.28662  -0.26672  -0.24803  -0.21072
 Alpha virt. eigenvalues --    0.07845   0.09000   0.10163   0.10436   0.11757
 Alpha virt. eigenvalues --    0.13333   0.14701   0.15518   0.16186   0.16583
 Alpha virt. eigenvalues --    0.17870   0.19252   0.19587   0.21214   0.21959

 Mulliken charges:
               1
     1  C   -0.256484
     2  O   -0.273540
     3  C    0.454500
     4  C   -0.372138
     5  C   -0.230506
     6  C    0.399225
     7  O   -0.454369
     8  C   -0.371369
     9  C   -0.188486
    10  H    0.111070
    11  H    0.126730
    12  H    0.113288
    13  H    0.117595
    14  H    0.108812
    15  H    0.103524
    16  H    0.284575
    17  H    0.116205
    18  H    0.109300
    19  H    0.102070
 Sum of Mulliken charges =   0.00000

 Dipole moment (field-independent basis, Debye):
    X=              0.1690    Y=              0.4940    Z=              1.7346  Tot=              1.8115
 Quadrupole moment (field-independent basis, Debye-Ang):
   XX=            -46.4147   YY=            -51.4615   ZZ=            -55.8297
   XY=              3.0396   XZ=              0.4157   YZ=             -1.0354

  Exact polarizability:  89.133   0.276  71.168   0.304  -0.535  66.798
 Approx polarizability: 117.721   3.856 105.601  -1.298   0.106 105.295

                      1                      2                      3
                      A                      A                      A
 Frequencies --     88.0225               131.4203               181.0250
 Red. masses --      3.0079                 3.6332                 1.1051
 Frc consts  --      0.0137                 0.0370                 0.0213
 IR Inten    --      2.8287                 1.8219                 0.2637

                      4                      5                      6
                      A                      A                      A
 Frequencies --    246.5731               280.3161               332.5095
 Red. masses --      2.4878                 1.2028                 4.0565
 Frc consts  --      0.0891                 0.0557                 0.2642
 IR Inten    --     10.2827                66.9487                10.0226

                      7                      8                      9
                      A                      A                      A
 Frequencies --    362.5733               417.7372               424.8269
 Red. masses --      3.5806                 3.6698                 2.5779
 Frc consts  --      0.2773                 0.3773                 0.2741
 IR Inten    --      9.7508                15.6987                11.2629

                     10                     11                     12
                      A                      A                      A
 Frequencies --    449.4446               472.2523               615.7897
 Red. masses --      2.7861                 2.2596                 3.1542
 Frc consts  --      0.3316                 0.2969                 0.7047
 IR Inten    --      2.5376                 1.9655                 3.7858

                     13                     14                     15
                      A                      A                      A
 Frequencies --    645.0306               786.4889               826.9536
 Red. masses --      3.1368                 3.4212                 1.7013
 Frc consts  --      0.7689                 1.2468                 0.6855
 IR Inten    --      8.5824                 4.7230                10.8523

                     16                     17                     18
                      A                      A                      A
 Frequencies --    842.7939               888.0541               906.7507
 Red. masses --      2.4263                 3.3836                 1.5380
 Frc consts  --      1.0154                 1.5722                 0.7450
 IR Inten    --      5.0036                20.8950                 4.2056

                     19                     20                     21
                      A                      A                      A
 Frequencies --    915.7912               984.6677               990.5765
 Red. masses --      1.4864                 2.2856                 1.5204
 Frc consts  --      0.7345                 1.3057                 0.8790
 IR Inten    --      0.8776                 2.0310                16.0115

                     22                     23                     24
                      A                      A                      A
 Frequencies --    997.6083              1015.8537              1051.9101
 Red. masses --      1.8100                 1.5472                 1.3856
 Frc consts  --      1.0613                 0.9407                 0.9033
 IR Inten    --      3.2592                 5.2603                 2.4859

                     25                     26                     27
                      A                      A                      A
 Frequencies --   1077.7664              1085.6505              1102.1787
 Red. masses --      2.3415                 1.8119                 3.0000
 Frc consts  --      1.6025                 1.2582                 2.1472
 IR Inten    --     24.7069                32.9759                 3.7386

                     28                     29                     30
                      A                      A                      A
 Frequencies --   1156.9134              1169.9317              1180.1746
 Red. masses --      2.1793                 1.5735                 1.2940
 Frc consts  --      1.7186                 1.2689                 1.0619
 IR Inten    --    147.4657                 2.5550                 5.2587

                     31                     32                     33
                      A                      A                      A
 Frequencies --   1213.3741              1243.9872              1283.6484
 Red. masses --      1.5937                 2.0801                 3.0361
 Frc consts  --      1.3825                 1.8966                 2.9475
 IR Inten    --      3.1250                30.4445                20.4623

                     34                     35                     36
                      A                      A                      A
 Frequencies --   1292.4516              1372.0265              1404.8414
 Red. masses --      1.8783                 2.4580                 1.7445
 Frc consts  --      1.8486                 2.7261                 2.0285
 IR Inten    --     90.1630               119.1992                18.9036

                     37                     38                     39
                      A                      A                      A
 Frequencies --   1470.2870              1486.7129              1494.2946
 Red. masses --      1.2666                 1.0529                 1.5907
 Frc consts  --      1.6133                 1.3712                 2.0927
 IR Inten    --     12.1909                 3.5317                33.5494

                     40                     41                     42
                      A                      A                      A
 Frequencies --   1506.0661              1510.2993              2993.6733
 Red. masses --      1.0676                 1.3164                 1.0345
 Frc consts  --      1.4268                 1.7692                 5.4625
 IR Inten    --      5.7233                 8.0903                50.9278

                     43                     44                     45
                      A                      A                      A
 Frequencies --   3047.7748              3114.7825              3123.2536
 Red. masses --      1.1041                 1.0538                 1.0987
 Frc consts  --      6.0424                 6.0237                 6.3144
 IR Inten    --     42.3784                 8.7125                29.9528

                     46                     47                     48
                      A                      A                      A
 Frequencies --   3128.2810              3196.7567              3202.4417
 Red. masses --      1.0536                 1.1146                 1.1030
 Frc consts  --      6.0751                 6.7109                 6.6647
 IR Inten    --     19.2533                 5.6249                 1.6962

                     49                     50                     51
                      A                      A                      A
 Frequencies --   3206.4016              3208.6231              3776.7517
 Red. masses --      1.0940                 1.1049                 1.0660
 Frc consts  --      6.6266                 6.7022                 8.9587
 IR Inten    --      8.9541                16.8283                17.8142

 - Thermochemistry -
 -------------------
 Temperature   298.150 Kelvin.  Pressure   1.00000 Atm.
 Atom     1 has atomic number  6 and mass  12.00000

 Molecular mass:   126.06808 amu.
 Principal axes and moments of inertia in atomic units:
                           1         2         3
     Eigenvalues --   528.865961544.878921585.05968
           X            0.99996   0.00826   0.00163
           Y           -0.00818   0.99890  -0.04612
           Z           -0.00201   0.04610   0.99893
 This molecule is an asymmetric top.
 Rotational symmetry number  1.
 Warning -- assumption of classical behavior for rotation
           may cause significant error
 Rotational temperatures (Kelvin)      0.16377     0.05607     0.05464
 Rotational constants (GHZ):           3.41247     1.16821     1.13860
 Zero-point vibrational energy     412139.3 (Joules/Mol)
                                   98.50366 (Kcal/Mol)
 Warning -- explicit consideration of  12 degrees of freedom as
           vibrations may cause significant error
 Vibrational temperatures:    126.64   189.08   260.45   354.76   403.31
          (Kelvin)            478.41   521.66   601.03   611.23   646.65
                              679.46   885.98   928.05  1131.58  1189.80
                             1212.59  1277.71  1304.61  1317.62  1416.72
                             1425.22  1435.33  1461.59  1513.46  1550.66
                             1562.01  1585.79  1664.54  1683.27  1698.01
                             1745.77  1789.82  1846.88  1859.55  1974.04
                             2021.25  2115.41  2139.05  2149.95  2166.89
                             2172.98  4307.22  4385.06  4481.47  4493.66
                             4500.89  4599.41  4607.59  4613.29  4616.49
                             5433.90

 Zero-point correction=                           0.156976 (Hartree/Particle)
 Thermal correction to Energy=                    0.165664
 Thermal correction to Enthalpy=                  0.166608
 Thermal correction to Gibbs Free Energy=         0.123955
 Sum of electronic and zero-point Energies=           -422.931403
 Sum of electronic and thermal Energies=              -422.922714
 Sum of electronic and thermal Enthalpies=            -422.921770
 Sum of electronic and thermal Free Energies=         -422.964424

                     E (Thermal)             CV                S
                      KCal/Mol        Cal/Mol-Kelvin    Cal/Mol-Kelvin
 Total                  103.956             33.834             89.772
 Electronic               0.000              0.000              0.000
 Translational            0.889              2.981             40.409
 Rotational               0.889              2.981             28.651
 Vibrational            102.178             27.873             20.713
 Vibration     1          0.601              1.958              3.704
 Vibration     2          0.612              1.922              2.925
 Vibration     3          0.630              1.866              2.318
 Vibration     4          0.661              1.768              1.755
 Vibration     5          0.680              1.710              1.532
 Vibration     6          0.714              1.611              1.248
 Vibration     7          0.736              1.549              1.111
 Vibration     8          0.781              1.432              0.900
 Vibration     9          0.787              1.416              0.876
 Vibration    10          0.808              1.362              0.797
 Vibration    11          0.829              1.312              0.731
 Vibration    12          0.975              0.998              0.423

 Normal termination of Gaussian 09 at Tue Jan 28 10:09:04 2020.
