 Gaussian 09, Revision D.01,
 Gaussian 09:  ES64L-G09RevD.01 24-Apr-2013

 -----------------------------
 # b3lyp 6-31G(2df,p) opt Freq
 -----------------------------

 -----
 titel
 -----
 Symbolic Z-matrix:
 Charge =  0 Multiplicity = 1

 SCF Done:  E(RB3LYP) =  -423.171674751     A.U. after   14 cycles
 Optimization completed.
    -- Stationary point found.
 Normal termination of Gaussian 09 at Tue Jan 28 02:54:59 2020.

 ----------------------------------------------------------------------
 #N Geom=AllCheck Guess=TCheck SCRF=Check GenChk RB3LYP/6-31G(2df,p) Fr
 eq
 ----------------------------------------------------------------------

 Structure from the checkpoint file:  "/scratch/puck/g09_a7779cc1-3967-4702-ad57-9942a649edac/Gau-11503.chk"
 -----
 titel
 -----
 Charge =  0 Multiplicity = 1

                         Standard orientation:
 ---------------------------------------------------------------------
 Center     Atomic      Atomic             Coordinates (Angstroms)
 Number     Number       Type             X           Y           Z
 ---------------------------------------------------------------------
      1          6           0       -2.921829    0.520503    0.055063
      2          6           0       -1.538445    0.189704   -0.467546
      3          8           0       -1.190117   -1.203361   -0.204254
      4          6           0       -0.134881   -0.825021    0.705390
      5          6           0       -0.337290    0.686183    0.359512
      6          6           0        1.011362    0.717724   -0.422231
      7          6           0        2.100925    1.643791    0.120645
      8          6           0        1.224742   -0.766537   -0.029515
      9          8           0        2.132981   -1.530842   -0.169954
     10          1           0       -2.987590    0.341651    1.132799
     11          1           0       -3.161454    1.571846   -0.139644
     12          1           0       -3.672057   -0.101391   -0.442549
     13          1           0       -1.471016    0.406874   -1.541952
     14          1           0       -0.208723   -1.310519    1.682270
     15          1           0       -0.503449    1.465171    1.102054
     16          1           0        0.891961    0.869535   -1.501101
     17          1           0        2.225919    1.522416    1.202035
     18          1           0        3.060421    1.417842   -0.352826
     19          1           0        1.855573    2.692114   -0.075329
 ---------------------------------------------------------------------

 SCF Done:  E(RB3LYP) =  -423.171674751     A.U. after    1 cycles

 The electronic state is 1-A.
 Alpha  occ. eigenvalues --  -19.14726 -19.14351 -10.26837 -10.24559 -10.24172
 Alpha  occ. eigenvalues --  -10.20337 -10.20269 -10.19188 -10.18544  -1.05769
 Alpha  occ. eigenvalues --   -1.04300  -0.83706  -0.76555  -0.73057  -0.66198
 Alpha  occ. eigenvalues --   -0.62993  -0.57063  -0.52261  -0.50181  -0.48921
 Alpha  occ. eigenvalues --   -0.47313  -0.44919  -0.41856  -0.41646  -0.40550
 Alpha  occ. eigenvalues --   -0.39799  -0.39279  -0.37616  -0.36962  -0.34629
 Alpha  occ. eigenvalues --   -0.31625  -0.30033  -0.28269  -0.23103
 Alpha virt. eigenvalues --   -0.03394   0.08467   0.09677   0.10073   0.10673
 Alpha virt. eigenvalues --    0.12682   0.13956   0.14834   0.15051   0.15518
 Alpha virt. eigenvalues --    0.16276   0.18050   0.18214   0.19463   0.20697

 Mulliken charges:
               1
     1  C   -0.408401
     2  C    0.147768
     3  O   -0.307214
     4  C   -0.013879
     5  C   -0.105894
     6  C   -0.130522
     7  C   -0.412719
     8  C    0.409376
     9  O   -0.295258
    10  H    0.122796
    11  H    0.117688
    12  H    0.132569
    13  H    0.081804
    14  H    0.091775
    15  H    0.083169
    16  H    0.102383
    17  H    0.121706
    18  H    0.140334
    19  H    0.122520
 Sum of Mulliken charges =   0.00000

 Dipole moment (field-independent basis, Debye):
    X=             -1.4726    Y=              3.3561    Z=              0.6786  Tot=              3.7272
 Quadrupole moment (field-independent basis, Debye-Ang):
   XX=            -56.4316   YY=            -57.3109   ZZ=            -50.7593
   XY=              2.7112   XZ=              0.6430   YZ=             -1.7781

  Exact polarizability:  90.704  -2.131  74.317  -0.328  -2.788  63.946
 Approx polarizability: 118.443  -7.962 113.536   0.092  -2.991  99.169

                      1                      2                      3
                      A                      A                      A
 Frequencies --     62.8432               149.6733               172.2811
 Red. masses --      4.7146                 3.2022                 3.5478
 Frc consts  --      0.0110                 0.0423                 0.0620
 IR Inten    --      1.0959                 0.6001                 2.1923

                      4                      5                      6
                      A                      A                      A
 Frequencies --    192.9327               215.4376               239.5436
 Red. masses --      2.7309                 1.0500                 1.0922
 Frc consts  --      0.0599                 0.0287                 0.0369
 IR Inten    --      1.5341                 0.1597                 0.1832

                      7                      8                      9
                      A                      A                      A
 Frequencies --    321.1713               333.1985               423.2955
 Red. masses --      3.0461                 4.0961                 4.3561
 Frc consts  --      0.1851                 0.2679                 0.4599
 IR Inten    --      1.2315                 5.1328                 2.3040

                     10                     11                     12
                      A                      A                      A
 Frequencies --    447.3575               648.8726               741.5669
 Red. masses --      3.5117                 3.9171                 4.0520
 Frc consts  --      0.4141                 0.9717                 1.3129
 IR Inten    --      2.8431                 0.3366                 8.0889

                     13                     14                     15
                      A                      A                      A
 Frequencies --    763.4270               813.4665               821.8040
 Red. masses --      2.4955                 2.1151                 2.3175
 Frc consts  --      0.8569                 0.8246                 0.9222
 IR Inten    --      4.8854                 2.4357                10.3030

                     16                     17                     18
                      A                      A                      A
 Frequencies --    868.7037               916.9398               933.4567
 Red. masses --      2.2132                 3.1425                 2.8431
 Frc consts  --      0.9840                 1.5567                 1.4596
 IR Inten    --      4.1537                15.8881                 7.3625

                     19                     20                     21
                      A                      A                      A
 Frequencies --    974.3580              1024.3751              1042.5367
 Red. masses --      2.6165                 1.5714                 2.1979
 Frc consts  --      1.4635                 0.9715                 1.4075
 IR Inten    --     55.6671                 3.4337                34.4926

                     22                     23                     24
                      A                      A                      A
 Frequencies --   1077.3156              1078.7398              1093.5491
 Red. masses --      2.0896                 2.3440                 1.9827
 Frc consts  --      1.4289                 1.6071                 1.3970
 IR Inten    --      8.7682                44.9547                 1.3759

                     25                     26                     27
                      A                      A                      A
 Frequencies --   1106.7533              1150.1507              1172.4169
 Red. masses --      1.8841                 2.5369                 1.7942
 Frc consts  --      1.3597                 1.9772                 1.4531
 IR Inten    --      2.0276                 1.8969                 6.6389

                     28                     29                     30
                      A                      A                      A
 Frequencies --   1213.4549              1236.7027              1249.7750
 Red. masses --      1.6276                 1.7502                 1.4867
 Frc consts  --      1.4121                 1.5771                 1.3682
 IR Inten    --      1.0949                 7.8077                 1.2368

                     31                     32                     33
                      A                      A                      A
 Frequencies --   1264.8671              1315.4665              1330.1253
 Red. masses --      1.3350                 1.4971                 1.6495
 Frc consts  --      1.2584                 1.5263                 1.7195
 IR Inten    --      1.0139                 3.0795                 2.3373

                     34                     35                     36
                      A                      A                      A
 Frequencies --   1389.7247              1405.2228              1408.4515
 Red. masses --      1.3550                 1.2428                 1.3064
 Frc consts  --      1.5418                 1.4459                 1.5270
 IR Inten    --     12.8090                 6.7183                 8.0792

                     37                     38                     39
                      A                      A                      A
 Frequencies --   1484.1749              1491.4619              1494.4198
 Red. masses --      1.0559                 1.0490                 1.0457
 Frc consts  --      1.3704                 1.3749                 1.3759
 IR Inten    --      3.3601                 3.1939                 6.3680

                     40                     41                     42
                      A                      A                      A
 Frequencies --   1496.3388              1890.7157              3015.5516
 Red. masses --      1.0481                12.5994                 1.0848
 Frc consts  --      1.3827                26.5371                 5.8120
 IR Inten    --      2.5137               237.2835                39.8472

                     43                     44                     45
                      A                      A                      A
 Frequencies --   3033.4791              3035.1256              3044.9436
 Red. masses --      1.0354                 1.0352                 1.0836
 Frc consts  --      5.6134                 5.6186                 5.9194
 IR Inten    --     15.8353                20.6758                13.9531

                     46                     47                     48
                      A                      A                      A
 Frequencies --   3076.7313              3102.7989              3106.0312
 Red. masses --      1.0888                 1.1014                 1.1007
 Frc consts  --      6.0728                 6.2477                 6.2564
 IR Inten    --     33.9855                22.8875                21.8493

                     49                     50                     51
                      A                      A                      A
 Frequencies --   3115.3796              3117.7553              3126.8268
 Red. masses --      1.1022                 1.1016                 1.0905
 Frc consts  --      6.3028                 6.3090                 6.2817
 IR Inten    --     17.9938                10.9088                23.0612

 - Thermochemistry -
 -------------------
 Temperature   298.150 Kelvin.  Pressure   1.00000 Atm.
 Atom     1 has atomic number  6 and mass  12.00000

 Molecular mass:   126.06808 amu.
 Principal axes and moments of inertia in atomic units:
                           1         2         3
     Eigenvalues --   598.426971394.367421810.97649
           X            0.99958   0.02910   0.00019
           Y           -0.02909   0.99953  -0.00938
           Z           -0.00047   0.00937   0.99996
 This molecule is an asymmetric top.
 Rotational symmetry number  1.
 Warning -- assumption of classical behavior for rotation
           may cause significant error
 Rotational temperatures (Kelvin)      0.14474     0.06212     0.04783
 Rotational constants (GHZ):           3.01581     1.29431     0.99656
 Zero-point vibrational energy     414097.5 (Joules/Mol)
                                   98.97167 (Kcal/Mol)
 Warning -- explicit consideration of  10 degrees of freedom as
           vibrations may cause significant error
 Vibrational temperatures:     90.42   215.35   247.87   277.59   309.97
          (Kelvin)            344.65   462.09   479.40   609.03   643.65
                              933.58  1066.95  1098.40  1170.40  1182.39
                             1249.87  1319.27  1343.03  1401.88  1473.85
                             1499.98  1550.01  1552.06  1573.37  1592.37
                             1654.81  1686.84  1745.89  1779.34  1798.15
                             1819.86  1892.66  1913.75  1999.50  2021.80
                             2026.45  2135.39  2145.88  2150.13  2152.90
                             2720.31  4338.70  4364.49  4366.86  4380.99
                             4426.72  4464.23  4468.88  4482.33  4485.75
                             4498.80

 Zero-point correction=                           0.157721 (Hartree/Particle)
 Thermal correction to Energy=                    0.166547
 Thermal correction to Enthalpy=                  0.167491
 Thermal correction to Gibbs Free Energy=         0.124021
 Sum of electronic and zero-point Energies=           -423.013953
 Sum of electronic and thermal Energies=              -423.005128
 Sum of electronic and thermal Enthalpies=            -423.004184
 Sum of electronic and thermal Free Energies=         -423.047654

                     E (Thermal)             CV                S
                      KCal/Mol        Cal/Mol-Kelvin    Cal/Mol-Kelvin
 Total                  104.510             32.656             91.491
 Electronic               0.000              0.000              0.000
 Translational            0.889              2.981             40.409
 Rotational               0.889              2.981             28.804
 Vibrational            102.732             26.694             22.279
 Vibration     1          0.597              1.972              4.366
 Vibration     2          0.618              1.903              2.676
 Vibration     3          0.626              1.877              2.410
 Vibration     4          0.635              1.850              2.199
 Vibration     5          0.645              1.817              1.997
 Vibration     6          0.657              1.780              1.806
 Vibration     7          0.707              1.633              1.304
 Vibration     8          0.715              1.609              1.245
 Vibration     9          0.785              1.420              0.881
 Vibration    10          0.806              1.367              0.804

 Normal termination of Gaussian 09 at Tue Jan 28 03:42:02 2020.
