 Gaussian 09, Revision D.01,
 Gaussian 09:  ES64L-G09RevD.01 24-Apr-2013

 -----------------------------
 # b3lyp 6-31G(2df,p) opt Freq
 -----------------------------

 -----
 titel
 -----
 Symbolic Z-matrix:
 Charge =  0 Multiplicity = 1

 SCF Done:  E(RB3LYP) =  -423.173311156     A.U. after   14 cycles
 Optimization completed.
    -- Stationary point found.
 Normal termination of Gaussian 09 at Mon Jan 27 14:04:51 2020.

 ----------------------------------------------------------------------
 #N Geom=AllCheck Guess=TCheck SCRF=Check GenChk RB3LYP/6-31G(2df,p) Fr
 eq
 ----------------------------------------------------------------------

 Structure from the checkpoint file:  "/scratch/puck/g09_bef43e72-d1f2-4158-b08c-7c1114fc8c92/Gau-103621.chk"
 -----
 titel
 -----
 Charge =  0 Multiplicity = 1

                         Standard orientation:
 ---------------------------------------------------------------------
 Center     Atomic      Atomic             Coordinates (Angstroms)
 Number     Number       Type             X           Y           Z
 ---------------------------------------------------------------------
      1          6           0        2.927837   -0.584617   -0.316759
      2          6           0        1.727021    0.291495   -0.012988
      3          8           0        1.724943    1.479616   -0.244963
      4          6           0        0.515171   -0.425219    0.562141
      5          6           0       -0.588824    0.514502    1.146016
      6          6           0       -1.533665    0.065830    0.016791
      7          6           0       -2.665148    0.816454   -0.602149
      8          8           0       -1.644318   -1.368817    0.126138
      9          6           0       -0.505271   -0.828018   -0.540179
     10          1           0        3.364170   -0.945734    0.622228
     11          1           0        2.629894   -1.472396   -0.885714
     12          1           0        3.677280   -0.017464   -0.869855
     13          1           0        0.821388   -1.273885    1.179951
     14          1           0       -0.932431    0.292339    2.158486
     15          1           0       -0.285394    1.559255    1.057383
     16          1           0       -3.495094    0.920140    0.106004
     17          1           0       -2.344607    1.820836   -0.895642
     18          1           0       -3.035383    0.290467   -1.486059
     19          1           0       -0.307547   -1.162514   -1.553416
 ---------------------------------------------------------------------

 SCF Done:  E(RB3LYP) =  -423.173311156     A.U. after    1 cycles

 The electronic state is 1-A.
 Alpha  occ. eigenvalues --  -19.15047 -19.13291 -10.27376 -10.24362 -10.24297
 Alpha  occ. eigenvalues --  -10.20120 -10.19306 -10.18715 -10.18688  -1.07872
 Alpha  occ. eigenvalues --   -1.04296  -0.81373  -0.75742  -0.73877  -0.66265
 Alpha  occ. eigenvalues --   -0.63056  -0.55608  -0.53410  -0.48788  -0.47740
 Alpha  occ. eigenvalues --   -0.46709  -0.44219  -0.43534  -0.42703  -0.41390
 Alpha  occ. eigenvalues --   -0.40308  -0.38481  -0.36890  -0.35501  -0.34875
 Alpha  occ. eigenvalues --   -0.32832  -0.29296  -0.25830  -0.24548
 Alpha virt. eigenvalues --   -0.01887   0.08558   0.09259   0.10705   0.11821
 Alpha virt. eigenvalues --    0.12833   0.14021   0.14877   0.15212   0.15999
 Alpha virt. eigenvalues --    0.16734   0.17721   0.18569   0.19586   0.21741

 Mulliken charges:
               1
     1  C   -0.481655
     2  C    0.366412
     3  O   -0.299561
     4  C   -0.122549
     5  C   -0.318113
     6  C    0.430120
     7  C   -0.501886
     8  O   -0.287758
     9  C   -0.044794
    10  H    0.145949
    11  H    0.138947
    12  H    0.142800
    13  H    0.087980
    14  H    0.104388
    15  H    0.134741
    16  H    0.131727
    17  H    0.134751
    18  H    0.133655
    19  H    0.104843
 Sum of Mulliken charges =   0.00000

 Dipole moment (field-independent basis, Debye):
    X=              0.5337    Y=             -0.8658    Z=             -0.1824  Tot=              1.0333
 Quadrupole moment (field-independent basis, Debye-Ang):
   XX=            -51.3390   YY=            -58.4355   ZZ=            -50.8665
   XY=             -8.7198   XZ=              1.4785   YZ=              1.7912

  Exact polarizability:  91.140  -5.310  72.636  -1.332   1.610  65.198
 Approx polarizability: 114.662  -1.419 122.507  -4.051   0.443  97.814

                      1                      2                      3
                      A                      A                      A
 Frequencies --     41.9025                88.2436               134.3445
 Red. masses --      4.0457                 3.5644                 1.0481
 Frc consts  --      0.0042                 0.0164                 0.0111
 IR Inten    --      4.3222                 2.4054                 0.2486

                      4                      5                      6
                      A                      A                      A
 Frequencies --    175.8850               208.1842               290.7626
 Red. masses --      1.8782                 1.4618                 3.2834
 Frc consts  --      0.0342                 0.0373                 0.1636
 IR Inten    --      2.7513                 2.1296                 1.6732

                      7                      8                      9
                      A                      A                      A
 Frequencies --    299.1292               363.2081               380.7152
 Red. masses --      2.4789                 3.3354                 2.2149
 Frc consts  --      0.1307                 0.2592                 0.1892
 IR Inten    --      0.1499                 3.8918                 3.4759

                     10                     11                     12
                      A                      A                      A
 Frequencies --    474.3491               572.2398               592.6502
 Red. masses --      4.1714                 2.7041                 3.6710
 Frc consts  --      0.5530                 0.5217                 0.7597
 IR Inten    --     10.8964                 2.2573                14.5879

                     13                     14                     15
                      A                      A                      A
 Frequencies --    640.0188               737.9309               779.8389
 Red. masses --      3.4423                 3.4385                 3.0492
 Frc consts  --      0.8308                 1.1032                 1.0925
 IR Inten    --      2.5370                 5.3262                 5.4515

                     16                     17                     18
                      A                      A                      A
 Frequencies --    866.0275               894.6616               917.6962
 Red. masses --      2.6494                 2.3917                 2.6456
 Frc consts  --      1.1707                 1.1279                 1.3127
 IR Inten    --     19.9503                 5.6300                 8.9499

                     19                     20                     21
                      A                      A                      A
 Frequencies --    939.4946               967.4140               991.7773
 Red. masses --      2.1489                 1.9311                 1.6433
 Frc consts  --      1.1175                 1.0648                 0.9523
 IR Inten    --     10.4734                 4.1949                 3.2092

                     22                     23                     24
                      A                      A                      A
 Frequencies --   1009.7374              1048.1580              1065.5794
 Red. masses --      1.6512                 2.3574                 2.2507
 Frc consts  --      0.9919                 1.5260                 1.5057
 IR Inten    --      3.9946                10.6791                 3.7610

                     25                     26                     27
                      A                      A                      A
 Frequencies --   1096.1310              1168.3086              1184.4511
 Red. masses --      1.8251                 1.5291                 1.6442
 Frc consts  --      1.2920                 1.2297                 1.3590
 IR Inten    --     23.2169                26.6101                56.9920

                     28                     29                     30
                      A                      A                      A
 Frequencies --   1193.1938              1216.9782              1252.1338
 Red. masses --      1.4711                 1.5176                 1.4496
 Frc consts  --      1.2340                 1.3243                 1.3391
 IR Inten    --     32.3606                 0.2742                 7.2888

                     31                     32                     33
                      A                      A                      A
 Frequencies --   1270.5567              1344.9526              1381.8198
 Red. masses --      2.3507                 1.7236                 1.3684
 Frc consts  --      2.2358                 1.8370                 1.5394
 IR Inten    --     17.5098                36.8701                43.1694

                     34                     35                     36
                      A                      A                      A
 Frequencies --   1402.6456              1445.8089              1461.7611
 Red. masses --      1.3038                 1.4891                 1.0537
 Frc consts  --      1.5113                 1.8340                 1.3266
 IR Inten    --      4.1526                21.1248                 9.2154

                     37                     38                     39
                      A                      A                      A
 Frequencies --   1473.1769              1474.9112              1484.8924
 Red. masses --      1.2895                 1.1097                 1.1484
 Frc consts  --      1.6488                 1.4222                 1.4918
 IR Inten    --      4.8356                 7.4660                 8.7852

                     40                     41                     42
                      A                      A                      A
 Frequencies --   1497.4513              1805.7874              3033.7702
 Red. masses --      1.4063                10.5594                 1.0373
 Frc consts  --      1.8579                20.2872                 5.6252
 IR Inten    --      5.5410               116.3111                 1.3922

                     43                     44                     45
                      A                      A                      A
 Frequencies --   3035.6968              3070.6818              3076.4560
 Red. masses --      1.0364                 1.0697                 1.0729
 Frc consts  --      5.6273                 5.9425                 5.9829
 IR Inten    --     20.8410                26.2212                19.7061

                     46                     47                     48
                      A                      A                      A
 Frequencies --   3093.6538              3099.6572              3123.0663
 Red. masses --      1.0977                 1.0993                 1.1016
 Frc consts  --      6.1900                 6.2227                 6.3304
 IR Inten    --      8.1175                12.9018                11.9107

                     49                     50                     51
                      A                      A                      A
 Frequencies --   3141.3556              3152.5942              3170.4848
 Red. masses --      1.1080                 1.1019                 1.0933
 Frc consts  --      6.4422                 6.4525                 6.4751
 IR Inten    --      6.8138                10.8024                14.8103

 - Thermochemistry -
 -------------------
 Temperature   298.150 Kelvin.  Pressure   1.00000 Atm.
 Atom     1 has atomic number  6 and mass  12.00000

 Molecular mass:   126.06808 amu.
 Principal axes and moments of inertia in atomic units:
                           1         2         3
     Eigenvalues --   529.202891641.230461853.06466
           X            0.99854  -0.05394   0.00424
           Y            0.05384   0.99833   0.02100
           Z           -0.00536  -0.02074   0.99977
 This molecule is an asymmetric top.
 Rotational symmetry number  1.
 Warning -- assumption of classical behavior for rotation
           may cause significant error
 Rotational temperatures (Kelvin)      0.16367     0.05277     0.04674
 Rotational constants (GHZ):           3.41030     1.09963     0.97392
 Zero-point vibrational energy     410512.5 (Joules/Mol)
                                   98.11483 (Kcal/Mol)
 Warning -- explicit consideration of  12 degrees of freedom as
           vibrations may cause significant error
 Vibrational temperatures:     60.29   126.96   193.29   253.06   299.53
          (Kelvin)            418.34   430.38   522.57   547.76   682.48
                              823.32   852.69   920.84  1061.72  1122.01
                             1246.02  1287.22  1320.36  1351.72  1391.89
                             1426.94  1452.79  1508.06  1533.13  1577.09
                             1680.93  1704.16  1716.74  1750.96  1801.54
                             1828.05  1935.08  1988.13  2018.09  2080.19
                             2103.15  2119.57  2122.07  2136.43  2154.50
                             2598.12  4364.91  4367.69  4418.02  4426.33
                             4451.07  4459.71  4493.39  4519.70  4535.87
                             4561.61

 Zero-point correction=                           0.156356 (Hartree/Particle)
 Thermal correction to Energy=                    0.165619
 Thermal correction to Enthalpy=                  0.166563
 Thermal correction to Gibbs Free Energy=         0.121668
 Sum of electronic and zero-point Energies=           -423.016955
 Sum of electronic and thermal Energies=              -423.007692
 Sum of electronic and thermal Enthalpies=            -423.006748
 Sum of electronic and thermal Free Energies=         -423.051643

                     E (Thermal)             CV                S
                      KCal/Mol        Cal/Mol-Kelvin    Cal/Mol-Kelvin
 Total                  103.927             33.897             94.489
 Electronic               0.000              0.000              0.000
 Translational            0.889              2.981             40.409
 Rotational               0.889              2.981             28.866
 Vibrational            102.150             27.936             25.214
 Vibration     1          0.595              1.980              5.167
 Vibration     2          0.601              1.957              3.699
 Vibration     3          0.613              1.919              2.883
 Vibration     4          0.628              1.872              2.372
 Vibration     5          0.641              1.828              2.060
 Vibration     6          0.687              1.691              1.470
 Vibration     7          0.692              1.675              1.422
 Vibration     8          0.737              1.548              1.108
 Vibration     9          0.750              1.511              1.036
 Vibration    10          0.831              1.307              0.725
 Vibration    11          0.928              1.091              0.500
 Vibration    12          0.950              1.047              0.462

 Normal termination of Gaussian 09 at Mon Jan 27 14:43:43 2020.
