 Gaussian 09, Revision D.01,
 Gaussian 09:  ES64L-G09RevD.01 24-Apr-2013

 -----------------------------
 # b3lyp 6-31G(2df,p) opt Freq
 -----------------------------

 -----
 titel
 -----
 Symbolic Z-matrix:
 Charge =  0 Multiplicity = 1

 SCF Done:  E(RB3LYP) =  -423.150359034     A.U. after   14 cycles
 Optimization completed.
    -- Stationary point found.
 Normal termination of Gaussian 09 at Mon Jan 27 12:13:16 2020.

 ----------------------------------------------------------------------
 #N Geom=AllCheck Guess=TCheck SCRF=Check GenChk RB3LYP/6-31G(2df,p) Fr
 eq
 ----------------------------------------------------------------------

 Structure from the checkpoint file:  "/scratch/puck/g09_b71e2d2b-0d59-4c20-bf8d-fca63ef040a3/Gau-153083.chk"
 -----
 titel
 -----
 Charge =  0 Multiplicity = 1

                         Standard orientation:
 ---------------------------------------------------------------------
 Center     Atomic      Atomic             Coordinates (Angstroms)
 Number     Number       Type             X           Y           Z
 ---------------------------------------------------------------------
      1          6           0       -2.548622   -0.602063   -0.092264
      2          8           0       -1.895458    0.091801    0.972265
      3          6           0       -1.541949    0.427470   -0.372821
      4          6           0       -0.133191    0.123380   -0.850700
      5          8           0        0.713833    1.265776   -0.670058
      6          6           0        1.376304    1.152749    0.593036
      7          6           0        1.541384   -0.334632    0.829268
      8          6           0        2.034649   -1.138771   -0.346078
      9          6           0        0.553872   -1.002345   -0.096039
     10          1           0       -2.293314   -1.656352   -0.190655
     11          1           0       -3.604386   -0.370562   -0.225754
     12          1           0       -1.892464    1.410135   -0.691943
     13          1           0       -0.173458   -0.044266   -1.935573
     14          1           0        2.317608    1.706116    0.507675
     15          1           0        0.777381    1.601262    1.399451
     16          1           0        1.699032   -0.691392    1.839601
     17          1           0        2.463616   -0.605514   -1.189064
     18          1           0        2.485678   -2.102621   -0.138755
     19          1           0       -0.021380   -1.862145    0.220948
 ---------------------------------------------------------------------

 SCF Done:  E(RB3LYP) =  -423.150359034     A.U. after    1 cycles

 The electronic state is 1-A.
 Alpha  occ. eigenvalues --  -19.15214 -19.13680 -10.23651 -10.23620 -10.23566
 Alpha  occ. eigenvalues --  -10.22437 -10.19257 -10.19075 -10.18559  -1.07237
 Alpha  occ. eigenvalues --   -1.03355  -0.85729  -0.75483  -0.67972  -0.65642
 Alpha  occ. eigenvalues --   -0.61709  -0.57360  -0.56186  -0.52089  -0.50084
 Alpha  occ. eigenvalues --   -0.48338  -0.46302  -0.44013  -0.41935  -0.39813
 Alpha  occ. eigenvalues --   -0.39289  -0.38282  -0.35782  -0.31968  -0.30865
 Alpha  occ. eigenvalues --   -0.29328  -0.28642  -0.27022  -0.24793
 Alpha virt. eigenvalues --    0.09182   0.09329   0.10744   0.11297   0.12452
 Alpha virt. eigenvalues --    0.12979   0.13924   0.14249   0.15251   0.16768
 Alpha virt. eigenvalues --    0.17580   0.18168   0.18785   0.20329   0.21531

 Mulliken charges:
               1
     1  C   -0.191722
     2  O   -0.226910
     3  C    0.067318
     4  C    0.062657
     5  O   -0.274581
     6  C   -0.100086
     7  C   -0.035914
     8  C   -0.312528
     9  C   -0.041860
    10  H    0.113112
    11  H    0.118063
    12  H    0.102547
    13  H    0.088133
    14  H    0.106049
    15  H    0.106060
    16  H    0.092376
    17  H    0.121551
    18  H    0.110759
    19  H    0.094976
 Sum of Mulliken charges =   0.00000

 Dipole moment (field-independent basis, Debye):
    X=             -0.1634    Y=             -1.3961    Z=             -0.5598  Tot=              1.5130
 Quadrupole moment (field-independent basis, Debye-Ang):
   XX=            -49.9652   YY=            -52.4314   ZZ=            -54.4100
   XY=              0.3002   XZ=              4.6983   YZ=              0.8821

  Exact polarizability:  85.985   1.975  72.052   1.937   1.626  64.525
 Approx polarizability: 110.921   6.303 106.518   1.767   1.941 104.955

                      1                      2                      3
                      A                      A                      A
 Frequencies --     57.5855               122.9128               179.1863
 Red. masses --      3.6230                 3.9320                 3.1166
 Frc consts  --      0.0071                 0.0350                 0.0590
 IR Inten    --      2.4763                 6.1360                 0.4538

                      4                      5                      6
                      A                      A                      A
 Frequencies --    276.8024               297.8137               376.8137
 Red. masses --      3.5878                 2.9260                 2.3442
 Frc consts  --      0.1620                 0.1529                 0.1961
 IR Inten    --      0.9295                 2.1522                 0.2790

                      7                      8                      9
                      A                      A                      A
 Frequencies --    442.6852               544.3032               692.7177
 Red. masses --      4.0984                 3.5840                 2.8598
 Frc consts  --      0.4732                 0.6256                 0.8085
 IR Inten    --      7.5386                 7.6135                 3.3525

                     10                     11                     12
                      A                      A                      A
 Frequencies --    739.7068               788.8743               812.9967
 Red. masses --      3.0575                 3.9415                 2.2163
 Frc consts  --      0.9857                 1.4452                 0.8631
 IR Inten    --      4.1410                16.9392                 0.4025

                     13                     14                     15
                      A                      A                      A
 Frequencies --    822.4224               881.3605               895.6434
 Red. masses --      1.3082                 3.1351                 2.1227
 Frc consts  --      0.5213                 1.4349                 1.0032
 IR Inten    --     12.6557                 5.9364                19.1949

                     16                     17                     18
                      A                      A                      A
 Frequencies --    919.7204               940.5042               968.8778
 Red. masses --      4.2683                 2.4904                 2.6278
 Frc consts  --      2.1272                 1.2979                 1.4534
 IR Inten    --     15.2059                 7.7036                42.1525

                     19                     20                     21
                      A                      A                      A
 Frequencies --   1003.3259              1022.6273              1060.4963
 Red. masses --      1.7302                 2.6036                 1.6517
 Frc consts  --      1.0262                 1.6042                 1.0945
 IR Inten    --     20.7267                 4.4698                13.6687

                     22                     23                     24
                      A                      A                      A
 Frequencies --   1080.0885              1087.0778              1099.1689
 Red. masses --      1.3670                 1.5813                 1.3148
 Frc consts  --      0.9396                 1.1010                 0.9359
 IR Inten    --      0.1561                 2.0567                 2.5597

                     25                     26                     27
                      A                      A                      A
 Frequencies --   1108.1870              1119.0376              1124.5130
 Red. masses --      1.4916                 1.9138                 1.8803
 Frc consts  --      1.0793                 1.4120                 1.4009
 IR Inten    --     16.9442                29.1147                 7.2019

                     28                     29                     30
                      A                      A                      A
 Frequencies --   1159.3772              1170.2399              1200.7323
 Red. masses --      1.3762                 1.3524                 1.7060
 Frc consts  --      1.0899                 1.0912                 1.4491
 IR Inten    --      1.0603                 1.4373                 0.3985

                     31                     32                     33
                      A                      A                      A
 Frequencies --   1235.9229              1275.9024              1305.5646
 Red. masses --      1.1412                 1.4713                 1.4298
 Frc consts  --      1.0270                 1.4112                 1.4359
 IR Inten    --      9.2538                 1.5934                 3.4076

                     34                     35                     36
                      A                      A                      A
 Frequencies --   1338.7080              1358.2413              1375.2458
 Red. masses --      1.3762                 2.0021                 1.6178
 Frc consts  --      1.4531                 2.1761                 1.8028
 IR Inten    --      5.8999                 4.3556                13.4037

                     37                     38                     39
                      A                      A                      A
 Frequencies --   1403.9158              1424.8048              1480.9551
 Red. masses --      1.5572                 1.8637                 1.3326
 Frc consts  --      1.8083                 2.2292                 1.7220
 IR Inten    --      5.9342                 4.6436                 2.3213

                     40                     41                     42
                      A                      A                      A
 Frequencies --   1516.5824              1530.7478              2996.7117
 Red. masses --      1.0932                 1.3234                 1.0667
 Frc consts  --      1.4814                 1.8270                 5.6440
 IR Inten    --      0.1432                 2.7403                64.8968

                     43                     44                     45
                      A                      A                      A
 Frequencies --   3018.8481              3067.5168              3083.8201
 Red. masses --      1.0842                 1.0970                 1.0500
 Frc consts  --      5.8214                 6.0815                 5.8830
 IR Inten    --     33.5234                42.9412                25.5105

                     46                     47                     48
                      A                      A                      A
 Frequencies --   3105.5296              3128.2326              3167.9558
 Red. masses --      1.0884                 1.0542                 1.1188
 Frc consts  --      6.1845                 6.0779                 6.6155
 IR Inten    --     20.5811                14.4824                30.5332

                     49                     50                     51
                      A                      A                      A
 Frequencies --   3188.2876              3198.2905              3219.4030
 Red. masses --      1.0901                 1.0955                 1.1136
 Frc consts  --      6.5288                 6.6022                 6.8003
 IR Inten    --     10.1134                 5.1240                11.0795

 - Thermochemistry -
 -------------------
 Temperature   298.150 Kelvin.  Pressure   1.00000 Atm.
 Atom     1 has atomic number  6 and mass  12.00000

 Molecular mass:   126.06808 amu.
 Principal axes and moments of inertia in atomic units:
                           1         2         3
     Eigenvalues --   552.569211351.126191488.96170
           X            0.99982  -0.00205   0.01882
           Y            0.00111   0.99875   0.05006
           Z           -0.01890  -0.05003   0.99857
 This molecule is an asymmetric top.
 Rotational symmetry number  1.
 Warning -- assumption of classical behavior for rotation
           may cause significant error
 Rotational temperatures (Kelvin)      0.15675     0.06410     0.05817
 Rotational constants (GHZ):           3.26609     1.33573     1.21208
 Zero-point vibrational energy     421187.1 (Joules/Mol)
                                  100.66613 (Kcal/Mol)
 Warning -- explicit consideration of   8 degrees of freedom as
           vibrations may cause significant error
 Vibrational temperatures:     82.85   176.84   257.81   398.26   428.49
          (Kelvin)            542.15   636.92   783.13   996.67  1064.27
                             1135.01  1169.72  1183.28  1268.08  1288.63
                             1323.27  1353.17  1394.00  1443.56  1471.33
                             1525.82  1554.00  1564.06  1581.46  1594.43
                             1610.04  1617.92  1668.08  1683.71  1727.58
                             1778.22  1835.74  1878.41  1926.10  1954.20
                             1978.67  2019.92  2049.97  2130.76  2182.02
                             2202.40  4311.59  4343.44  4413.47  4436.92
                             4468.16  4500.82  4557.98  4587.23  4601.62
                             4632.00

 Zero-point correction=                           0.160422 (Hartree/Particle)
 Thermal correction to Energy=                    0.168116
 Thermal correction to Enthalpy=                  0.169060
 Thermal correction to Gibbs Free Energy=         0.127697
 Sum of electronic and zero-point Energies=           -422.989937
 Sum of electronic and thermal Energies=              -422.982243
 Sum of electronic and thermal Enthalpies=            -422.981299
 Sum of electronic and thermal Free Energies=         -423.022662

                     E (Thermal)             CV                S
                      KCal/Mol        Cal/Mol-Kelvin    Cal/Mol-Kelvin
 Total                  105.494             29.701             87.055
 Electronic               0.000              0.000              0.000
 Translational            0.889              2.981             40.409
 Rotational               0.889              2.981             28.499
 Vibrational            103.717             23.739             18.148
 Vibration     1          0.596              1.974              4.538
 Vibration     2          0.610              1.930              3.054
 Vibration     3          0.629              1.868              2.337
 Vibration     4          0.678              1.716              1.553
 Vibration     5          0.691              1.678              1.429
 Vibration     6          0.747              1.520              1.052
 Vibration     7          0.802              1.377              0.818
 Vibration     8          0.899              1.152              0.556

 Optimization completed.
    -- Stationary point found.
 Normal termination of Gaussian 09 at Mon Jan 27 12:56:14 2020.
