 Gaussian 09, Revision D.01,
 Gaussian 09:  ES64L-G09RevD.01 24-Apr-2013

 -----------------------------
 # b3lyp 6-31G(2df,p) opt Freq
 -----------------------------

 -----
 titel
 -----
 Symbolic Z-matrix:
 Charge =  0 Multiplicity = 1

 SCF Done:  E(RB3LYP) =  -423.146985733     A.U. after   14 cycles
 Optimization completed.
    -- Stationary point found.
 Normal termination of Gaussian 09 at Mon Jan 27 23:50:05 2020.

 ----------------------------------------------------------------------
 #N Geom=AllCheck Guess=TCheck SCRF=Check GenChk RB3LYP/6-31G(2df,p) Fr
 eq
 ----------------------------------------------------------------------

 Structure from the checkpoint file:  "/scratch/puck/g09_3d041db7-e343-429a-ba3b-c8eda972910e/Gau-78167.chk"
 -----
 titel
 -----
 Charge =  0 Multiplicity = 1

                         Standard orientation:
 ---------------------------------------------------------------------
 Center     Atomic      Atomic             Coordinates (Angstroms)
 Number     Number       Type             X           Y           Z
 ---------------------------------------------------------------------
      1          6           0       -0.402870    2.147013    0.304012
      2          6           0        0.212787    0.804578    0.063610
      3          8           0        1.624379    0.795942   -0.211808
      4          6           0        1.399728   -0.574870   -0.644986
      5          6           0        1.162823   -1.272631    0.713058
      6          6           0       -0.121498   -0.473821    0.999489
      7          6           0       -1.043159   -0.985591   -0.129590
      8          8           0       -2.321965   -0.382866   -0.046352
      9          6           0       -0.078147   -0.226982   -1.062256
     10          1           0       -0.201951    2.820728   -0.534795
     11          1           0       -1.482246    2.041065    0.429382
     12          1           0        0.014759    2.598358    1.210890
     13          1           0        2.153456   -0.949735   -1.335887
     14          1           0        0.991171   -2.351648    0.655987
     15          1           0        1.989366   -1.065504    1.394797
     16          1           0       -0.488843   -0.381645    2.019804
     17          1           0       -1.126567   -2.075989   -0.236461
     18          1           0       -2.755833   -0.483159   -0.899874
     19          1           0       -0.290604    0.036737   -2.098594
 ---------------------------------------------------------------------

 SCF Done:  E(RB3LYP) =  -423.146985733     A.U. after    1 cycles

 The electronic state is 1-A.
 Alpha  occ. eigenvalues --  -19.14311 -19.12758 -10.23750 -10.23713 -10.23349
 Alpha  occ. eigenvalues --  -10.18699 -10.18629 -10.18201 -10.17183  -1.05111
 Alpha  occ. eigenvalues --   -1.02353  -0.84578  -0.75033  -0.70243  -0.67231
 Alpha  occ. eigenvalues --   -0.61613  -0.56425  -0.52012  -0.51555  -0.48567
 Alpha  occ. eigenvalues --   -0.47319  -0.45486  -0.43115  -0.40440  -0.39284
 Alpha  occ. eigenvalues --   -0.37522  -0.36240  -0.34900  -0.33456  -0.32263
 Alpha  occ. eigenvalues --   -0.30921  -0.28203  -0.26346  -0.23702
 Alpha virt. eigenvalues --    0.06951   0.09992   0.11047   0.12227   0.12733
 Alpha virt. eigenvalues --    0.13358   0.14844   0.15339   0.16848   0.17465
 Alpha virt. eigenvalues --    0.17718   0.18555   0.19276   0.20716   0.22229

 Mulliken charges:
               1
     1  C   -0.516956
     2  C    0.487800
     3  O   -0.330883
     4  C    0.056736
     5  C   -0.222734
     6  C   -0.142756
     7  C    0.126586
     8  O   -0.445025
     9  C   -0.172059
    10  H    0.121702
    11  H    0.142465
    12  H    0.125287
    13  H    0.078693
    14  H    0.095039
    15  H    0.109267
    16  H    0.073157
    17  H    0.061765
    18  H    0.283185
    19  H    0.068732
 Sum of Mulliken charges =   0.00000

 Dipole moment (field-independent basis, Debye):
    X=             -0.9303    Y=             -1.3037    Z=             -1.2207  Tot=              2.0137
 Quadrupole moment (field-independent basis, Debye-Ang):
   XX=            -55.3963   YY=            -52.1863   ZZ=            -50.2236
   XY=             -2.4859   XZ=              3.7207   YZ=              1.4326

  Exact polarizability:  76.128  -3.409  77.246   0.894   0.097  69.116
 Approx polarizability: 111.618  -1.020 110.115  -0.497   0.846 106.367

                      1                      2                      3
                      A                      A                      A
 Frequencies --    196.8713               207.3024               241.3337
 Red. masses --      3.6846                 1.0464                 2.6177
 Frc consts  --      0.0841                 0.0265                 0.0898
 IR Inten    --      0.6655                 2.4444                 3.6331

                      4                      5                      6
                      A                      A                      A
 Frequencies --    290.6593               323.7972               342.6325
 Red. masses --      1.2330                 3.0511                 2.6691
 Frc consts  --      0.0614                 0.1885                 0.1846
 IR Inten    --     84.5980                 0.3188                22.3989

                      7                      8                      9
                      A                      A                      A
 Frequencies --    442.0427               494.4269               534.7655
 Red. masses --      2.0090                 5.4778                 4.1944
 Frc consts  --      0.2313                 0.7890                 0.7067
 IR Inten    --      0.9190                 6.6993                 4.2288

                     10                     11                     12
                      A                      A                      A
 Frequencies --    615.8369               693.0855               768.6116
 Red. masses --      3.7525                 4.3656                 3.4518
 Frc consts  --      0.8385                 1.2356                 1.2015
 IR Inten    --      2.0065                 6.8528                 6.4112

                     13                     14                     15
                      A                      A                      A
 Frequencies --    836.9565               842.3717               863.3642
 Red. masses --      2.8192                 2.4147                 2.2688
 Frc consts  --      1.1635                 1.0095                 0.9964
 IR Inten    --      6.2940                10.0505                26.1949

                     16                     17                     18
                      A                      A                      A
 Frequencies --    887.0211               926.6068               938.0027
 Red. masses --      2.5792                 3.0975                 2.1599
 Frc consts  --      1.1956                 1.5670                 1.1197
 IR Inten    --      6.9457                16.8728                 6.3606

                     19                     20                     21
                      A                      A                      A
 Frequencies --    951.7881               974.7955               990.2037
 Red. masses --      2.0002                 2.7241                 1.8270
 Frc consts  --      1.0676                 1.5251                 1.0555
 IR Inten    --      0.7403                 6.6700                 5.7674

                     22                     23                     24
                      A                      A                      A
 Frequencies --   1017.1055              1072.9246              1087.7000
 Red. masses --      1.5408                 1.7357                 2.3599
 Frc consts  --      0.9391                 1.1772                 1.6450
 IR Inten    --     16.7560                 6.5639                33.4637

                     25                     26                     27
                      A                      A                      A
 Frequencies --   1111.4590              1143.2898              1153.3372
 Red. masses --      1.8078                 1.6718                 1.7833
 Frc consts  --      1.3158                 1.2875                 1.3977
 IR Inten    --     38.8749                 7.0412                 6.0718

                     28                     29                     30
                      A                      A                      A
 Frequencies --   1157.1876              1205.0901              1207.5942
 Red. masses --      1.5964                 1.5565                 1.9704
 Frc consts  --      1.2595                 1.3318                 1.6930
 IR Inten    --      6.5684                46.4710                 1.5574

                     31                     32                     33
                      A                      A                      A
 Frequencies --   1242.5184              1271.8662              1294.0802
 Red. masses --      1.6583                 1.4544                 1.5837
 Frc consts  --      1.5084                 1.3862                 1.5626
 IR Inten    --      8.3471                21.6425                 6.3719

                     34                     35                     36
                      A                      A                      A
 Frequencies --   1306.2607              1323.0048              1359.2814
 Red. masses --      1.5559                 1.6328                 2.0181
 Frc consts  --      1.5642                 1.6838                 2.1969
 IR Inten    --      8.0497                31.4912                15.3519

                     37                     38                     39
                      A                      A                      A
 Frequencies --   1410.0634              1419.3986              1483.9133
 Red. masses --      1.6678                 1.5329                 1.0546
 Frc consts  --      1.9538                 1.8195                 1.3683
 IR Inten    --     12.1736                10.4827                 3.1168

                     40                     41                     42
                      A                      A                      A
 Frequencies --   1488.3912              1493.2835              2999.6344
 Red. masses --      1.1036                 1.0536                 1.0848
 Frc consts  --      1.4404                 1.3842                 5.7508
 IR Inten    --      1.4613                 3.2131                71.8636

                     43                     44                     45
                      A                      A                      A
 Frequencies --   3037.7264              3061.5324              3101.1389
 Red. masses --      1.0371                 1.0608                 1.1005
 Frc consts  --      5.6384                 5.8582                 6.2359
 IR Inten    --     22.0223                35.8463                16.3767

                     46                     47                     48
                      A                      A                      A
 Frequencies --   3114.2701              3123.6125              3132.9821
 Red. masses --      1.0899                 1.1044                 1.0916
 Frc consts  --      6.2281                 6.3490                 6.3131
 IR Inten    --     28.0944                16.7740                59.7230

                     49                     50                     51
                      A                      A                      A
 Frequencies --   3139.3029              3140.4938              3811.2448
 Red. masses --      1.0983                 1.0929                 1.0662
 Frc consts  --      6.3771                 6.3509                 9.1249
 IR Inten    --      5.6542                15.1946                22.8316

 - Thermochemistry -
 -------------------
 Temperature   298.150 Kelvin.  Pressure   1.00000 Atm.
 Atom     1 has atomic number  6 and mass  12.00000

 Molecular mass:   126.06808 amu.
 Principal axes and moments of inertia in atomic units:
                           1         2         3
     Eigenvalues --   710.42420 928.663561251.59872
           X            0.99472  -0.10144   0.01545
           Y            0.10133   0.99482   0.00802
           Z           -0.01618  -0.00641   0.99985
 This molecule is an asymmetric top.
 Rotational symmetry number  1.
 Warning -- assumption of classical behavior for rotation
           may cause significant error
 Rotational temperatures (Kelvin)      0.12192     0.09327     0.06920
 Rotational constants (GHZ):           2.54037     1.94337     1.44195
 Zero-point vibrational energy     420320.9 (Joules/Mol)
                                  100.45910 (Kcal/Mol)
 Warning -- explicit consideration of  10 degrees of freedom as
           vibrations may cause significant error
 Vibrational temperatures:    283.25   298.26   347.22   418.19   465.87
          (Kelvin)            492.97   636.00   711.37   769.41   886.05
                              997.19  1105.86  1204.19  1211.98  1242.19
                             1276.22  1333.18  1349.57  1369.41  1402.51
                             1424.68  1463.39  1543.70  1564.96  1599.14
                             1644.94  1659.39  1664.93  1733.85  1737.46
                             1787.70  1829.93  1861.89  1879.42  1903.51
                             1955.70  2028.76  2042.20  2135.02  2141.46
                             2148.50  4315.80  4370.61  4404.86  4461.84
                             4480.73  4494.18  4507.66  4516.75  4518.46
                             5483.52

 Zero-point correction=                           0.160092 (Hartree/Particle)
 Thermal correction to Energy=                    0.167561
 Thermal correction to Enthalpy=                  0.168505
 Thermal correction to Gibbs Free Energy=         0.128779
 Sum of electronic and zero-point Energies=           -422.986894
 Sum of electronic and thermal Energies=              -422.979425
 Sum of electronic and thermal Enthalpies=            -422.978481
 Sum of electronic and thermal Free Energies=         -423.018207

                     E (Thermal)             CV                S
                      KCal/Mol        Cal/Mol-Kelvin    Cal/Mol-Kelvin
 Total                  105.146             30.742             83.611
 Electronic               0.000              0.000              0.000
 Translational            0.889              2.981             40.409
 Rotational               0.889              2.981             28.203
 Vibrational            103.368             24.780             14.999
 Vibration     1          0.636              1.844              2.162
 Vibration     2          0.641              1.829              2.067
 Vibration     3          0.658              1.777              1.793
 Vibration     4          0.687              1.691              1.470
 Vibration     5          0.708              1.628              1.291
 Vibration     6          0.722              1.590              1.200
 Vibration     7          0.802              1.378              0.820
 Vibration     8          0.850              1.262              0.672
 Vibration     9          0.890              1.173              0.577
 Vibration    10          0.975              0.998              0.423

 Normal termination of Gaussian 09 at Tue Jan 28 00:38:04 2020.
