 Gaussian 09, Revision D.01,
 Gaussian 09:  ES64L-G09RevD.01 24-Apr-2013

 -----------------------------
 # b3lyp 6-31G(2df,p) opt Freq
 -----------------------------

 -----
 titel
 -----
 Symbolic Z-matrix:
 Charge =  0 Multiplicity = 1

 SCF Done:  E(RB3LYP) =  -423.137388300     A.U. after   14 cycles
 Optimization completed.
    -- Stationary point found.
 Normal termination of Gaussian 09 at Mon Jan 27 14:10:28 2020.

 ----------------------------------------------------------------------
 #N Geom=AllCheck Guess=TCheck SCRF=Check GenChk RB3LYP/6-31G(2df,p) Fr
 eq
 ----------------------------------------------------------------------

 Structure from the checkpoint file:  "/scratch/puck/g09_b78ffff0-3c45-4233-a8a3-7b32a1b20678/Gau-137978.chk"
 -----
 titel
 -----
 Charge =  0 Multiplicity = 1

                         Standard orientation:
 ---------------------------------------------------------------------
 Center     Atomic      Atomic             Coordinates (Angstroms)
 Number     Number       Type             X           Y           Z
 ---------------------------------------------------------------------
      1          6           0       -3.639543   -0.141201    0.398722
      2          6           0       -2.206012   -0.244472    0.161724
      3          6           0       -1.017671   -0.366818   -0.017148
      4          6           0        0.395296   -0.441927   -0.263211
      5          6           0        0.903556   -1.665769   -1.007012
      6          6           0        1.313528    0.224634    0.791404
      7          8           0        2.589450   -0.289211    1.010315
      8          6           0        1.079029    0.908875   -0.513738
      9          8           0        0.335280    2.079382   -0.586120
     10          1           0       -4.058398   -1.107510    0.700723
     11          1           0       -3.859568    0.576921    1.196366
     12          1           0       -4.175052    0.185693   -0.499521
     13          1           0        0.603601   -2.585668   -0.494172
     14          1           0        0.498655   -1.701083   -2.022856
     15          1           0        1.994048   -1.647293   -1.063843
     16          1           0        0.806614    0.647897    1.657690
     17          1           0        2.513555   -1.049294    1.597707
     18          1           0        1.908845    0.886772   -1.216654
     19          1           0       -0.599225    1.832275   -0.553442
 ---------------------------------------------------------------------

 SCF Done:  E(RB3LYP) =  -423.137388300     A.U. after    1 cycles

 The electronic state is 1-A.
 Alpha  occ. eigenvalues --  -19.15211 -19.13569 -10.23501 -10.23455 -10.21373
 Alpha  occ. eigenvalues --  -10.20965 -10.18309 -10.18254 -10.17726  -1.03943
 Alpha  occ. eigenvalues --   -1.02150  -0.85275  -0.77919  -0.72291  -0.70088
 Alpha  occ. eigenvalues --   -0.61129  -0.59804  -0.53432  -0.52125  -0.46604
 Alpha  occ. eigenvalues --   -0.45344  -0.44093  -0.43198  -0.43094  -0.41031
 Alpha  occ. eigenvalues --   -0.40113  -0.39015  -0.37941  -0.33605  -0.32213
 Alpha  occ. eigenvalues --   -0.29037  -0.27274  -0.23841  -0.22762
 Alpha virt. eigenvalues --    0.04314   0.04683   0.07461   0.09718   0.11909
 Alpha virt. eigenvalues --    0.12390   0.13718   0.14375   0.15871   0.16795
 Alpha virt. eigenvalues --    0.17327   0.19379   0.19619   0.20574   0.22693

 Mulliken charges:
               1
     1  C   -0.503192
     2  C    0.119655
     3  C   -0.031247
     4  C    0.027153
     5  C   -0.474451
     6  C    0.012654
     7  O   -0.415313
     8  C    0.075344
     9  O   -0.431292
    10  H    0.152303
    11  H    0.151274
    12  H    0.150028
    13  H    0.118986
    14  H    0.127565
    15  H    0.133854
    16  H    0.098800
    17  H    0.291176
    18  H    0.111118
    19  H    0.285586
 Sum of Mulliken charges =   0.00000

 Dipole moment (field-independent basis, Debye):
    X=             -1.9500    Y=             -2.0919    Z=              0.8772  Tot=              2.9914
 Quadrupole moment (field-independent basis, Debye-Ang):
   XX=            -48.4334   YY=            -55.9908   ZZ=            -50.6514
   XY=             -4.7873   XZ=             -0.1338   YZ=             -0.8921

  Exact polarizability: 113.226  -2.069  70.451  -3.102   0.339  63.683
 Approx polarizability: 163.819  -2.065 101.525  -5.025  -1.817  92.951

                      1                      2                      3
                      A                      A                      A
 Frequencies --     40.0145                85.1853                88.7804
 Red. masses --      1.0222                 4.1734                 3.8595
 Frc consts  --      0.0010                 0.0178                 0.0179
 IR Inten    --      0.1141                 0.6831                 1.4951

                      4                      5                      6
                      A                      A                      A
 Frequencies --    182.1324               197.8155               233.0445
 Red. masses --      1.2640                 1.9580                 1.5001
 Frc consts  --      0.0247                 0.0451                 0.0480
 IR Inten    --      2.6927                 3.0036                28.4966

                      7                      8                      9
                      A                      A                      A
 Frequencies --    248.4874               263.9540               291.6408
 Red. masses --      3.2922                 3.4086                 2.6779
 Frc consts  --      0.1198                 0.1399                 0.1342
 IR Inten    --      6.8511                20.2353                 1.7517

                     10                     11                     12
                      A                      A                      A
 Frequencies --    306.2061               321.1763               372.0417
 Red. masses --      1.9359                 2.8127                 1.6336
 Frc consts  --      0.1069                 0.1709                 0.1332
 IR Inten    --     39.0941                16.0537                94.0843

                     13                     14                     15
                      A                      A                      A
 Frequencies --    415.9699               511.7154               526.4990
 Red. masses --      5.4769                 4.5114                 6.2139
 Frc consts  --      0.5584                 0.6960                 1.0149
 IR Inten    --      4.9967                 5.2825                 2.9090

                     16                     17                     18
                      A                      A                      A
 Frequencies --    614.0396               635.7158               788.0745
 Red. masses --      3.9231                 4.2134                 4.7811
 Frc consts  --      0.8715                 1.0033                 1.7495
 IR Inten    --      7.6785                 0.4303                10.0492

                     19                     20                     21
                      A                      A                      A
 Frequencies --    880.0163               981.5116              1014.3167
 Red. masses --      2.7883                 2.1006                 1.4829
 Frc consts  --      1.2723                 1.1923                 0.8989
 IR Inten    --      7.0867                 9.2488                13.4309

                     22                     23                     24
                      A                      A                      A
 Frequencies --   1050.8926              1054.1377              1062.8269
 Red. masses --      1.4071                 1.4009                 1.9355
 Frc consts  --      0.9155                 0.9172                 1.2882
 IR Inten    --      2.1035                 1.4585                42.0534

                     25                     26                     27
                      A                      A                      A
 Frequencies --   1074.2567              1110.1994              1149.0702
 Red. masses --      1.5193                 1.6816                 5.0645
 Frc consts  --      1.0330                 1.2212                 3.9399
 IR Inten    --      8.7974                 2.6327               153.4268

                     28                     29                     30
                      A                      A                      A
 Frequencies --   1163.6761              1241.6577              1278.0946
 Red. masses --      2.9689                 1.8518                 1.3233
 Frc consts  --      2.3687                 1.6820                 1.2736
 IR Inten    --     39.7162                36.8962                29.8633

                     31                     32                     33
                      A                      A                      A
 Frequencies --   1302.2981              1354.6757              1395.2213
 Red. masses --      2.1309                 1.8315                 1.2159
 Frc consts  --      2.1293                 1.9803                 1.3945
 IR Inten    --     35.4599                 6.6603                59.9805

                     34                     35                     36
                      A                      A                      A
 Frequencies --   1406.8842              1416.3822              1471.2790
 Red. masses --      1.2490                 1.2576                 2.0083
 Frc consts  --      1.4566                 1.4865                 2.5613
 IR Inten    --      2.7739                 5.9644                14.9653

                     37                     38                     39
                      A                      A                      A
 Frequencies --   1476.4837              1479.6808              1491.8499
 Red. masses --      1.0397                 1.0399                 1.0581
 Frc consts  --      1.3354                 1.3414                 1.3874
 IR Inten    --      6.0459                 6.0544                 5.9919

                     40                     41                     42
                      A                      A                      A
 Frequencies --   1503.8489              2346.8818              3026.6778
 Red. masses --      1.0931                11.8472                 1.0347
 Frc consts  --      1.4565                38.4458                 5.5847
 IR Inten    --      5.4919                 2.8703                34.6010

                     43                     44                     45
                      A                      A                      A
 Frequencies --   3038.4852              3086.7267              3089.0881
 Red. masses --      1.0360                 1.1004                 1.1000
 Frc consts  --      5.6353                 6.1776                 6.1845
 IR Inten    --     29.4191                 9.9332                 8.5306

                     46                     47                     48
                      A                      A                      A
 Frequencies --   3101.0361              3115.7516              3129.9943
 Red. masses --      1.1012                 1.0888                 1.0999
 Frc consts  --      6.2390                 6.2277                 6.3487
 IR Inten    --     19.3151                14.4774                 6.7906

                     49                     50                     51
                      A                      A                      A
 Frequencies --   3141.4809              3731.7297              3797.3081
 Red. masses --      1.0889                 1.0659                 1.0661
 Frc consts  --      6.3317                 8.7452                 9.0577
 IR Inten    --     20.7827                74.1732                23.3678

 - Thermochemistry -
 -------------------
 Temperature   298.150 Kelvin.  Pressure   1.00000 Atm.
 Atom     1 has atomic number  6 and mass  12.00000

 Molecular mass:   126.06808 amu.
 Principal axes and moments of inertia in atomic units:
                           1         2         3
     Eigenvalues --   718.522061829.745532103.17992
           X            0.99975  -0.01697  -0.01450
           Y            0.01764   0.99870   0.04783
           Z            0.01367  -0.04808   0.99875
 This molecule is an asymmetric top.
 Rotational symmetry number  1.
 Warning -- assumption of classical behavior for rotation
           may cause significant error
 Rotational temperatures (Kelvin)      0.12054     0.04734     0.04118
 Rotational constants (GHZ):           2.51174     0.98633     0.85810
 Zero-point vibrational energy     407250.2 (Joules/Mol)
                                   97.33513 (Kcal/Mol)
 Warning -- explicit consideration of  16 degrees of freedom as
           vibrations may cause significant error
 Vibrational temperatures:     57.57   122.56   127.74   262.05   284.61
          (Kelvin)            335.30   357.52   379.77   419.61   440.56
                              462.10   535.28   598.49   736.24   757.51
                              883.46   914.65  1133.86  1266.15  1412.17
                             1459.37  1512.00  1516.67  1529.17  1545.61
                             1597.33  1653.25  1674.27  1786.47  1838.89
                             1873.71  1949.07  2007.41  2024.19  2037.86
                             2116.84  2124.33  2128.93  2146.44  2163.70
                             3376.64  4354.71  4371.70  4441.11  4444.50
                             4461.69  4482.87  4503.36  4519.88  5369.12
                             5463.47

 Zero-point correction=                           0.155113 (Hartree/Particle)
 Thermal correction to Energy=                    0.166015
 Thermal correction to Enthalpy=                  0.166959
 Thermal correction to Gibbs Free Energy=         0.118673
 Sum of electronic and zero-point Energies=           -422.982275
 Sum of electronic and thermal Energies=              -422.971373
 Sum of electronic and thermal Enthalpies=            -422.970429
 Sum of electronic and thermal Free Energies=         -423.018716

                     E (Thermal)             CV                S
                      KCal/Mol        Cal/Mol-Kelvin    Cal/Mol-Kelvin
 Total                  104.176             38.467            101.627
 Electronic               0.000              0.000              0.000
 Translational            0.889              2.981             40.409
 Rotational               0.889              2.981             29.404
 Vibrational            102.398             32.505             31.815
 Vibration     1          0.594              1.981              5.258
 Vibration     2          0.601              1.959              3.768
 Vibration     3          0.602              1.957              3.687
 Vibration     4          0.630              1.864              2.306
 Vibration     5          0.637              1.843              2.153
 Vibration     6          0.654              1.790              1.855
 Vibration     7          0.662              1.765              1.741
 Vibration     8          0.671              1.739              1.635
 Vibration     9          0.687              1.689              1.464
 Vibration    10          0.697              1.662              1.383
 Vibration    11          0.707              1.633              1.304
 Vibration    12          0.744              1.530              1.071
 Vibration    13          0.779              1.436              0.906
 Vibration    14          0.867              1.224              0.629
 Vibration    15          0.881              1.191              0.595
 Vibration    16          0.973              1.002              0.426

 Normal termination of Gaussian 09 at Mon Jan 27 14:56:08 2020.
