 Gaussian 09, Revision D.01,
 Gaussian 09:  ES64L-G09RevD.01 24-Apr-2013

 -----------------------------
 # b3lyp 6-31G(2df,p) opt Freq
 -----------------------------

 -----
 titel
 -----
 Symbolic Z-matrix:
 Charge =  0 Multiplicity = 1

 SCF Done:  E(RB3LYP) =  -423.138394460     A.U. after   13 cycles
 Optimization completed.
    -- Stationary point found.
 Normal termination of Gaussian 09 at Tue Jan 28 09:15:14 2020.

 ----------------------------------------------------------------------
 #N Geom=AllCheck Guess=TCheck SCRF=Check GenChk RB3LYP/6-31G(2df,p) Fr
 eq
 ----------------------------------------------------------------------

 Structure from the checkpoint file:  "/scratch/puck/g09_2b2e0d1f-2d7c-4a4e-a06e-fb358fb0d6ac/Gau-14482.chk"
 -----
 titel
 -----
 Charge =  0 Multiplicity = 1

                         Standard orientation:
 ---------------------------------------------------------------------
 Center     Atomic      Atomic             Coordinates (Angstroms)
 Number     Number       Type             X           Y           Z
 ---------------------------------------------------------------------
      1          6           0        2.688576    0.644297   -0.124926
      2          6           0        1.904182   -0.671621   -0.023470
      3          6           0        0.417977   -0.469271    0.039407
      4          6           0       -0.774330   -1.322683    0.410161
      5          8           0       -1.531758   -0.980153   -0.750383
      6          6           0       -0.551760    0.061666   -1.054899
      7          6           0       -1.101670    1.358536   -0.484122
      8          8           0       -1.225911    1.091772    0.920166
      9          6           0       -0.454682   -0.054734    1.191596
     10          1           0        3.765810    0.456835   -0.161443
     11          1           0        2.418586    1.199581   -1.029845
     12          1           0        2.484921    1.290699    0.734683
     13          1           0        2.151924   -1.317191   -0.876280
     14          1           0        2.221500   -1.219537    0.872436
     15          1           0       -0.872067   -2.325710    0.811711
     16          1           0       -0.252135    0.064926   -2.104336
     17          1           0       -0.421284    2.206623   -0.661806
     18          1           0       -2.091649    1.596133   -0.884352
     19          1           0       -0.114011   -0.122453    2.218489
 ---------------------------------------------------------------------

 SCF Done:  E(RB3LYP) =  -423.138394460     A.U. after    1 cycles

 The electronic state is 1-A.
 Alpha  occ. eigenvalues --  -19.14115 -19.13799 -10.24330 -10.23609 -10.23442
 Alpha  occ. eigenvalues --  -10.22956 -10.19770 -10.19608 -10.18271  -1.07491
 Alpha  occ. eigenvalues --   -1.01411  -0.83582  -0.76951  -0.74276  -0.64278
 Alpha  occ. eigenvalues --   -0.63691  -0.58144  -0.54529  -0.50996  -0.49946
 Alpha  occ. eigenvalues --   -0.46184  -0.45211  -0.43597  -0.41112  -0.40540
 Alpha  occ. eigenvalues --   -0.39250  -0.37975  -0.36075  -0.35807  -0.33193
 Alpha  occ. eigenvalues --   -0.31648  -0.30118  -0.24731  -0.21420
 Alpha virt. eigenvalues --    0.06941   0.08697   0.10874   0.11642   0.12700
 Alpha virt. eigenvalues --    0.12843   0.14417   0.15092   0.15622   0.15940
 Alpha virt. eigenvalues --    0.17198   0.17788   0.18306   0.20041   0.21381

 Mulliken charges:
               1
     1  C   -0.377187
     2  C   -0.322316
     3  C    0.241294
     4  C   -0.012136
     5  O   -0.302506
     6  C    0.009580
     7  C   -0.077430
     8  O   -0.267750
     9  C    0.031521
    10  H    0.116196
    11  H    0.117591
    12  H    0.125905
    13  H    0.105532
    14  H    0.104555
    15  H    0.103014
    16  H    0.086038
    17  H    0.092392
    18  H    0.120188
    19  H    0.105521
 Sum of Mulliken charges =   0.00000

 Dipole moment (field-independent basis, Debye):
    X=              2.4160    Y=             -0.1288    Z=             -0.3580  Tot=              2.4458
 Quadrupole moment (field-independent basis, Debye-Ang):
   XX=            -56.5524   YY=            -53.0585   ZZ=            -51.3490
   XY=             -1.1959   XZ=              0.8154   YZ=             -4.6577

  Exact polarizability:  77.422  -0.126  73.836   0.482  -4.888  69.847
 Approx polarizability: 105.865   1.438 108.730  -0.174  -4.091 108.950

                      1                      2                      3
                      A                      A                      A
 Frequencies --     70.3931               125.5361               199.8632
 Red. masses --      2.3522                 3.3487                 1.2816
 Frc consts  --      0.0069                 0.0311                 0.0302
 IR Inten    --      0.4162                 0.2040                 0.3847

                      4                      5                      6
                      A                      A                      A
 Frequencies --    254.8700               304.3758               355.4624
 Red. masses --      2.9197                 1.8088                 3.4518
 Frc consts  --      0.1117                 0.0987                 0.2570
 IR Inten    --      4.7225                 0.5715                 0.6929

                      7                      8                      9
                      A                      A                      A
 Frequencies --    407.4550               547.7002               596.9655
 Red. masses --      3.2130                 3.4360                 3.4826
 Frc consts  --      0.3143                 0.6073                 0.7312
 IR Inten    --      2.6856                 3.7287                 1.9180

                     10                     11                     12
                      A                      A                      A
 Frequencies --    703.4369               759.3922               774.3251
 Red. masses --      4.3762                 2.0659                 3.5834
 Frc consts  --      1.2759                 0.7019                 1.2659
 IR Inten    --      2.9885                 6.0942                31.3572

                     13                     14                     15
                      A                      A                      A
 Frequencies --    801.4336               859.7672               895.1461
 Red. masses --      2.0263                 3.1430                 1.9734
 Frc consts  --      0.7668                 1.3689                 0.9316
 IR Inten    --     15.0581                18.1873                 7.5755

                     16                     17                     18
                      A                      A                      A
 Frequencies --    911.4536               930.5854               976.6326
 Red. masses --      2.4917                 2.3331                 2.5419
 Frc consts  --      1.2196                 1.1904                 1.4285
 IR Inten    --      8.6983                 6.2567                 3.4160

                     19                     20                     21
                      A                      A                      A
 Frequencies --    994.1154              1000.7278              1025.7709
 Red. masses --      2.0438                 2.1079                 1.9759
 Frc consts  --      1.1900                 1.2437                 1.2249
 IR Inten    --     10.5398                13.6052                 9.8434

                     22                     23                     24
                      A                      A                      A
 Frequencies --   1032.2445              1042.4140              1078.3663
 Red. masses --      1.8576                 2.2074                 2.2023
 Frc consts  --      1.1662                 1.4132                 1.5089
 IR Inten    --     14.0041                 5.2782                 0.0669

                     25                     26                     27
                      A                      A                      A
 Frequencies --   1112.2694              1127.3080              1183.4263
 Red. masses --      5.6698                 2.4346                 1.3466
 Frc consts  --      4.1328                 1.8229                 1.1112
 IR Inten    --    100.8330                14.9890                 2.1108

                     28                     29                     30
                      A                      A                      A
 Frequencies --   1194.6277              1236.7563              1249.7419
 Red. masses --      1.8092                 1.4830                 1.4795
 Frc consts  --      1.5213                 1.3364                 1.3615
 IR Inten    --      2.3567                 3.2215                 2.7412

                     31                     32                     33
                      A                      A                      A
 Frequencies --   1278.0919              1308.5079              1315.8931
 Red. masses --      1.5463                 1.3302                 1.5249
 Frc consts  --      1.4883                 1.3419                 1.5558
 IR Inten    --      5.7625                 2.3518                 5.7524

                     34                     35                     36
                      A                      A                      A
 Frequencies --   1358.5383              1374.6571              1410.0429
 Red. masses --      1.4295                 1.4820                 1.2329
 Frc consts  --      1.5545                 1.6500                 1.4442
 IR Inten    --      4.9486                 0.9207                 1.6893

                     37                     38                     39
                      A                      A                      A
 Frequencies --   1464.9409              1483.2373              1498.3226
 Red. masses --      3.3097                 1.0885                 1.0696
 Frc consts  --      4.1849                 1.4109                 1.4148
 IR Inten    --      8.4725                 2.0389                 4.8869

                     40                     41                     42
                      A                      A                      A
 Frequencies --   1500.1325              1507.3143              2980.2518
 Red. masses --      1.0681                 1.1018                 1.0694
 Frc consts  --      1.4162                 1.4749                 5.5960
 IR Inten    --      2.8697                 0.8724                63.8698

                     43                     44                     45
                      A                      A                      A
 Frequencies --   3017.9451              3034.0026              3050.5276
 Red. masses --      1.0607                 1.0358                 1.1001
 Frc consts  --      5.6920                 5.6179                 6.0314
 IR Inten    --     31.2469                22.8693                12.9661

                     46                     47                     48
                      A                      A                      A
 Frequencies --   3087.1079              3100.7888              3104.9737
 Red. masses --      1.0941                 1.1004                 1.0915
 Frc consts  --      6.1434                 6.2335                 6.2002
 IR Inten    --     26.5420                19.4120                44.6251

                     49                     50                     51
                      A                      A                      A
 Frequencies --   3110.8197              3169.5650              3187.4763
 Red. masses --      1.1020                 1.0921                 1.0933
 Frc consts  --      6.2832                 6.4640                 6.5449
 IR Inten    --     33.4748                17.3228                17.3080

 - Thermochemistry -
 -------------------
 Temperature   298.150 Kelvin.  Pressure   1.00000 Atm.
 Atom     1 has atomic number  6 and mass  12.00000

 Molecular mass:   126.06808 amu.
 Principal axes and moments of inertia in atomic units:
                           1         2         3
     Eigenvalues --   652.327081193.931941334.06681
           X            1.00000   0.00151   0.00193
           Y           -0.00123   0.99029  -0.13902
           Z           -0.00212   0.13901   0.99029
 This molecule is an asymmetric top.
 Rotational symmetry number  1.
 Warning -- assumption of classical behavior for rotation
           may cause significant error
 Rotational temperatures (Kelvin)      0.13278     0.07255     0.06492
 Rotational constants (GHZ):           2.76662     1.51159     1.35281
 Zero-point vibrational energy     419265.4 (Joules/Mol)
                                  100.20683 (Kcal/Mol)
 Warning -- explicit consideration of   9 degrees of freedom as
           vibrations may cause significant error
 Vibrational temperatures:    101.28   180.62   287.56   366.70   437.93
          (Kelvin)            511.43   586.24   788.02   858.90  1012.09
                             1092.59  1114.08  1153.08  1237.01  1287.91
                             1311.38  1338.90  1405.15  1430.31  1439.82
                             1475.85  1485.17  1499.80  1551.53  1600.31
                             1621.94  1702.68  1718.80  1779.41  1798.10
                             1838.89  1882.65  1893.27  1954.63  1977.82
                             2028.73  2107.72  2134.04  2155.75  2158.35
                             2168.69  4287.91  4342.14  4365.25  4389.02
                             4441.65  4461.34  4467.36  4475.77  4560.29
                             4586.06

 Zero-point correction=                           0.159690 (Hartree/Particle)
 Thermal correction to Energy=                    0.167483
 Thermal correction to Enthalpy=                  0.168428
 Thermal correction to Gibbs Free Energy=         0.127128
 Sum of electronic and zero-point Energies=           -422.978705
 Sum of electronic and thermal Energies=              -422.970911
 Sum of electronic and thermal Enthalpies=            -422.969967
 Sum of electronic and thermal Free Energies=         -423.011267

                     E (Thermal)             CV                S
                      KCal/Mol        Cal/Mol-Kelvin    Cal/Mol-Kelvin
 Total                  105.097             30.180             86.922
 Electronic               0.000              0.000              0.000
 Translational            0.889              2.981             40.409
 Rotational               0.889              2.981             28.432
 Vibrational            103.320             24.218             18.082
 Vibration     1          0.598              1.968              4.142
 Vibration     2          0.610              1.928              3.013
 Vibration     3          0.638              1.840              2.134
 Vibration     4          0.665              1.755              1.697
 Vibration     5          0.695              1.665              1.393
 Vibration     6          0.731              1.564              1.142
 Vibration     7          0.772              1.454              0.936
 Vibration     8          0.903              1.145              0.549
 Vibration     9          0.955              1.038              0.455

 Normal termination of Gaussian 09 at Tue Jan 28 10:03:04 2020.
