 Gaussian 09, Revision D.01,
 Gaussian 09:  ES64L-G09RevD.01 24-Apr-2013

 -----------------------------
 # b3lyp 6-31G(2df,p) opt Freq
 -----------------------------

 -----
 titel
 -----
 Symbolic Z-matrix:
 Charge =  0 Multiplicity = 1

 SCF Done:  E(RB3LYP) =  -423.207036471     A.U. after   14 cycles
 Optimization completed.
    -- Stationary point found.
 Normal termination of Gaussian 09 at Tue Jan 28 03:18:30 2020.

 ----------------------------------------------------------------------
 #N Geom=AllCheck Guess=TCheck SCRF=Check GenChk RB3LYP/6-31G(2df,p) Fr
 eq
 ----------------------------------------------------------------------

 Structure from the checkpoint file:  "/scratch/puck/g09_b4b4408a-0991-4d09-9a5f-4e5e7f2ee53f/Gau-79220.chk"
 -----
 titel
 -----
 Charge =  0 Multiplicity = 1

                         Standard orientation:
 ---------------------------------------------------------------------
 Center     Atomic      Atomic             Coordinates (Angstroms)
 Number     Number       Type             X           Y           Z
 ---------------------------------------------------------------------
      1          8           0       -2.699843   -0.494945    0.228062
      2          6           0       -1.336300   -0.110956    0.336283
      3          6           0       -1.024407    1.120943   -0.523236
      4          6           0        0.431812    1.546871   -0.448933
      5          6           0        1.174716    1.492220    0.848571
      6          6           0        1.495206    0.480584   -0.252508
      7          6           0        1.100293   -0.949432   -0.080155
      8          8           0        1.925180   -1.835736   -0.074218
      9          6           0       -0.395905   -1.273330   -0.003578
     10          1           0       -2.865179   -0.742162   -0.688890
     11          1           0       -1.225510    0.148177    1.394704
     12          1           0       -1.274078    0.883546   -1.568134
     13          1           0       -1.681930    1.942918   -0.219728
     14          1           0        0.701656    2.354797   -1.122438
     15          1           0        1.938866    2.235565    1.043976
     16          1           0        0.667369    1.141245    1.739460
     17          1           0        2.459358    0.597564   -0.734156
     18          1           0       -0.653332   -1.640716   -1.009887
     19          1           0       -0.542413   -2.116876    0.675674
 ---------------------------------------------------------------------

 SCF Done:  E(RB3LYP) =  -423.207036471     A.U. after    1 cycles

 The electronic state is 1-A.
 Alpha  occ. eigenvalues --  -19.14238 -19.12056 -10.26801 -10.24286 -10.21088
 Alpha  occ. eigenvalues --  -10.20527 -10.20225 -10.19556 -10.19112  -1.03339
 Alpha  occ. eigenvalues --   -1.02561  -0.88446  -0.78231  -0.73218  -0.65000
 Alpha  occ. eigenvalues --   -0.63211  -0.58620  -0.53585  -0.51555  -0.48385
 Alpha  occ. eigenvalues --   -0.46893  -0.46161  -0.43578  -0.42638  -0.40657
 Alpha  occ. eigenvalues --   -0.39153  -0.37642  -0.36672  -0.36024  -0.33103
 Alpha  occ. eigenvalues --   -0.30366  -0.29486  -0.27718  -0.23774
 Alpha virt. eigenvalues --   -0.01467   0.06795   0.08268   0.09120   0.11698
 Alpha virt. eigenvalues --    0.11976   0.14101   0.16034   0.16608   0.17730
 Alpha virt. eigenvalues --    0.17923   0.19104   0.21124   0.21613   0.22383

 Mulliken charges:
               1
     1  O   -0.431955
     2  C    0.094201
     3  C   -0.236986
     4  C   -0.043836
     5  C   -0.291636
     6  C   -0.115271
     7  C    0.374821
     8  O   -0.326882
     9  C   -0.315958
    10  H    0.275700
    11  H    0.099498
    12  H    0.090110
    13  H    0.113775
    14  H    0.096994
    15  H    0.126065
    16  H    0.129479
    17  H    0.108198
    18  H    0.118420
    19  H    0.135264
 Sum of Mulliken charges =   0.00000

 Dipole moment (field-independent basis, Debye):
    X=             -0.9930    Y=              2.4922    Z=             -1.1432  Tot=              2.9162
 Quadrupole moment (field-independent basis, Debye-Ang):
   XX=            -60.4588   YY=            -55.7801   ZZ=            -50.2242
   XY=              7.1779   XZ=              3.9569   YZ=              0.8119

  Exact polarizability:  81.790  -0.325  80.616   2.154   1.357  63.418
 Approx polarizability: 114.975  -7.827 118.256   2.212   3.519 101.681

                      1                      2                      3
                      A                      A                      A
 Frequencies --     79.3074               162.2928               223.8727
 Red. masses --      3.1955                 3.4373                 2.8795
 Frc consts  --      0.0118                 0.0533                 0.0850
 IR Inten    --      5.3073                 1.6586                 1.9451

                      4                      5                      6
                      A                      A                      A
 Frequencies --    280.4301               332.4153               340.7188
 Red. masses --      1.3293                 3.0917                 2.4742
 Frc consts  --      0.0616                 0.2013                 0.1692
 IR Inten    --     35.5630                42.5299                26.6684

                      7                      8                      9
                      A                      A                      A
 Frequencies --    402.0571               426.1606               479.3494
 Red. masses --      3.5751                 3.1606                 3.4080
 Frc consts  --      0.3405                 0.3382                 0.4614
 IR Inten    --      2.5610                 5.1458                 1.0900

                     10                     11                     12
                      A                      A                      A
 Frequencies --    484.5615               595.6660               635.2905
 Red. masses --      3.1621                 3.9673                 2.7505
 Frc consts  --      0.4374                 0.8294                 0.6540
 IR Inten    --      4.2320                 1.3404                 0.1222

                     13                     14                     15
                      A                      A                      A
 Frequencies --    751.5201               787.6326               836.4488
 Red. masses --      2.0315                 3.6666                 1.2354
 Frc consts  --      0.6760                 1.3402                 0.5093
 IR Inten    --      0.9899                10.5571                 7.9227

                     16                     17                     18
                      A                      A                      A
 Frequencies --    861.6636               893.5804               953.4017
 Red. masses --      2.3494                 2.0393                 2.0621
 Frc consts  --      1.0277                 0.9594                 1.1044
 IR Inten    --      9.0788                 0.7985                12.1000

                     19                     20                     21
                      A                      A                      A
 Frequencies --    982.5632              1003.3759              1044.4144
 Red. masses --      3.2643                 1.8114                 1.8485
 Frc consts  --      1.8568                 1.0744                 1.1880
 IR Inten    --      9.1859                 2.3737                55.3743

                     22                     23                     24
                      A                      A                      A
 Frequencies --   1063.2884              1074.7401              1090.1941
 Red. masses --      1.3770                 1.5501                 3.7355
 Frc consts  --      0.9172                 1.0549                 2.6158
 IR Inten    --      8.4652                 3.7364                96.4338

                     25                     26                     27
                      A                      A                      A
 Frequencies --   1125.7763              1152.4991              1171.5197
 Red. masses --      1.1906                 1.7807                 1.3306
 Frc consts  --      0.8890                 1.3935                 1.0759
 IR Inten    --      0.4648                 4.3741                 1.3174

                     28                     29                     30
                      A                      A                      A
 Frequencies --   1209.2847              1216.1964              1249.7322
 Red. masses --      1.4699                 1.3176                 1.9217
 Frc consts  --      1.2665                 1.1483                 1.7683
 IR Inten    --      8.5384                 6.5955                67.8094

                     31                     32                     33
                      A                      A                      A
 Frequencies --   1286.8986              1310.3906              1360.8701
 Red. masses --      1.5598                 1.5236                 1.7754
 Frc consts  --      1.5220                 1.5414                 1.9372
 IR Inten    --     28.7282                 4.3808                11.2905

                     34                     35                     36
                      A                      A                      A
 Frequencies --   1362.2797              1371.3970              1406.7307
 Red. masses --      1.4482                 1.7327                 1.6578
 Frc consts  --      1.5835                 1.9200                 1.9329
 IR Inten    --     10.2106                 7.9228                10.2050

                     37                     38                     39
                      A                      A                      A
 Frequencies --   1439.0647              1448.8089              1489.7784
 Red. masses --      1.2116                 1.1287                 1.1274
 Frc consts  --      1.4783                 1.3959                 1.4742
 IR Inten    --     38.8784                 2.7975                 7.0741

                     40                     41                     42
                      A                      A                      A
 Frequencies --   1497.5848              1794.5068              2995.9377
 Red. masses --      1.2201                12.0100                 1.0702
 Frc consts  --      1.6123                22.7868                 5.6595
 IR Inten    --      2.9341               225.7608                 4.0460

                     43                     44                     45
                      A                      A                      A
 Frequencies --   3000.8440              3051.9326              3070.3778
 Red. masses --      1.0681                 1.0828                 1.0947
 Frc consts  --      5.6669                 5.9421                 6.0804
 IR Inten    --     32.7397                19.3810                32.3480

                     46                     47                     48
                      A                      A                      A
 Frequencies --   3105.0097              3144.9774              3150.8331
 Red. masses --      1.0908                 1.0553                 1.0882
 Frc consts  --      6.1963                 6.1497                 6.3650
 IR Inten    --      8.9703                12.4714                13.0843

                     49                     50                     51
                      A                      A                      A
 Frequencies --   3179.4243              3228.3456              3794.7363
 Red. masses --      1.0903                 1.1158                 1.0658
 Frc consts  --      6.4938                 6.8519                 9.0426
 IR Inten    --      5.2965                 6.6094                13.3332

 - Thermochemistry -
 -------------------
 Temperature   298.150 Kelvin.  Pressure   1.00000 Atm.
 Atom     1 has atomic number  8 and mass  15.99491

 Molecular mass:   126.06808 amu.
 Principal axes and moments of inertia in atomic units:
                           1         2         3
     Eigenvalues --   768.950261171.767281727.67003
           X            0.99750   0.06943   0.01313
           Y           -0.06947   0.99758   0.00289
           Z           -0.01290  -0.00379   0.99991
 This molecule is an asymmetric top.
 Rotational symmetry number  1.
 Warning -- assumption of classical behavior for rotation
           may cause significant error
 Rotational temperatures (Kelvin)      0.11264     0.07392     0.05013
 Rotational constants (GHZ):           2.34702     1.54019     1.04461
 Zero-point vibrational energy     421089.6 (Joules/Mol)
                                  100.64283 (Kcal/Mol)
 Warning -- explicit consideration of  11 degrees of freedom as
           vibrations may cause significant error
 Vibrational temperatures:    114.11   233.50   322.10   403.48   478.27
          (Kelvin)            490.22   578.47   613.15   689.68   697.18
                              857.03   914.04  1081.27  1133.23  1203.46
                             1239.74  1285.66  1371.73  1413.69  1443.63
                             1502.68  1529.83  1546.31  1568.54  1619.74
                             1658.19  1685.55  1739.89  1749.83  1798.08
                             1851.56  1885.36  1957.99  1960.01  1973.13
                             2023.97  2070.49  2084.51  2143.46  2154.69
                             2581.89  4310.48  4317.54  4391.04  4417.58
                             4467.41  4524.92  4533.34  4574.48  4644.86
                             5459.77

 Zero-point correction=                           0.160385 (Hartree/Particle)
 Thermal correction to Energy=                    0.168490
 Thermal correction to Enthalpy=                  0.169434
 Thermal correction to Gibbs Free Energy=         0.127777
 Sum of electronic and zero-point Energies=           -423.046652
 Sum of electronic and thermal Energies=              -423.038547
 Sum of electronic and thermal Enthalpies=            -423.037602
 Sum of electronic and thermal Free Energies=         -423.079260

                     E (Thermal)             CV                S
                      KCal/Mol        Cal/Mol-Kelvin    Cal/Mol-Kelvin
 Total                  105.729             31.898             87.676
 Electronic               0.000              0.000              0.000
 Translational            0.889              2.981             40.409
 Rotational               0.889              2.981             28.833
 Vibrational            103.952             25.937             18.434
 Vibration     1          0.600              1.963              3.908
 Vibration     2          0.622              1.889              2.523
 Vibration     3          0.649              1.805              1.928
 Vibration     4          0.680              1.710              1.531
 Vibration     5          0.714              1.611              1.248
 Vibration     6          0.720              1.594              1.209
 Vibration     7          0.768              1.466              0.955
 Vibration     8          0.788              1.413              0.871
 Vibration     9          0.836              1.296              0.712
 Vibration    10          0.841              1.284              0.698
 Vibration    11          0.953              1.041              0.457

 Optimization completed.
    -- Stationary point found.
 Normal termination of Gaussian 09 at Tue Jan 28 04:02:03 2020.
