 Gaussian 09, Revision D.01,
 Gaussian 09:  ES64L-G09RevD.01 24-Apr-2013

 -----------------------------
 # b3lyp 6-31G(2df,p) opt Freq
 -----------------------------

 -----
 titel
 -----
 Symbolic Z-matrix:
 Charge =  0 Multiplicity = 1

 SCF Done:  E(RB3LYP) =  -423.165576039     A.U. after   13 cycles
 Optimization completed.
    -- Stationary point found.
 Normal termination of Gaussian 09 at Mon Jan 27 11:18:31 2020.

 ----------------------------------------------------------------------
 #N Geom=AllCheck Guess=TCheck SCRF=Check GenChk RB3LYP/6-31G(2df,p) Fr
 eq
 ----------------------------------------------------------------------

 Structure from the checkpoint file:  "/scratch/puck/g09_f2d3a3af-7a64-4406-8e32-1c01605c79c5/Gau-41918.chk"
 -----
 titel
 -----
 Charge =  0 Multiplicity = 1

                         Standard orientation:
 ---------------------------------------------------------------------
 Center     Atomic      Atomic             Coordinates (Angstroms)
 Number     Number       Type             X           Y           Z
 ---------------------------------------------------------------------
      1          6           0       -0.840619   -0.560515    1.200418
      2          6           0       -1.872390    0.063722    0.227036
      3          6           0       -1.327796   -0.962742   -0.845592
      4          6           0       -0.008496   -0.641127   -0.108604
      5          8           0        1.269665   -1.200458   -0.157985
      6          6           0        2.165160   -0.089013    0.060735
      7          8           0        1.402543    1.100194    0.218355
      8          6           0        0.207206    0.812257   -0.497709
      9          6           0       -1.157335    1.410375   -0.101831
     10          1           0       -0.460975    0.057108    2.017631
     11          1           0       -1.127460   -1.551210    1.558790
     12          1           0       -2.934411    0.097848    0.464203
     13          1           0       -1.711387   -1.968161   -0.663748
     14          1           0       -1.399886   -0.708410   -1.906865
     15          1           0        2.748776   -0.242098    0.974689
     16          1           0        2.831907   -0.023078   -0.812314
     17          1           0        0.397643    0.911324   -1.577092
     18          1           0       -1.100925    2.060050    0.775362
     19          1           0       -1.615323    1.970996   -0.920334
 ---------------------------------------------------------------------

 SCF Done:  E(RB3LYP) =  -423.165576039     A.U. after    1 cycles

 The electronic state is 1-A.
 Alpha  occ. eigenvalues --  -19.14903 -19.14649 -10.27535 -10.23490 -10.22844
 Alpha  occ. eigenvalues --  -10.20153 -10.19189 -10.18967 -10.17843  -1.08548
 Alpha  occ. eigenvalues --   -0.99462  -0.89075  -0.73259  -0.70710  -0.66868
 Alpha  occ. eigenvalues --   -0.62413  -0.57045  -0.55689  -0.51639  -0.49624
 Alpha  occ. eigenvalues --   -0.47132  -0.45846  -0.45340  -0.40945  -0.39266
 Alpha  occ. eigenvalues --   -0.38275  -0.36359  -0.34744  -0.33846  -0.33359
 Alpha  occ. eigenvalues --   -0.31640  -0.29563  -0.26682  -0.24676
 Alpha virt. eigenvalues --    0.09057   0.09338   0.10721   0.12726   0.13400
 Alpha virt. eigenvalues --    0.14275   0.15455   0.15480   0.16704   0.17033
 Alpha virt. eigenvalues --    0.18006   0.18218   0.19310   0.20683   0.22110

 Mulliken charges:
               1
     1  C   -0.287821
     2  C   -0.031151
     3  C   -0.308947
     4  C    0.446690
     5  O   -0.343633
     6  C   -0.009864
     7  O   -0.284080
     8  C    0.107632
     9  C   -0.271759
    10  H    0.100375
    11  H    0.099559
    12  H    0.071392
    13  H    0.109420
    14  H    0.096505
    15  H    0.116256
    16  H    0.100564
    17  H    0.070286
    18  H    0.117857
    19  H    0.100719
 Sum of Mulliken charges =   0.00000

 Dipole moment (field-independent basis, Debye):
    X=             -1.0711    Y=              0.2361    Z=             -0.2879  Tot=              1.1340
 Quadrupole moment (field-independent basis, Debye-Ang):
   XX=            -50.6185   YY=            -56.4157   ZZ=            -52.0458
   XY=             -0.0380   XZ=              0.0868   YZ=             -1.3144

  Exact polarizability:  84.625   0.072  68.548   1.066  -1.245  69.171
 Approx polarizability: 114.501  -0.526 104.188   2.398   0.093 105.051

                      1                      2                      3
                      A                      A                      A
 Frequencies --    112.9267               216.2322               341.8603
 Red. masses --      2.3442                 3.4926                 3.6372
 Frc consts  --      0.0176                 0.0962                 0.2504
 IR Inten    --      5.5551                 2.8296                 2.6510

                      4                      5                      6
                      A                      A                      A
 Frequencies --    402.6922               415.5463               495.7331
 Red. masses --      2.7805                 2.2729                 2.3164
 Frc consts  --      0.2657                 0.2312                 0.3354
 IR Inten    --      1.2618                 1.6916                 1.6371

                      7                      8                      9
                      A                      A                      A
 Frequencies --    554.9810               625.6946               683.2737
 Red. masses --      3.2304                 3.2931                 4.2758
 Frc consts  --      0.5862                 0.7596                 1.1761
 IR Inten    --      4.2848                 3.8318                 2.8387

                     10                     11                     12
                      A                      A                      A
 Frequencies --    748.4176               808.1251               842.7121
 Red. masses --      6.5017                 2.9729                 2.3257
 Frc consts  --      2.1457                 1.1439                 0.9731
 IR Inten    --      2.4427                 0.5445                 3.7550

                     13                     14                     15
                      A                      A                      A
 Frequencies --    858.4949               882.3055               923.9396
 Red. masses --      3.1145                 2.4354                 3.1571
 Frc consts  --      1.3524                 1.1170                 1.5879
 IR Inten    --      1.4954                 1.9470                37.8437

                     16                     17                     18
                      A                      A                      A
 Frequencies --    939.9871               962.6239               997.0361
 Red. masses --      2.4487                 1.7147                 1.2967
 Frc consts  --      1.2748                 0.9361                 0.7595
 IR Inten    --     30.8266                 7.8842                 1.5582

                     19                     20                     21
                      A                      A                      A
 Frequencies --   1008.6071              1046.2456              1061.5938
 Red. masses --      2.3253                 2.0231                 3.5582
 Frc consts  --      1.3937                 1.3048                 2.3627
 IR Inten    --      7.5161                13.8147                66.4392

                     22                     23                     24
                      A                      A                      A
 Frequencies --   1082.2290              1084.4155              1121.2057
 Red. masses --      1.3290                 1.9070                 2.2123
 Frc consts  --      0.9171                 1.3213                 1.6386
 IR Inten    --      2.1682                 4.9056                22.7888

                     25                     26                     27
                      A                      A                      A
 Frequencies --   1134.1270              1146.3277              1188.9378
 Red. masses --      1.5103                 1.6913                 1.3257
 Frc consts  --      1.1446                 1.3094                 1.1041
 IR Inten    --     16.4383                13.8032                 0.2481

                     28                     29                     30
                      A                      A                      A
 Frequencies --   1192.6328              1212.8052              1239.0618
 Red. masses --      1.7696                 1.3427                 2.1886
 Frc consts  --      1.4830                 1.1636                 1.9797
 IR Inten    --     37.3112                 8.3575                38.7813

                     31                     32                     33
                      A                      A                      A
 Frequencies --   1243.2302              1265.6090              1281.8086
 Red. masses --      1.4843                 1.6793                 2.3561
 Frc consts  --      1.3517                 1.5848                 2.2808
 IR Inten    --     47.1587                 0.4951                67.8930

                     34                     35                     36
                      A                      A                      A
 Frequencies --   1323.8898              1338.5315              1398.5099
 Red. masses --      1.6709                 1.8410                 1.2397
 Frc consts  --      1.7254                 1.9434                 1.4286
 IR Inten    --      5.3555                38.4246                29.8353

                     37                     38                     39
                      A                      A                      A
 Frequencies --   1431.7930              1483.5828              1490.7092
 Red. masses --      1.3318                 1.0980                 1.1011
 Frc consts  --      1.6087                 1.4239                 1.4417
 IR Inten    --      5.9516                 1.8889                 2.2269

                     40                     41                     42
                      A                      A                      A
 Frequencies --   1525.1170              1539.6419              2981.9648
 Red. masses --      1.1426                 1.1134                 1.0793
 Frc consts  --      1.5658                 1.5550                 5.6547
 IR Inten    --      9.3069                 0.7977                27.7917

                     43                     44                     45
                      A                      A                      A
 Frequencies --   2988.2169              3059.2317              3065.0369
 Red. masses --      1.0696                 1.0581                 1.0587
 Frc consts  --      5.6273                 5.8344                 5.8597
 IR Inten    --    126.5282                45.2686                30.4646

                     46                     47                     48
                      A                      A                      A
 Frequencies --   3067.6441              3069.3357              3114.2535
 Red. masses --      1.0941                 1.0648                 1.1070
 Frc consts  --      6.0660                 5.9101                 6.3255
 IR Inten    --     44.4566                16.6624                16.6533

                     49                     50                     51
                      A                      A                      A
 Frequencies --   3127.6916              3129.6332              3134.0282
 Red. masses --      1.1068                 1.1001                 1.1012
 Frc consts  --      6.3795                 6.3486                 6.3728
 IR Inten    --     18.4337                26.2558                48.6307

 - Thermochemistry -
 -------------------
 Temperature   298.150 Kelvin.  Pressure   1.00000 Atm.
 Atom     1 has atomic number  6 and mass  12.00000

 Molecular mass:   126.06808 amu.
 Principal axes and moments of inertia in atomic units:
                           1         2         3
     Eigenvalues --   562.449761013.562911237.70802
           X            1.00000  -0.00033   0.00076
           Y            0.00035   0.99973  -0.02324
           Z           -0.00075   0.02324   0.99973
 This molecule is an asymmetric top.
 Rotational symmetry number  1.
 Warning -- assumption of classical behavior for rotation
           may cause significant error
 Rotational temperatures (Kelvin)      0.15399     0.08545     0.06998
 Rotational constants (GHZ):           3.20872     1.78059     1.45813
 Zero-point vibrational energy     427008.4 (Joules/Mol)
                                  102.05746 (Kcal/Mol)
 Warning -- explicit consideration of   7 degrees of freedom as
           vibrations may cause significant error
 Vibrational temperatures:    162.48   311.11   491.86   579.38   597.88
          (Kelvin)            713.25   798.49   900.23   983.08  1076.80
                             1162.71  1212.47  1235.18  1269.44  1329.34
                             1352.43  1385.00  1434.51  1451.16  1505.31
                             1527.39  1557.08  1560.23  1613.16  1631.75
                             1649.31  1710.61  1715.93  1744.95  1782.73
                             1788.73  1820.93  1844.23  1904.78  1925.85
                             2012.14  2060.03  2134.54  2144.80  2194.30
                             2215.20  4290.38  4299.37  4401.55  4409.90
                             4413.65  4416.08  4480.71  4500.04  4502.84
                             4509.16

 Zero-point correction=                           0.162639 (Hartree/Particle)
 Thermal correction to Energy=                    0.169274
 Thermal correction to Enthalpy=                  0.170218
 Thermal correction to Gibbs Free Energy=         0.131742
 Sum of electronic and zero-point Energies=           -423.002937
 Sum of electronic and thermal Energies=              -422.996302
 Sum of electronic and thermal Enthalpies=            -422.995358
 Sum of electronic and thermal Free Energies=         -423.033834

                     E (Thermal)             CV                S
                      KCal/Mol        Cal/Mol-Kelvin    Cal/Mol-Kelvin
 Total                  106.221             27.616             80.978
 Electronic               0.000              0.000              0.000
 Translational            0.889              2.981             40.409
 Rotational               0.889              2.981             28.047
 Vibrational            104.443             21.654             12.523
 Vibration     1          0.607              1.939              3.218
 Vibration     2          0.645              1.816              1.990
 Vibration     3          0.721              1.592              1.203
 Vibration     4          0.768              1.464              0.953
 Vibration     5          0.779              1.436              0.907
 Vibration     6          0.851              1.259              0.669
 Vibration     7          0.910              1.129              0.534

 Normal termination of Gaussian 09 at Mon Jan 27 12:07:19 2020.
