 Gaussian 09, Revision D.01,
 Gaussian 09:  ES64L-G09RevD.01 24-Apr-2013

 -----------------------------
 # b3lyp 6-31G(2df,p) opt Freq
 -----------------------------

 -----
 titel
 -----
 Symbolic Z-matrix:
 Charge =  0 Multiplicity = 1

 SCF Done:  E(RB3LYP) =  -423.156218524     A.U. after   14 cycles
 Optimization completed.
    -- Stationary point found.
 Normal termination of Gaussian 09 at Mon Jan 27 13:55:32 2020.

 ----------------------------------------------------------------------
 #N Geom=AllCheck Guess=TCheck SCRF=Check GenChk RB3LYP/6-31G(2df,p) Fr
 eq
 ----------------------------------------------------------------------

 Structure from the checkpoint file:  "/scratch/puck/g09_a65d9336-e40a-4294-8081-c775b298914e/Gau-137708.chk"
 -----
 titel
 -----
 Charge =  0 Multiplicity = 1

                         Standard orientation:
 ---------------------------------------------------------------------
 Center     Atomic      Atomic             Coordinates (Angstroms)
 Number     Number       Type             X           Y           Z
 ---------------------------------------------------------------------
      1          8           0       -2.929171   -0.805510   -0.050441
      2          6           0       -2.048104   -0.096972    0.362460
      3          6           0       -1.212425    0.828524   -0.502291
      4          6           0        0.281797    0.659139   -0.261967
      5          6           0        1.141886    1.851904   -0.210822
      6          8           0        0.744399    1.181778    0.991862
      7          6           0        0.850099   -0.676568   -0.652401
      8          6           0        0.854663   -1.814605    0.343533
      9          6           0        2.149281   -1.161872   -0.070645
     10          1           0       -1.795549   -0.058358    1.445147
     11          1           0       -1.467206    0.651789   -1.551661
     12          1           0       -1.495792    1.857132   -0.244024
     13          1           0        2.195807    1.757219   -0.464212
     14          1           0        0.710644    2.841348   -0.355731
     15          1           0        0.643134   -0.946301   -1.684523
     16          1           0        0.501774   -1.604396    1.346949
     17          1           0        0.627684   -2.810909   -0.017464
     18          1           0        2.629076   -0.525998    0.664483
     19          1           0        2.825428   -1.708971   -0.717538
 ---------------------------------------------------------------------

 SCF Done:  E(RB3LYP) =  -423.156218524     A.U. after    1 cycles

 The electronic state is 1-A.
 Alpha  occ. eigenvalues --  -19.16235 -19.13957 -10.27231 -10.25794 -10.24050
 Alpha  occ. eigenvalues --  -10.20182 -10.20102 -10.19112 -10.19025  -1.08186
 Alpha  occ. eigenvalues --   -1.04631  -0.86343  -0.78064  -0.68338  -0.64991
 Alpha  occ. eigenvalues --   -0.60426  -0.58471  -0.55970  -0.52200  -0.49236
 Alpha  occ. eigenvalues --   -0.48874  -0.45783  -0.44360  -0.42753  -0.42100
 Alpha  occ. eigenvalues --   -0.38393  -0.37707  -0.36826  -0.36009  -0.34160
 Alpha  occ. eigenvalues --   -0.30299  -0.28457  -0.27896  -0.24824
 Alpha virt. eigenvalues --   -0.02278   0.08159   0.08877   0.09921   0.10100
 Alpha virt. eigenvalues --    0.12196   0.13110   0.13679   0.15473   0.15923
 Alpha virt. eigenvalues --    0.16967   0.17914   0.18480   0.21449   0.23062

 Mulliken charges:
               1
     1  O   -0.244202
     2  C    0.169868
     3  C   -0.348395
     4  C    0.367293
     5  C   -0.226715
     6  O   -0.271753
     7  C   -0.062956
     8  C   -0.259846
     9  C   -0.281012
    10  H    0.092212
    11  H    0.122519
    12  H    0.124692
    13  H    0.120305
    14  H    0.115038
    15  H    0.093950
    16  H    0.125988
    17  H    0.120289
    18  H    0.129748
    19  H    0.112979
 Sum of Mulliken charges =   0.00000

 Dipole moment (field-independent basis, Debye):
    X=              2.0561    Y=              1.3712    Z=             -1.2268  Tot=              2.7591
 Quadrupole moment (field-independent basis, Debye-Ang):
   XX=            -60.3426   YY=            -50.8654   ZZ=            -53.4553
   XY=             -4.5408   XZ=             -2.7533   YZ=             -1.4349

  Exact polarizability:  82.638   4.929  80.495   0.541  -1.224  63.096
 Approx polarizability: 114.483  13.174 113.762   4.376   0.678 103.662

                      1                      2                      3
                      A                      A                      A
 Frequencies --     52.2573                64.6879               103.8678
 Red. masses --      4.5084                 3.6773                 2.8840
 Frc consts  --      0.0073                 0.0091                 0.0183
 IR Inten    --      3.9723                 2.6608                 1.8772

                      4                      5                      6
                      A                      A                      A
 Frequencies --    176.5609               226.5930               255.7844
 Red. masses --      2.7222                 3.4750                 2.7869
 Frc consts  --      0.0500                 0.1051                 0.1074
 IR Inten    --      3.2591                 2.2292                 4.0029

                      7                      8                      9
                      A                      A                      A
 Frequencies --    325.8236               394.0984               440.4862
 Red. masses --      2.9401                 2.7122                 3.7540
 Frc consts  --      0.1839                 0.2482                 0.4291
 IR Inten    --      1.2256                 2.2592                 5.9226

                     10                     11                     12
                      A                      A                      A
 Frequencies --    532.4207               542.3760               672.8079
 Red. masses --      3.2326                 2.5566                 2.5194
 Frc consts  --      0.5399                 0.4431                 0.6719
 IR Inten    --      8.2899                12.3279                 5.4203

                     13                     14                     15
                      A                      A                      A
 Frequencies --    790.7437               806.3376               827.4891
 Red. masses --      1.1960                 1.8520                 1.2545
 Frc consts  --      0.4406                 0.7095                 0.5061
 IR Inten    --      2.6078                 1.7503                 2.9132

                     16                     17                     18
                      A                      A                      A
 Frequencies --    834.2520               903.6410               933.6667
 Red. masses --      2.0363                 3.6098                 2.3689
 Frc consts  --      0.8350                 1.7367                 1.2167
 IR Inten    --      9.6282                 7.3191                 8.6365

                     19                     20                     21
                      A                      A                      A
 Frequencies --    943.6112               974.9914              1029.6324
 Red. masses --      2.7484                 3.3819                 1.8622
 Frc consts  --      1.4418                 1.8942                 1.1631
 IR Inten    --      5.8350                23.2903                 1.1116

                     22                     23                     24
                      A                      A                      A
 Frequencies --   1061.8966              1070.0071              1094.5894
 Red. masses --      1.6390                 1.7863                 1.3685
 Frc consts  --      1.0889                 1.2050                 0.9661
 IR Inten    --     20.8730                21.1470                 0.6939

                     25                     26                     27
                      A                      A                      A
 Frequencies --   1112.6664              1130.2898              1136.1762
 Red. masses --      1.6539                 1.2167                 1.1931
 Frc consts  --      1.2064                 0.9158                 0.9074
 IR Inten    --      8.3684                 6.9991                 1.1459

                     28                     29                     30
                      A                      A                      A
 Frequencies --   1170.2607              1176.2003              1202.1136
 Red. masses --      1.4171                 1.6508                 1.3438
 Frc consts  --      1.1434                 1.3456                 1.1442
 IR Inten    --      1.1854                12.8317                 0.0356

                     31                     32                     33
                      A                      A                      A
 Frequencies --   1223.7434              1257.2162              1299.2705
 Red. masses --      1.9632                 1.5352                 1.6176
 Frc consts  --      1.7322                 1.4297                 1.6089
 IR Inten    --      2.7825                12.1680                 5.6126

                     34                     35                     36
                      A                      A                      A
 Frequencies --   1385.7476              1421.0542              1422.2274
 Red. masses --      2.1209                 1.5101                 1.6003
 Frc consts  --      2.3996                 1.7967                 1.9072
 IR Inten    --     15.0995                 7.7184                 7.2575

                     37                     38                     39
                      A                      A                      A
 Frequencies --   1447.5369              1458.5011              1499.8723
 Red. masses --      1.1204                 1.0951                 1.4415
 Frc consts  --      1.3832                 1.3725                 1.9106
 IR Inten    --      6.8637                 1.7444                 1.8109

                     40                     41                     42
                      A                      A                      A
 Frequencies --   1525.1552              1833.5082              2891.5057
 Red. masses --      1.3085                10.0097                 1.0832
 Frc consts  --      1.7933                19.8262                 5.3361
 IR Inten    --      4.4070               167.1310                71.7334

                     43                     44                     45
                      A                      A                      A
 Frequencies --   3030.8815              3088.2724              3099.3927
 Red. masses --      1.0616                 1.0506                 1.0999
 Frc consts  --      5.7460                 5.9036                 6.2250
 IR Inten    --      7.1273                24.2057                 8.8067

                     46                     47                     48
                      A                      A                      A
 Frequencies --   3139.9834              3141.4172              3146.7918
 Red. masses --      1.0512                 1.0635                 1.0810
 Frc consts  --      6.1065                 6.1836                 6.3069
 IR Inten    --     15.1355                10.9935                 6.3281

                     49                     50                     51
                      A                      A                      A
 Frequencies --   3179.0230              3222.7326              3236.5305
 Red. masses --      1.1194                 1.1182                 1.1160
 Frc consts  --      6.6652                 6.8423                 6.8877
 IR Inten    --     18.9989                 0.2462                11.0002

 - Thermochemistry -
 -------------------
 Temperature   298.150 Kelvin.  Pressure   1.00000 Atm.
 Atom     1 has atomic number  8 and mass  15.99491

 Molecular mass:   126.06808 amu.
 Principal axes and moments of inertia in atomic units:
                           1         2         3
     Eigenvalues --   775.012471327.006411824.79591
           X            0.99891  -0.04619  -0.00620
           Y            0.04605   0.99872  -0.02102
           Z            0.00716   0.02071   0.99976
 This molecule is an asymmetric top.
 Rotational symmetry number  1.
 Warning -- assumption of classical behavior for rotation
           may cause significant error
 Rotational temperatures (Kelvin)      0.11176     0.06527     0.04746
 Rotational constants (GHZ):           2.32866     1.36001     0.98901
 Zero-point vibrational energy     412333.0 (Joules/Mol)
                                   98.54995 (Kcal/Mol)
 Warning -- explicit consideration of  11 degrees of freedom as
           vibrations may cause significant error
 Vibrational temperatures:     75.19    93.07   149.44   254.03   326.02
          (Kelvin)            368.02   468.79   567.02   633.76   766.03
                              780.36   968.02  1137.70  1160.14  1190.57
                             1200.30  1300.14  1343.34  1357.64  1402.79
                             1481.41  1527.83  1539.50  1574.87  1600.88
                             1626.23  1634.70  1683.74  1692.29  1729.57
                             1760.69  1808.85  1869.36  1993.78  2044.58
                             2046.27  2082.68  2098.46  2157.98  2194.36
                             2638.01  4160.23  4360.76  4443.33  4459.33
                             4517.73  4519.79  4527.53  4573.90  4636.79
                             4656.64

 Zero-point correction=                           0.157049 (Hartree/Particle)
 Thermal correction to Energy=                    0.166142
 Thermal correction to Enthalpy=                  0.167086
 Thermal correction to Gibbs Free Energy=         0.122215
 Sum of electronic and zero-point Energies=           -422.999169
 Sum of electronic and thermal Energies=              -422.990077
 Sum of electronic and thermal Enthalpies=            -422.989132
 Sum of electronic and thermal Free Energies=         -423.034004

                     E (Thermal)             CV                S
                      KCal/Mol        Cal/Mol-Kelvin    Cal/Mol-Kelvin
 Total                  104.256             33.130             94.440
 Electronic               0.000              0.000              0.000
 Translational            0.889              2.981             40.409
 Rotational               0.889              2.981             29.019
 Vibrational            102.478             27.168             25.012
 Vibration     1          0.596              1.977              4.730
 Vibration     2          0.597              1.971              4.309
 Vibration     3          0.605              1.946              3.380
 Vibration     4          0.628              1.871              2.364
 Vibration     5          0.650              1.801              1.906
 Vibration     6          0.666              1.753              1.690
 Vibration     7          0.710              1.624              1.281
 Vibration     8          0.761              1.483              0.985
 Vibration     9          0.800              1.382              0.825
 Vibration    10          0.887              1.178              0.582
 Vibration    11          0.897              1.156              0.560

 Normal termination of Gaussian 09 at Mon Jan 27 14:52:59 2020.
