 Gaussian 09, Revision D.01,
 Gaussian 09:  ES64L-G09RevD.01 24-Apr-2013

 -----------------------------
 # b3lyp 6-31G(2df,p) opt Freq
 -----------------------------

 -----
 titel
 -----
 Symbolic Z-matrix:
 Charge =  0 Multiplicity = 1

 SCF Done:  E(RB3LYP) =  -423.224017076     A.U. after   14 cycles
 Optimization completed.
    -- Stationary point found.
 Normal termination of Gaussian 09 at Tue Jan 28 14:12:40 2020.

 ----------------------------------------------------------------------
 #N Geom=AllCheck Guess=TCheck SCRF=Check GenChk RB3LYP/6-31G(2df,p) Fr
 eq
 ----------------------------------------------------------------------

 Structure from the checkpoint file:  "/scratch/puck/g09_80891bf5-7680-4992-9205-44b8894acdf7/Gau-34218.chk"
 -----
 titel
 -----
 Charge =  0 Multiplicity = 1

                         Standard orientation:
 ---------------------------------------------------------------------
 Center     Atomic      Atomic             Coordinates (Angstroms)
 Number     Number       Type             X           Y           Z
 ---------------------------------------------------------------------
      1          8           0        3.770057   -0.285945   -0.263932
      2          6           0        2.411353   -0.027534   -0.558183
      3          6           0        1.498038   -0.242915    0.667966
      4          6           0        0.048615   -0.024351    0.362918
      5          6           0       -0.893184   -0.971315    0.222680
      6          6           0       -2.208225   -0.380367   -0.096019
      7          8           0       -3.250649   -0.964332   -0.284270
      8          6           0       -2.010658    1.145399   -0.144867
      9          6           0       -0.517902    1.368846    0.155536
     10          1           0        4.075050    0.383108    0.357296
     11          1           0        2.271979    0.985912   -0.964085
     12          1           0        2.133995   -0.734515   -1.346154
     13          1           0        1.665118   -1.257850    1.040556
     14          1           0        1.814572    0.453885    1.457857
     15          1           0       -0.749553   -2.039717    0.328575
     16          1           0       -2.312439    1.518270   -1.127778
     17          1           0       -2.670654    1.618368    0.587907
     18          1           0        0.001263    1.886952   -0.659867
     19          1           0       -0.352823    1.981222    1.051123
 ---------------------------------------------------------------------

 SCF Done:  E(RB3LYP) =  -423.224017076     A.U. after    1 cycles

 The electronic state is 1-A.
 Alpha  occ. eigenvalues --  -19.14741 -19.11341 -10.25682 -10.24359 -10.21952
 Alpha  occ. eigenvalues --  -10.20361 -10.20279 -10.19005 -10.18621  -1.02935
 Alpha  occ. eigenvalues --   -1.02399  -0.85975  -0.77675  -0.72405  -0.67954
 Alpha  occ. eigenvalues --   -0.63754  -0.55486  -0.53585  -0.51743  -0.47840
 Alpha  occ. eigenvalues --   -0.47124  -0.46112  -0.42470  -0.41854  -0.39988
 Alpha  occ. eigenvalues --   -0.39257  -0.38017  -0.37897  -0.35938  -0.35060
 Alpha  occ. eigenvalues --   -0.33349  -0.28889  -0.26020  -0.23375
 Alpha virt. eigenvalues --   -0.04146   0.05773   0.06329   0.08114   0.10985
 Alpha virt. eigenvalues --    0.11858   0.12626   0.14163   0.15104   0.16740
 Alpha virt. eigenvalues --    0.18238   0.19811   0.20220   0.21167   0.23114

 Mulliken charges:
               1
     1  O   -0.408148
     2  C   -0.056207
     3  C   -0.321585
     4  C    0.328119
     5  C   -0.293858
     6  C    0.396185
     7  O   -0.336683
     8  C   -0.334164
     9  C   -0.315849
    10  H    0.284492
    11  H    0.094244
    12  H    0.126216
    13  H    0.123686
    14  H    0.099175
    15  H    0.108688
    16  H    0.133304
    17  H    0.133631
    18  H    0.120575
    19  H    0.118179
 Sum of Mulliken charges =   0.00000

 Dipole moment (field-independent basis, Debye):
    X=              2.8694    Y=              2.8820    Z=              1.2044  Tot=              4.2415
 Quadrupole moment (field-independent basis, Debye-Ang):
   XX=            -68.5473   YY=            -51.8951   ZZ=            -52.0328
   XY=             -1.1904   XZ=              2.2515   YZ=             -0.2013

  Exact polarizability: 108.218   7.110  77.663   6.050   0.716  57.502
 Approx polarizability: 154.844  23.404 121.807  11.783   4.294  88.979

                      1                      2                      3
                      A                      A                      A
 Frequencies --     38.8919                85.9653                90.9844
 Red. masses --      2.6981                 2.7423                 1.8810
 Frc consts  --      0.0024                 0.0119                 0.0092
 IR Inten    --      1.4057                 4.2805                 0.5392

                      4                      5                      6
                      A                      A                      A
 Frequencies --    106.9712               225.7699               291.8564
 Red. masses --      4.9670                 3.6989                 1.5808
 Frc consts  --      0.0335                 0.1111                 0.0793
 IR Inten    --      2.6957                 2.1673                57.9857

                      7                      8                      9
                      A                      A                      A
 Frequencies --    309.4539               347.0561               481.8291
 Red. masses --      1.7930                 4.7003                 3.3049
 Frc consts  --      0.1012                 0.3336                 0.4521
 IR Inten    --     32.3461                31.9678                 6.2121

                     10                     11                     12
                      A                      A                      A
 Frequencies --    506.9251               553.3229               629.2992
 Red. masses --      3.0038                 1.9257                 6.4257
 Frc consts  --      0.4548                 0.3474                 1.4993
 IR Inten    --      7.9938                 0.1548                 4.5422

                     13                     14                     15
                      A                      A                      A
 Frequencies --    669.9446               786.6465               830.1441
 Red. masses --      4.2426                 1.1701                 1.4554
 Frc consts  --      1.1219                 0.4266                 0.5909
 IR Inten    --      1.1830                 1.2494                 0.6371

                     16                     17                     18
                      A                      A                      A
 Frequencies --    836.2466               882.1149               896.0239
 Red. masses --      4.7157                 2.4930                 1.5923
 Frc consts  --      1.9429                 1.1429                 0.7532
 IR Inten    --     11.9158                 1.9347                 7.1698

                     19                     20                     21
                      A                      A                      A
 Frequencies --    997.2841              1003.6650              1023.3025
 Red. masses --      2.2019                 2.4592                 2.6115
 Frc consts  --      1.2903                 1.4596                 1.6112
 IR Inten    --     13.5512                 4.7810                 0.7794

                     22                     23                     24
                      A                      A                      A
 Frequencies --   1044.9746              1077.9594              1135.9420
 Red. masses --      1.6582                 4.2690                 1.5481
 Frc consts  --      1.0668                 2.9227                 1.1769
 IR Inten    --     51.0759               144.5656                17.9892

                     25                     26                     27
                      A                      A                      A
 Frequencies --   1155.8117              1166.8044              1187.7765
 Red. masses --      1.6914                 1.2914                 2.0731
 Frc consts  --      1.3313                 1.0359                 1.7232
 IR Inten    --      6.3319                 1.0089                43.3599

                     28                     29                     30
                      A                      A                      A
 Frequencies --   1233.6617              1257.3064              1287.1927
 Red. masses --      1.1312                 1.6586                 1.5562
 Frc consts  --      1.0144                 1.5448                 1.5192
 IR Inten    --      0.8492                 6.8396                36.6037

                     31                     32                     33
                      A                      A                      A
 Frequencies --   1300.6019              1316.3644              1352.5233
 Red. masses --      1.4757                 1.3583                 2.0286
 Frc consts  --      1.4707                 1.3867                 2.1864
 IR Inten    --      9.7581                 1.5345                14.5631

                     34                     35                     36
                      A                      A                      A
 Frequencies --   1396.8885              1412.5159              1451.4498
 Red. masses --      1.2680                 1.2294                 1.0772
 Frc consts  --      1.4578                 1.4453                 1.3370
 IR Inten    --      1.2588                56.8733                 3.1400

                     37                     38                     39
                      A                      A                      A
 Frequencies --   1481.3266              1483.6766              1512.1207
 Red. masses --      1.1007                 1.1037                 1.0898
 Frc consts  --      1.4231                 1.4315                 1.4681
 IR Inten    --      7.4534                 3.3627                 0.6320

                     40                     41                     42
                      A                      A                      A
 Frequencies --   1674.1256              1812.1267              2990.9853
 Red. masses --      7.1531                12.4466                 1.0691
 Frc consts  --     11.8119                24.0813                 5.6348
 IR Inten    --     80.3804               322.6493                44.3549

                     43                     44                     45
                      A                      A                      A
 Frequencies --   3004.3784              3027.6167              3052.9920
 Red. masses --      1.0667                 1.0603                 1.1013
 Frc consts  --      5.6729                 5.7263                 6.0478
 IR Inten    --     23.2412                29.7596                13.3714

                     46                     47                     48
                      A                      A                      A
 Frequencies --   3067.5651              3078.7410              3095.4083
 Red. masses --      1.0609                 1.0893                 1.0991
 Frc consts  --      5.8818                 6.0834                 6.2047
 IR Inten    --     10.2916                10.2844                30.5123

                     49                     50                     51
                      A                      A                      A
 Frequencies --   3108.0450              3212.4791              3815.6651
 Red. masses --      1.1031                 1.0956                 1.0662
 Frc consts  --      6.2780                 6.6617                 9.1458
 IR Inten    --      8.8896                 3.7069                23.0837

 - Thermochemistry -
 -------------------
 Temperature   298.150 Kelvin.  Pressure   1.00000 Atm.
 Atom     1 has atomic number  8 and mass  15.99491

 Molecular mass:   126.06808 amu.
 Principal axes and moments of inertia in atomic units:
                           1         2         3
     Eigenvalues --   399.482182436.642282666.70548
           X            0.99995  -0.01006   0.00206
           Y            0.01009   0.99982  -0.01614
           Z           -0.00190   0.01616   0.99987
 This molecule is an asymmetric top.
 Rotational symmetry number  1.
 Rotational temperatures (Kelvin)      0.21682     0.03555     0.03248
 Rotational constants (GHZ):           4.51770     0.74067     0.67677
 Zero-point vibrational energy     417429.3 (Joules/Mol)
                                   99.76799 (Kcal/Mol)
 Warning -- explicit consideration of  11 degrees of freedom as
           vibrations may cause significant error
 Vibrational temperatures:     55.96   123.68   130.91   153.91   324.83
          (Kelvin)            419.92   445.23   499.34   693.24   729.35
                              796.11   905.42   963.90  1131.81  1194.39
                             1203.17  1269.17  1289.18  1434.87  1444.05
                             1472.30  1503.48  1550.94  1634.37  1662.95
                             1678.77  1708.94  1774.96  1808.98  1851.98
                             1871.27  1893.95  1945.98  2009.81  2032.29
                             2088.31  2131.30  2134.68  2175.60  2408.69
                             2607.24  4303.36  4322.62  4356.06  4392.57
                             4413.54  4429.62  4453.60  4471.78  4622.04
                             5489.88

 Zero-point correction=                           0.158990 (Hartree/Particle)
 Thermal correction to Energy=                    0.168243
 Thermal correction to Enthalpy=                  0.169187
 Thermal correction to Gibbs Free Energy=         0.123537
 Sum of electronic and zero-point Energies=           -423.065027
 Sum of electronic and thermal Energies=              -423.055774
 Sum of electronic and thermal Enthalpies=            -423.054830
 Sum of electronic and thermal Free Energies=         -423.100480

                     E (Thermal)             CV                S
                      KCal/Mol        Cal/Mol-Kelvin    Cal/Mol-Kelvin
 Total                  105.574             33.120             96.080
 Electronic               0.000              0.000              0.000
 Translational            0.889              2.981             40.409
 Rotational               0.889              2.981             29.341
 Vibrational            103.797             27.159             26.330
 Vibration     1          0.594              1.981              5.315
 Vibration     2          0.601              1.959              3.750
 Vibration     3          0.602              1.956              3.639
 Vibration     4          0.606              1.944              3.323
 Vibration     5          0.650              1.802              1.912
 Vibration     6          0.687              1.689              1.463
 Vibration     7          0.699              1.656              1.365
 Vibration     8          0.725              1.581              1.180
 Vibration     9          0.838              1.290              0.705
 Vibration    10          0.862              1.235              0.641
 Vibration    11          0.909              1.132              0.537

 Optimization completed.
    -- Stationary point found.
 Normal termination of Gaussian 09 at Tue Jan 28 14:49:26 2020.
