 Gaussian 09, Revision D.01,
 Gaussian 09:  ES64L-G09RevD.01 24-Apr-2013

 -----------------------------
 # b3lyp 6-31G(2df,p) opt Freq
 -----------------------------

 -----
 titel
 -----
 Symbolic Z-matrix:
 Charge =  0 Multiplicity = 1

 SCF Done:  E(RB3LYP) =  -423.146765850     A.U. after   14 cycles
 Optimization completed.
    -- Stationary point found.
 Normal termination of Gaussian 09 at Tue Jan 28 00:42:45 2020.

 ----------------------------------------------------------------------
 #N Geom=AllCheck Guess=TCheck SCRF=Check GenChk RB3LYP/6-31G(2df,p) Fr
 eq
 ----------------------------------------------------------------------

 Structure from the checkpoint file:  "/scratch/puck/g09_34098499-4ebe-43dd-8d6e-14d716cc0fe3/Gau-961.chk"
 -----
 titel
 -----
 Charge =  0 Multiplicity = 1

                         Standard orientation:
 ---------------------------------------------------------------------
 Center     Atomic      Atomic             Coordinates (Angstroms)
 Number     Number       Type             X           Y           Z
 ---------------------------------------------------------------------
      1          6           0       -2.537921   -0.765339    0.375581
      2          6           0       -1.253390   -0.265353   -0.198336
      3          6           0       -0.097284   -0.897737   -0.378022
      4          6           0        0.896597   -1.854931    0.233434
      5          8           0        1.904040   -0.797998    0.160989
      6          6           0        1.043664    0.001842   -0.705466
      7          6           0        0.515406    1.404490   -0.312523
      8          8           0        0.795602    1.621286    1.055226
      9          6           0       -1.020811    1.207246   -0.563817
     10          1           0       -3.358384   -0.689816   -0.349815
     11          1           0       -2.461327   -1.811557    0.683905
     12          1           0       -2.836706   -0.168577    1.246963
     13          1           0        0.701242   -2.182762    1.260570
     14          1           0        1.192827   -2.717508   -0.378113
     15          1           0        1.436979   -0.000336   -1.731907
     16          1           0        0.935019    2.209312   -0.934039
     17          1           0        0.413094    2.469558    1.300335
     18          1           0       -1.287859    1.442074   -1.603675
     19          1           0       -1.609594    1.881991    0.070941
 ---------------------------------------------------------------------

 SCF Done:  E(RB3LYP) =  -423.146765850     A.U. after    1 cycles

 The electronic state is 1-A.
 Alpha  occ. eigenvalues --  -19.13459 -19.12949 -10.23446 -10.23345 -10.22128
 Alpha  occ. eigenvalues --  -10.19085 -10.18887 -10.18561 -10.17462  -1.03319
 Alpha  occ. eigenvalues --   -1.01344  -0.83263  -0.74161  -0.71059  -0.67557
 Alpha  occ. eigenvalues --   -0.63918  -0.57535  -0.52074  -0.50322  -0.47957
 Alpha  occ. eigenvalues --   -0.45375  -0.44480  -0.43826  -0.40747  -0.40420
 Alpha  occ. eigenvalues --   -0.39675  -0.36847  -0.36333  -0.33391  -0.31940
 Alpha  occ. eigenvalues --   -0.29958  -0.26740  -0.24810  -0.22664
 Alpha virt. eigenvalues --    0.01184   0.06709   0.08116   0.10988   0.12595
 Alpha virt. eigenvalues --    0.12969   0.13830   0.15609   0.16750   0.17001
 Alpha virt. eigenvalues --    0.17499   0.18411   0.18996   0.20493   0.22618

 Mulliken charges:
               1
     1  C   -0.496670
     2  C    0.192820
     3  C    0.098279
     4  C   -0.153418
     5  O   -0.297346
     6  C    0.126768
     7  C    0.059634
     8  O   -0.417995
     9  C   -0.328862
    10  H    0.128883
    11  H    0.125337
    12  H    0.127515
    13  H    0.118488
    14  H    0.104116
    15  H    0.073374
    16  H    0.056851
    17  H    0.282665
    18  H    0.105949
    19  H    0.093612
 Sum of Mulliken charges =   0.00000

 Dipole moment (field-independent basis, Debye):
    X=             -2.5891    Y=              0.9236    Z=             -0.7825  Tot=              2.8581
 Quadrupole moment (field-independent basis, Debye-Ang):
   XX=            -57.2514   YY=            -45.5230   ZZ=            -52.7951
   XY=             -0.4691   XZ=             -3.1034   YZ=             -0.1271

  Exact polarizability:  88.111  -6.792  84.143  -4.583  -3.927  64.539
 Approx polarizability: 131.620 -15.784 118.139  -5.456  -3.449  99.375

                      1                      2                      3
                      A                      A                      A
 Frequencies --    111.6987               142.2059               171.6759
 Red. masses --      3.6335                 2.5876                 1.1507
 Frc consts  --      0.0267                 0.0308                 0.0200
 IR Inten    --      1.1204                 1.1587                 0.5864

                      4                      5                      6
                      A                      A                      A
 Frequencies --    200.6287               259.3553               264.2971
 Red. masses --      3.1935                 1.9166                 1.4631
 Frc consts  --      0.0757                 0.0760                 0.0602
 IR Inten    --      3.1005                37.3943                71.8485

                      7                      8                      9
                      A                      A                      A
 Frequencies --    332.0050               382.4745               460.7611
 Red. masses --      2.4549                 3.0191                 2.6505
 Frc consts  --      0.1594                 0.2602                 0.3315
 IR Inten    --      3.4249                 4.4254                 1.7535

                     10                     11                     12
                      A                      A                      A
 Frequencies --    508.8142               595.5751               690.6620
 Red. masses --      3.7465                 4.3241                 4.1333
 Frc consts  --      0.5715                 0.9037                 1.1617
 IR Inten    --      9.3102                 0.4947                 7.3680

                     13                     14                     15
                      A                      A                      A
 Frequencies --    757.7101               802.1883               850.2785
 Red. masses --      4.8283                 4.2521                 2.3589
 Frc consts  --      1.6332                 1.6122                 1.0048
 IR Inten    --     17.7656                17.7094                 0.9910

                     16                     17                     18
                      A                      A                      A
 Frequencies --    902.0450               916.4441               946.0618
 Red. masses --      2.8166                 2.8000                 2.1446
 Frc consts  --      1.3503                 1.3855                 1.1309
 IR Inten    --     21.5518                17.7751                17.9817

                     19                     20                     21
                      A                      A                      A
 Frequencies --    955.4610               984.7725              1030.3071
 Red. masses --      2.9310                 2.0709                 2.0788
 Frc consts  --      1.5765                 1.1833                 1.3002
 IR Inten    --     38.9412                30.3988                 9.4381

                     22                     23                     24
                      A                      A                      A
 Frequencies --   1053.8717              1091.7306              1118.2585
 Red. masses --      1.7947                 2.0248                 2.4939
 Frc consts  --      1.1744                 1.4219                 1.8374
 IR Inten    --     18.5733                16.7581                21.7169

                     25                     26                     27
                      A                      A                      A
 Frequencies --   1124.8048              1142.3819              1184.5201
 Red. masses --      1.9103                 1.3181                 1.5434
 Frc consts  --      1.4240                 1.0135                 1.2759
 IR Inten    --      0.6588                 1.5924                14.4600

                     28                     29                     30
                      A                      A                      A
 Frequencies --   1193.8023              1231.6745              1271.1388
 Red. masses --      1.3639                 1.8626                 1.6487
 Frc consts  --      1.1453                 1.6648                 1.5696
 IR Inten    --     35.4092                 4.5760                30.7601

                     31                     32                     33
                      A                      A                      A
 Frequencies --   1274.8532              1331.1677              1341.5008
 Red. masses --      1.5278                 1.5157                 1.5821
 Frc consts  --      1.4630                 1.5824                 1.6775
 IR Inten    --      0.6571                 1.8440                 5.3122

                     34                     35                     36
                      A                      A                      A
 Frequencies --   1358.5336              1412.4719              1429.2261
 Red. masses --      1.4041                 1.2817                 1.4575
 Frc consts  --      1.5268                 1.5066                 1.7541
 IR Inten    --     17.6464                 0.8347                 5.8223

                     37                     38                     39
                      A                      A                      A
 Frequencies --   1471.2868              1478.3229              1488.0820
 Red. masses --      1.0955                 1.0505                 1.0515
 Frc consts  --      1.3972                 1.3527                 1.3719
 IR Inten    --      1.3669                 4.4527                 5.6402

                     40                     41                     42
                      A                      A                      A
 Frequencies --   1508.3546              1780.2244              2983.2367
 Red. masses --      1.1051                 9.5566                 1.0819
 Frc consts  --      1.4813                17.8444                 5.6730
 IR Inten    --      1.7384                 3.6673                18.2991

                     43                     44                     45
                      A                      A                      A
 Frequencies --   3000.8028              3009.1934              3013.1501
 Red. masses --      1.0758                 1.0608                 1.0571
 Frc consts  --      5.7077                 5.6596                 5.6548
 IR Inten    --     66.3739               124.0485                73.0908

                     46                     47                     48
                      A                      A                      A
 Frequencies --   3017.1502              3048.5401              3060.5743
 Red. masses --      1.0515                 1.1006                 1.0984
 Frc consts  --      5.6397                 6.0264                 6.0618
 IR Inten    --     28.2172                25.0315                17.3938

                     49                     50                     51
                      A                      A                      A
 Frequencies --   3064.8710              3109.9341              3820.3420
 Red. masses --      1.1046                 1.0988                 1.0662
 Frc consts  --      6.1132                 6.2615                 9.1684
 IR Inten    --     33.5761                18.4555                19.8223

 - Thermochemistry -
 -------------------
 Temperature   298.150 Kelvin.  Pressure   1.00000 Atm.
 Atom     1 has atomic number  6 and mass  12.00000

 Molecular mass:   126.06808 amu.
 Principal axes and moments of inertia in atomic units:
                           1         2         3
     Eigenvalues --   823.959541010.833341509.01793
           X            0.99968   0.01004  -0.02315
           Y           -0.01069   0.99954  -0.02825
           Z            0.02285   0.02848   0.99933
 This molecule is an asymmetric top.
 Rotational symmetry number  1.
 Warning -- assumption of classical behavior for rotation
           may cause significant error
 Rotational temperatures (Kelvin)      0.10512     0.08569     0.05740
 Rotational constants (GHZ):           2.19033     1.78540     1.19597
 Zero-point vibrational energy     416775.5 (Joules/Mol)
                                   99.61174 (Kcal/Mol)
 Warning -- explicit consideration of  11 degrees of freedom as
           vibrations may cause significant error
 Vibrational temperatures:    160.71   204.60   247.00   288.66   373.15
          (Kelvin)            380.26   477.68   550.29   662.93   732.07
                              856.90   993.71  1090.17  1154.17  1223.36
                             1297.84  1318.56  1361.17  1374.69  1416.87
                             1482.38  1516.28  1570.75  1608.92  1618.34
                             1643.63  1704.26  1717.61  1772.10  1828.88
                             1834.23  1915.25  1930.12  1954.62  2032.23
                             2056.34  2116.85  2126.97  2141.02  2170.18
                             2561.34  4292.21  4317.48  4329.55  4335.25
                             4341.00  4386.16  4403.48  4409.66  4474.50
                             5496.61

 Zero-point correction=                           0.158741 (Hartree/Particle)
 Thermal correction to Energy=                    0.167271
 Thermal correction to Enthalpy=                  0.168215
 Thermal correction to Gibbs Free Energy=         0.125792
 Sum of electronic and zero-point Energies=           -422.988024
 Sum of electronic and thermal Energies=              -422.979495
 Sum of electronic and thermal Enthalpies=            -422.978551
 Sum of electronic and thermal Free Energies=         -423.020974

                     E (Thermal)             CV                S
                      KCal/Mol        Cal/Mol-Kelvin    Cal/Mol-Kelvin
 Total                  104.964             32.350             89.286
 Electronic               0.000              0.000              0.000
 Translational            0.889              2.981             40.409
 Rotational               0.889              2.981             28.621
 Vibrational            103.186             26.389             20.256
 Vibration     1          0.607              1.940              3.239
 Vibration     2          0.616              1.911              2.774
 Vibration     3          0.626              1.877              2.417
 Vibration     4          0.638              1.839              2.127
 Vibration     5          0.668              1.747              1.666
 Vibration     6          0.671              1.738              1.633
 Vibration     7          0.714              1.612              1.250
 Vibration     8          0.752              1.508              1.029
 Vibration     9          0.819              1.337              0.764
 Vibration    10          0.864              1.230              0.636
 Vibration    11          0.953              1.041              0.457

 Normal termination of Gaussian 09 at Tue Jan 28 01:25:44 2020.
