 Gaussian 09, Revision D.01,
 Gaussian 09:  ES64L-G09RevD.01 24-Apr-2013

 -----------------------------
 # b3lyp 6-31G(2df,p) opt Freq
 -----------------------------

 -----
 titel
 -----
 Symbolic Z-matrix:
 Charge =  0 Multiplicity = 1

 SCF Done:  E(RB3LYP) =  -423.103757819     A.U. after   13 cycles
 Optimization completed.
    -- Stationary point found.
 Normal termination of Gaussian 09 at Mon Jan 27 17:27:00 2020.

 ----------------------------------------------------------------------
 #N Geom=AllCheck Guess=TCheck SCRF=Check GenChk RB3LYP/6-31G(2df,p) Fr
 eq
 ----------------------------------------------------------------------

 Structure from the checkpoint file:  "/scratch/puck/g09_077a3953-c2d6-4967-854a-706cd750931d/Gau-72564.chk"
 -----
 titel
 -----
 Charge =  0 Multiplicity = 1

                         Standard orientation:
 ---------------------------------------------------------------------
 Center     Atomic      Atomic             Coordinates (Angstroms)
 Number     Number       Type             X           Y           Z
 ---------------------------------------------------------------------
      1          6           0       -0.506303    2.147719    0.059770
      2          6           0       -0.255773    0.693856    0.335227
      3          6           0       -1.106172   -0.135694    1.289440
      4          6           0       -0.972949   -0.565833   -0.133582
      5          8           0       -2.110095   -0.736567   -0.904461
      6          6           0        0.383751   -1.249354   -0.482388
      7          6           0        1.361738   -1.297003    0.683459
      8          6           0        1.110861   -0.000803   -0.007191
      9          8           0        2.175014    0.699530   -0.547933
     10          1           0       -0.108157    2.456176   -0.915282
     11          1           0       -1.580371    2.357510    0.053690
     12          1           0       -0.042425    2.792029    0.815725
     13          1           0       -0.705403   -0.692397    2.129961
     14          1           0       -2.068291    0.326127    1.496874
     15          1           0       -1.886768   -0.539146   -1.821308
     16          1           0        0.526344   -1.854617   -1.369822
     17          1           0        1.059947   -1.509989    1.703040
     18          1           0        2.318271   -1.734348    0.410367
     19          1           0        1.876585    1.137629   -1.352505
 ---------------------------------------------------------------------

 SCF Done:  E(RB3LYP) =  -423.103757819     A.U. after    1 cycles

 The electronic state is 1-A.
 Alpha  occ. eigenvalues --  -19.15101 -19.15004 -10.23997 -10.23808 -10.19101
 Alpha  occ. eigenvalues --  -10.18630 -10.18607 -10.18403 -10.18257  -1.03838
 Alpha  occ. eigenvalues --   -1.03221  -0.90370  -0.80226  -0.71824  -0.64249
 Alpha  occ. eigenvalues --   -0.61300  -0.56915  -0.55442  -0.50788  -0.49450
 Alpha  occ. eigenvalues --   -0.48286  -0.43614  -0.42225  -0.40352  -0.39885
 Alpha  occ. eigenvalues --   -0.38611  -0.37139  -0.36492  -0.34779  -0.33577
 Alpha  occ. eigenvalues --   -0.28974  -0.27205  -0.25931  -0.19791
 Alpha virt. eigenvalues --    0.05744   0.08284   0.08830   0.10866   0.11187
 Alpha virt. eigenvalues --    0.12442   0.14598   0.15990   0.16796   0.18007
 Alpha virt. eigenvalues --    0.18819   0.19783   0.21248   0.22624   0.23336

 Mulliken charges:
               1
     1  C   -0.496663
     2  C    0.164185
     3  C   -0.391169
     4  C    0.370906
     5  O   -0.452971
     6  C   -0.244820
     7  C   -0.331002
     8  C    0.359534
     9  O   -0.445900
    10  H    0.096221
    11  H    0.127735
    12  H    0.130757
    13  H    0.110916
    14  H    0.116709
    15  H    0.281808
    16  H    0.087834
    17  H    0.113614
    18  H    0.119195
    19  H    0.283111
 Sum of Mulliken charges =   0.00000

 Dipole moment (field-independent basis, Debye):
    X=             -0.0596    Y=              0.7553    Z=             -1.6243  Tot=              1.7923
 Quadrupole moment (field-independent basis, Debye-Ang):
   XX=            -60.3054   YY=            -53.0697   ZZ=            -46.3708
   XY=             -3.3887   XZ=             -0.7126   YZ=             -1.5527

  Exact polarizability:  76.952  -2.893  76.573  -0.834  -1.841  71.510
 Approx polarizability: 111.918   3.069 109.909   1.021  -1.746 110.633

                      1                      2                      3
                      A                      A                      A
 Frequencies --    133.0698               158.7514               176.6152
 Red. masses --      2.8386                 1.7168                 1.7672
 Frc consts  --      0.0296                 0.0255                 0.0325
 IR Inten    --      2.3760                 0.3681                 2.7494

                      4                      5                      6
                      A                      A                      A
 Frequencies --    244.3988               288.7629               313.5587
 Red. masses --      2.9136                 1.1011                 1.7838
 Frc consts  --      0.1025                 0.0541                 0.1033
 IR Inten    --      0.2665                15.5819                52.6033

                      7                      8                      9
                      A                      A                      A
 Frequencies --    348.4312               395.3985               410.6816
 Red. masses --      1.8480                 2.6492                 3.5080
 Frc consts  --      0.1322                 0.2440                 0.3486
 IR Inten    --    125.5360                27.6533                 2.9721

                     10                     11                     12
                      A                      A                      A
 Frequencies --    453.5398               463.7960               519.7211
 Red. masses --      2.5687                 2.2373                 3.0972
 Frc consts  --      0.3113                 0.2836                 0.4929
 IR Inten    --      1.4901                 2.3119                 2.4446

                     13                     14                     15
                      A                      A                      A
 Frequencies --    575.8399               638.7977               706.7178
 Red. masses --      3.1719                 3.7323                 4.0854
 Frc consts  --      0.6197                 0.8973                 1.2022
 IR Inten    --      9.6538                 6.9560                 1.9715

                     16                     17                     18
                      A                      A                      A
 Frequencies --    812.7013               831.6734               848.2320
 Red. masses --      3.7256                 2.1538                 2.4199
 Frc consts  --      1.4498                 0.8777                 1.0258
 IR Inten    --      6.3089                 1.4677                 6.9487

                     19                     20                     21
                      A                      A                      A
 Frequencies --    895.7183               930.7151               962.5767
 Red. masses --      1.7977                 2.1496                 1.2672
 Frc consts  --      0.8498                 1.0971                 0.6918
 IR Inten    --      5.3004                 7.4363                10.7882

                     22                     23                     24
                      A                      A                      A
 Frequencies --    976.4467               990.9273              1018.8381
 Red. masses --      1.6318                 1.5560                 2.0402
 Frc consts  --      0.9167                 0.9002                 1.2478
 IR Inten    --      6.2797                 4.4093                15.7597

                     25                     26                     27
                      A                      A                      A
 Frequencies --   1062.2433              1090.7147              1095.7159
 Red. masses --      1.3869                 1.5173                 1.4967
 Frc consts  --      0.9220                 1.0635                 1.0587
 IR Inten    --      1.9876                 1.4132                 7.3267

                     28                     29                     30
                      A                      A                      A
 Frequencies --   1127.0566              1147.4200              1186.0600
 Red. masses --      1.8557                 2.2775                 1.9260
 Frc consts  --      1.3888                 1.7667                 1.5963
 IR Inten    --     20.7828                38.9914                29.7154

                     31                     32                     33
                      A                      A                      A
 Frequencies --   1245.8553              1290.7519              1309.2964
 Red. masses --      2.1775                 1.6994                 3.3804
 Frc consts  --      1.9913                 1.6681                 3.4142
 IR Inten    --      9.0487               300.9828                31.0995

                     34                     35                     36
                      A                      A                      A
 Frequencies --   1342.9563              1398.2140              1409.6517
 Red. masses --      2.7872                 1.6916                 1.6572
 Frc consts  --      2.9617                 1.9485                 1.9402
 IR Inten    --     21.8965                 2.5267                 2.2687

                     37                     38                     39
                      A                      A                      A
 Frequencies --   1420.5674              1482.5630              1495.0164
 Red. masses --      1.3889                 1.0905                 1.1990
 Frc consts  --      1.6514                 1.4123                 1.5789
 IR Inten    --      3.2508                 5.0292                10.0251

                     40                     41                     42
                      A                      A                      A
 Frequencies --   1503.2786              1518.4247              3015.6359
 Red. masses --      1.4773                 1.4228                 1.0379
 Frc consts  --      1.9670                 1.9328                 5.5610
 IR Inten    --     17.6109                14.3939                45.6614

                     43                     44                     45
                      A                      A                      A
 Frequencies --   3067.6728              3099.6081              3113.7257
 Red. masses --      1.0984                 1.0988                 1.0549
 Frc consts  --      6.0903                 6.2201                 6.0257
 IR Inten    --     28.5711                14.5240                12.0365

                     46                     47                     48
                      A                      A                      A
 Frequencies --   3128.2273              3183.5065              3195.0679
 Red. masses --      1.0545                 1.0947                 1.1143
 Frc consts  --      6.0800                 6.5368                 6.7019
 IR Inten    --     19.5299                 7.5402                 9.6493

                     49                     50                     51
                      A                      A                      A
 Frequencies --   3205.6938              3784.0168              3794.9563
 Red. masses --      1.1134                 1.0659                 1.0659
 Frc consts  --      6.7414                 8.9922                 9.0447
 IR Inten    --     16.2771                12.5466                15.4440

 - Thermochemistry -
 -------------------
 Temperature   298.150 Kelvin.  Pressure   1.00000 Atm.
 Atom     1 has atomic number  6 and mass  12.00000

 Molecular mass:   126.06808 amu.
 Principal axes and moments of inertia in atomic units:
                           1         2         3
     Eigenvalues --   773.946431085.279371385.79701
           X            0.99601  -0.08885  -0.00873
           Y            0.08862   0.99578  -0.02382
           Z            0.01081   0.02295   0.99968
 This molecule is an asymmetric top.
 Rotational symmetry number  1.
 Warning -- assumption of classical behavior for rotation
           may cause significant error
 Rotational temperatures (Kelvin)      0.11191     0.07981     0.06250
 Rotational constants (GHZ):           2.33187     1.66293     1.30231
 Zero-point vibrational energy     411574.0 (Joules/Mol)
                                   98.36856 (Kcal/Mol)
 Warning -- explicit consideration of  13 degrees of freedom as
           vibrations may cause significant error
 Vibrational temperatures:    191.46   228.41   254.11   351.63   415.46
          (Kelvin)            451.14   501.31   568.89   590.88   652.54
                              667.30   747.76   828.50   919.09  1016.81
                             1169.29  1196.59  1220.42  1288.74  1339.09
                             1384.93  1404.89  1425.72  1465.88  1528.33
                             1569.29  1576.49  1621.58  1650.88  1706.47
                             1792.51  1857.10  1883.78  1932.21  2011.72
                             2028.17  2043.88  2133.07  2150.99  2162.88
                             2184.67  4338.82  4413.69  4459.64  4479.95
                             4500.82  4580.35  4596.98  4612.27  5444.35
                             5460.09

 Zero-point correction=                           0.156760 (Hartree/Particle)
 Thermal correction to Energy=                    0.165644
 Thermal correction to Enthalpy=                  0.166588
 Thermal correction to Gibbs Free Energy=         0.124035
 Sum of electronic and zero-point Energies=           -422.946998
 Sum of electronic and thermal Energies=              -422.938114
 Sum of electronic and thermal Enthalpies=            -422.937170
 Sum of electronic and thermal Free Energies=         -422.979723

                     E (Thermal)             CV                S
                      KCal/Mol        Cal/Mol-Kelvin    Cal/Mol-Kelvin
 Total                  103.943             35.153             89.560
 Electronic               0.000              0.000              0.000
 Translational            0.889              2.981             40.409
 Rotational               0.889              2.981             28.545
 Vibrational            102.166             29.192             20.607
 Vibration     1          0.613              1.920              2.901
 Vibration     2          0.621              1.893              2.565
 Vibration     3          0.628              1.871              2.364
 Vibration     4          0.660              1.772              1.771
 Vibration     5          0.685              1.695              1.481
 Vibration     6          0.701              1.648              1.343
 Vibration     7          0.726              1.578              1.173
 Vibration     8          0.762              1.480              0.980
 Vibration     9          0.775              1.447              0.924
 Vibration    10          0.812              1.353              0.785
 Vibration    11          0.821              1.330              0.755
 Vibration    12          0.875              1.206              0.611
 Vibration    13          0.932              1.084              0.493

 Normal termination of Gaussian 09 at Mon Jan 27 18:23:17 2020.
