 Gaussian 09, Revision D.01,
 Gaussian 09:  ES64L-G09RevD.01 24-Apr-2013

 -----------------------------
 # b3lyp 6-31G(2df,p) opt Freq
 -----------------------------

 -----
 titel
 -----
 Symbolic Z-matrix:
 Charge =  0 Multiplicity = 1

 SCF Done:  E(RB3LYP) =  -423.216501790     A.U. after   14 cycles
 Optimization completed.
    -- Stationary point found.
 Normal termination of Gaussian 09 at Mon Jan 27 18:40:48 2020.

 ----------------------------------------------------------------------
 #N Geom=AllCheck Guess=TCheck SCRF=Check GenChk RB3LYP/6-31G(2df,p) Fr
 eq
 ----------------------------------------------------------------------

 Structure from the checkpoint file:  "/scratch/puck/g09_d42e0652-41ad-4709-817f-e5087642500b/Gau-18860.chk"
 -----
 titel
 -----
 Charge =  0 Multiplicity = 1

                         Standard orientation:
 ---------------------------------------------------------------------
 Center     Atomic      Atomic             Coordinates (Angstroms)
 Number     Number       Type             X           Y           Z
 ---------------------------------------------------------------------
      1          6           0       -1.830610   -0.744137    1.145990
      2          6           0       -0.869366   -0.366690    0.055197
      3          6           0       -1.337541    0.282941   -1.266394
      4          6           0       -0.131189    1.267370   -1.205263
      5          6           0        0.326726    0.638549    0.154740
      6          6           0        0.687983    1.535780    1.314116
      7          6           0        1.168391   -0.607917   -0.098676
      8          8           0        2.322327   -0.889280   -0.180543
      9          8           0        0.090499   -1.450537   -0.232115
     10          1           0       -2.465950    0.107274    1.408712
     11          1           0       -2.479620   -1.562927    0.817099
     12          1           0       -1.297403   -1.072643    2.042878
     13          1           0       -1.367981   -0.406308   -2.112015
     14          1           0       -2.305896    0.781759   -1.180464
     15          1           0        0.595315    1.209489   -2.018021
     16          1           0       -0.433595    2.310319   -1.086517
     17          1           0        1.639123    2.041048    1.115724
     18          1           0       -0.075438    2.304836    1.471335
     19          1           0        0.802476    0.970311    2.244275
 ---------------------------------------------------------------------

 SCF Done:  E(RB3LYP) =  -423.216501790     A.U. after    1 cycles

 The electronic state is 1-A.
 Alpha  occ. eigenvalues --  -19.17226 -19.12711 -10.29792 -10.25486 -10.21097
 Alpha  occ. eigenvalues --  -10.20153 -10.19631 -10.19384 -10.19319  -1.09839
 Alpha  occ. eigenvalues --   -1.02511  -0.85153  -0.76188  -0.74190  -0.66443
 Alpha  occ. eigenvalues --   -0.63920  -0.58563  -0.52145  -0.49559  -0.48242
 Alpha  occ. eigenvalues --   -0.46476  -0.43548  -0.43103  -0.42268  -0.41602
 Alpha  occ. eigenvalues --   -0.41128  -0.40039  -0.38533  -0.34887  -0.34611
 Alpha  occ. eigenvalues --   -0.33285  -0.29862  -0.28873  -0.26159
 Alpha virt. eigenvalues --    0.01537   0.07180   0.08159   0.09705   0.11404
 Alpha virt. eigenvalues --    0.12418   0.12927   0.14186   0.15276   0.16594
 Alpha virt. eigenvalues --    0.17061   0.17981   0.18838   0.20679   0.21745

 Mulliken charges:
               1
     1  C   -0.479318
     2  C    0.415954
     3  C   -0.271115
     4  C   -0.282261
     5  C    0.063975
     6  C   -0.496242
     7  C    0.434887
     8  O   -0.341306
     9  O   -0.301635
    10  H    0.124739
    11  H    0.138586
    12  H    0.132887
    13  H    0.121606
    14  H    0.109275
    15  H    0.123694
    16  H    0.112759
    17  H    0.143925
    18  H    0.119464
    19  H    0.130125
 Sum of Mulliken charges =   0.00000

 Dipole moment (field-independent basis, Debye):
    X=             -3.3688    Y=              2.5682    Z=              0.6186  Tot=              4.2810
 Quadrupole moment (field-independent basis, Debye-Ang):
   XX=            -58.2969   YY=            -55.0307   ZZ=            -50.8481
   XY=              3.5520   XZ=              0.5269   YZ=             -0.8601

  Exact polarizability:  83.408   0.615  71.527   0.727  -0.757  69.724
 Approx polarizability: 126.009  -2.041 105.918   0.673  -0.344  97.148

                      1                      2                      3
                      A                      A                      A
 Frequencies --    107.7103               172.2266               175.8886
 Red. masses --      3.4934                 2.4914                 1.2222
 Frc consts  --      0.0239                 0.0435                 0.0223
 IR Inten    --      0.5460                 1.4148                 0.5333

                      4                      5                      6
                      A                      A                      A
 Frequencies --    186.5717               206.0844               265.5397
 Red. masses --      2.0605                 1.0569                 2.4046
 Frc consts  --      0.0423                 0.0264                 0.0999
 IR Inten    --      0.5224                 0.0906                 1.0049

                      7                      8                      9
                      A                      A                      A
 Frequencies --    312.9280               345.1389               397.9324
 Red. masses --      2.5831                 3.2475                 3.6751
 Frc consts  --      0.1490                 0.2279                 0.3429
 IR Inten    --      0.9204                 2.0087                 1.6302

                     10                     11                     12
                      A                      A                      A
 Frequencies --    535.6228               611.7395               647.8751
 Red. masses --      3.1057                 4.1981                 4.7685
 Frc consts  --      0.5250                 0.9256                 1.1793
 IR Inten    --      1.9267                 2.5490                 0.4530

                     13                     14                     15
                      A                      A                      A
 Frequencies --    690.1064               740.2307               767.2276
 Red. masses --      4.2306                 1.3298                 6.0516
 Frc consts  --      1.1871                 0.4293                 2.0988
 IR Inten    --      0.1290                 0.8358                 4.6185

                     16                     17                     18
                      A                      A                      A
 Frequencies --    816.9928               853.0851               915.5456
 Red. masses --      2.2799                 4.5661                 1.8950
 Frc consts  --      0.8966                 1.9579                 0.9359
 IR Inten    --      0.9821                60.4853                15.7278

                     19                     20                     21
                      A                      A                      A
 Frequencies --    927.1110               954.6421               969.9573
 Red. masses --      2.2125                 2.6025                 1.5661
 Frc consts  --      1.1205                 1.3974                 0.8681
 IR Inten    --      4.8140                 0.6971                 1.6457

                     22                     23                     24
                      A                      A                      A
 Frequencies --   1026.5612              1074.2727              1143.7389
 Red. masses --      1.4625                 2.3482                 2.1495
 Frc consts  --      0.9081                 1.5967                 1.6567
 IR Inten    --     19.3448                44.4495                24.4917

                     25                     26                     27
                      A                      A                      A
 Frequencies --   1171.4941              1205.2430              1208.8592
 Red. masses --      2.8953                 2.1300                 1.7587
 Frc consts  --      2.3411                 1.8230                 1.5143
 IR Inten    --     37.2288                 3.7569                25.4763

                     28                     29                     30
                      A                      A                      A
 Frequencies --   1221.2532              1229.3560              1264.5637
 Red. masses --      1.9235                 1.6271                 1.7578
 Frc consts  --      1.6903                 1.4489                 1.6562
 IR Inten    --     20.1703                 1.6814                16.7960

                     31                     32                     33
                      A                      A                      A
 Frequencies --   1322.2349              1337.2038              1411.2657
 Red. masses --      2.4831                 3.4119                 1.3062
 Frc consts  --      2.5577                 3.5945                 1.5328
 IR Inten    --     12.4959                12.9283                 3.6876

                     34                     35                     36
                      A                      A                      A
 Frequencies --   1416.5797              1468.3995              1480.6378
 Red. masses --      1.3350                 1.0856                 1.0509
 Frc consts  --      1.5783                 1.3791                 1.3574
 IR Inten    --      8.5817                 1.7330                 2.6402

                     37                     38                     39
                      A                      A                      A
 Frequencies --   1486.3257              1490.6965              1491.5495
 Red. masses --      1.0621                 1.0692                 1.0719
 Frc consts  --      1.3824                 1.3999                 1.4051
 IR Inten    --      0.5159                 2.7459                 7.4251

                     40                     41                     42
                      A                      A                      A
 Frequencies --   1494.7431              1924.2124              3032.5837
 Red. masses --      1.0688                12.8387                 1.0350
 Frc consts  --      1.4070                28.0078                 5.6083
 IR Inten    --      6.6833               430.8192                16.9688

                     43                     44                     45
                      A                      A                      A
 Frequencies --   3037.0927              3067.4264              3073.8003
 Red. masses --      1.0354                 1.0584                 1.0609
 Frc consts  --      5.6269                 5.8676                 5.9055
 IR Inten    --     13.8466                26.7616                22.8550

                     46                     47                     48
                      A                      A                      A
 Frequencies --   3101.7749              3104.4852              3106.0778
 Red. masses --      1.1013                 1.1013                 1.1006
 Frc consts  --      6.2426                 6.2538                 6.2564
 IR Inten    --     12.2971                16.0126                 9.3156

                     49                     50                     51
                      A                      A                      A
 Frequencies --   3116.0767              3117.4815              3134.6435
 Red. masses --      1.1030                 1.1067                 1.1074
 Frc consts  --      6.3100                 6.3370                 6.4112
 IR Inten    --     14.6074                 3.2610                23.3113

 - Thermochemistry -
 -------------------
 Temperature   298.150 Kelvin.  Pressure   1.00000 Atm.
 Atom     1 has atomic number  6 and mass  12.00000

 Molecular mass:   126.06808 amu.
 Principal axes and moments of inertia in atomic units:
                           1         2         3
     Eigenvalues --   838.092821098.553451211.66345
           X            0.99538   0.09603   0.00016
           Y           -0.09602   0.99532  -0.01047
           Z           -0.00117   0.01041   0.99995
 This molecule is an asymmetric top.
 Rotational symmetry number  1.
 Warning -- assumption of classical behavior for rotation
           may cause significant error
 Rotational temperatures (Kelvin)      0.10335     0.07884     0.07148
 Rotational constants (GHZ):           2.15339     1.64283     1.48947
 Zero-point vibrational energy     414869.7 (Joules/Mol)
                                   99.15623 (Kcal/Mol)
 Warning -- explicit consideration of  11 degrees of freedom as
           vibrations may cause significant error
 Vibrational temperatures:    154.97   247.80   253.06   268.43   296.51
          (Kelvin)            382.05   450.23   496.58   572.54   770.64
                              880.16   932.15   992.91  1065.03  1103.87
                             1175.47  1227.40  1317.26  1333.90  1373.52
                             1395.55  1476.99  1545.64  1645.58  1685.52
                             1734.07  1739.28  1757.11  1768.77  1819.42
                             1902.40  1923.94  2030.49  2038.14  2112.70
                             2130.30  2138.49  2144.78  2146.00  2150.60
                             2768.51  4363.21  4369.69  4413.34  4422.51
                             4462.76  4466.66  4468.95  4483.33  4485.35
                             4510.05

 Zero-point correction=                           0.158016 (Hartree/Particle)
 Thermal correction to Energy=                    0.166810
 Thermal correction to Enthalpy=                  0.167754
 Thermal correction to Gibbs Free Energy=         0.124944
 Sum of electronic and zero-point Energies=           -423.058486
 Sum of electronic and thermal Energies=              -423.049692
 Sum of electronic and thermal Enthalpies=            -423.048748
 Sum of electronic and thermal Free Energies=         -423.091558

                     E (Thermal)             CV                S
                      KCal/Mol        Cal/Mol-Kelvin    Cal/Mol-Kelvin
 Total                  104.675             33.208             90.102
 Electronic               0.000              0.000              0.000
 Translational            0.889              2.981             40.409
 Rotational               0.889              2.981             28.502
 Vibrational            102.897             27.246             21.191
 Vibration     1          0.606              1.943              3.310
 Vibration     2          0.626              1.877              2.411
 Vibration     3          0.628              1.872              2.372
 Vibration     4          0.632              1.858              2.262
 Vibration     5          0.641              1.831              2.078
 Vibration     6          0.671              1.736              1.625
 Vibration     7          0.701              1.649              1.347
 Vibration     8          0.724              1.585              1.188
 Vibration     9          0.764              1.475              0.970
 Vibration    10          0.891              1.171              0.575
 Vibration    11          0.971              1.007              0.430

 Normal termination of Gaussian 09 at Mon Jan 27 20:24:58 2020.
