 Gaussian 09, Revision D.01,
 Gaussian 09:  ES64L-G09RevD.01 24-Apr-2013

 -----------------------------
 # b3lyp 6-31G(2df,p) opt Freq
 -----------------------------

 -----
 titel
 -----
 Symbolic Z-matrix:
 Charge =  0 Multiplicity = 1

 SCF Done:  E(RB3LYP) =  -423.120717215     A.U. after   13 cycles
 Optimization completed.
    -- Stationary point found.
 Normal termination of Gaussian 09 at Mon Jan 27 22:13:15 2020.

 ----------------------------------------------------------------------
 #N Geom=AllCheck Guess=TCheck SCRF=Check GenChk RB3LYP/6-31G(2df,p) Fr
 eq
 ----------------------------------------------------------------------

 Structure from the checkpoint file:  "/scratch/puck/g09_10f378cd-79a8-4806-90b1-c5ea307ed67b/Gau-29001.chk"
 -----
 titel
 -----
 Charge =  0 Multiplicity = 1

                         Standard orientation:
 ---------------------------------------------------------------------
 Center     Atomic      Atomic             Coordinates (Angstroms)
 Number     Number       Type             X           Y           Z
 ---------------------------------------------------------------------
      1          8           0       -3.017238   -0.401861    0.024102
      2          6           0       -1.671355   -0.266022    0.379266
      3          6           0       -0.901968    0.923138   -0.128926
      4          6           0       -0.609404   -0.505572   -0.655790
      5          6           0        0.760725   -0.443136   -0.009888
      6          6           0        2.060298   -0.872428   -0.625718
      7          6           0        1.553692   -1.544377    0.631107
      8          6           0        0.493814    0.991175    0.515549
      9          8           0        1.354623    1.991099    0.020836
     10          1           0       -3.139182   -0.055001   -0.866147
     11          1           0       -1.532577   -0.621581    1.397885
     12          1           0       -1.403297    1.758634   -0.605901
     13          1           0       -0.845060   -0.956395   -1.614871
     14          1           0        2.026894   -1.433033   -1.554580
     15          1           0        2.902413   -0.193573   -0.536540
     16          1           0        1.176812   -2.559064    0.552065
     17          1           0        2.066511   -1.327578    1.562744
     18          1           0        0.501699    1.115278    1.603893
     19          1           0        1.431897    1.861750   -0.931656
 ---------------------------------------------------------------------

 SCF Done:  E(RB3LYP) =  -423.120717215     A.U. after    1 cycles

 The electronic state is 1-A.
 Alpha  occ. eigenvalues --  -19.14671 -19.13966 -10.24018 -10.23662 -10.19901
 Alpha  occ. eigenvalues --  -10.19431 -10.19003 -10.18923 -10.18599  -1.03322
 Alpha  occ. eigenvalues --   -1.02312  -0.89399  -0.83580  -0.68685  -0.63138
 Alpha  occ. eigenvalues --   -0.60713  -0.60018  -0.55474  -0.51821  -0.50486
 Alpha  occ. eigenvalues --   -0.48717  -0.44782  -0.43312  -0.41077  -0.40306
 Alpha  occ. eigenvalues --   -0.37601  -0.36970  -0.36446  -0.33210  -0.30177
 Alpha  occ. eigenvalues --   -0.30028  -0.27680  -0.24749  -0.23666
 Alpha virt. eigenvalues --    0.06863   0.08290   0.09056   0.09572   0.10970
 Alpha virt. eigenvalues --    0.13166   0.13625   0.14205   0.15833   0.16670
 Alpha virt. eigenvalues --    0.17426   0.19131   0.21691   0.22620   0.23059

 Mulliken charges:
               1
     1  O   -0.440097
     2  C    0.145542
     3  C   -0.167550
     4  C   -0.222364
     5  C    0.327075
     6  C   -0.342038
     7  C   -0.329934
     8  C    0.056857
     9  O   -0.426080
    10  H    0.284156
    11  H    0.106056
    12  H    0.088000
    13  H    0.084231
    14  H    0.112904
    15  H    0.123289
    16  H    0.115084
    17  H    0.117167
    18  H    0.088700
    19  H    0.279002
 Sum of Mulliken charges =   0.00000

 Dipole moment (field-independent basis, Debye):
    X=              0.2944    Y=             -0.4415    Z=             -1.9468  Tot=              2.0178
 Quadrupole moment (field-independent basis, Debye-Ang):
   XX=            -57.6332   YY=            -56.5285   ZZ=            -48.4524
   XY=             -3.7784   XZ=              2.7321   YZ=             -2.0534

  Exact polarizability:  85.840  -2.561  73.694   0.304  -1.104  68.274
 Approx polarizability: 114.628  -0.291 109.714  -1.441  -1.174 106.683

                      1                      2                      3
                      A                      A                      A
 Frequencies --    114.4486               161.7575               170.5860
 Red. masses --      2.9159                 1.5047                 2.0337
 Frc consts  --      0.0225                 0.0232                 0.0349
 IR Inten    --      3.7015                45.2947                26.6057

                      4                      5                      6
                      A                      A                      A
 Frequencies --    217.8865               247.3788               262.8452
 Red. masses --      2.7218                 2.5469                 3.8152
 Frc consts  --      0.0761                 0.0918                 0.1553
 IR Inten    --      4.1973                 3.4708                 0.4943

                      7                      8                      9
                      A                      A                      A
 Frequencies --    347.3297               380.7241               406.9109
 Red. masses --      1.2870                 2.7515                 3.6583
 Frc consts  --      0.0915                 0.2350                 0.3569
 IR Inten    --    112.9136                13.1866                 0.1833

                     10                     11                     12
                      A                      A                      A
 Frequencies --    447.0644               560.3842               598.9123
 Red. masses --      5.0545                 3.5216                 3.2672
 Frc consts  --      0.5952                 0.6516                 0.6905
 IR Inten    --      1.7890                 6.2312                 0.4237

                     13                     14                     15
                      A                      A                      A
 Frequencies --    781.9899               800.2075               830.1095
 Red. masses --      1.1146                 1.6346                 2.9059
 Frc consts  --      0.4016                 0.6167                 1.1798
 IR Inten    --      0.4773                 3.3932                26.0538

                     16                     17                     18
                      A                      A                      A
 Frequencies --    884.8280               892.6237               915.9018
 Red. masses --      1.9974                 1.9380                 2.5162
 Frc consts  --      0.9214                 0.9098                 1.2436
 IR Inten    --     24.5895                 3.9878                 7.6301

                     19                     20                     21
                      A                      A                      A
 Frequencies --    951.6255               956.5070               984.8927
 Red. masses --      1.5829                 2.2159                 4.0063
 Frc consts  --      0.8446                 1.1945                 2.2897
 IR Inten    --     11.3880                11.1796                16.6527

                     22                     23                     24
                      A                      A                      A
 Frequencies --    994.6369              1030.3712              1049.1850
 Red. masses --      2.1568                 1.8203                 1.3838
 Frc consts  --      1.2572                 1.1386                 0.8975
 IR Inten    --     18.4537                 2.2347                 3.8659

                     25                     26                     27
                      A                      A                      A
 Frequencies --   1077.6806              1083.4606              1107.1318
 Red. masses --      1.4040                 1.9646                 1.4259
 Frc consts  --      0.9607                 1.3588                 1.0297
 IR Inten    --      0.1539                60.1136                 8.5621

                     28                     29                     30
                      A                      A                      A
 Frequencies --   1112.5009              1150.8899              1191.7938
 Red. masses --      2.2164                 2.3623                 1.2757
 Frc consts  --      1.6162                 1.8436                 1.0675
 IR Inten    --    114.5898                24.8823                 0.4668

                     31                     32                     33
                      A                      A                      A
 Frequencies --   1200.3251              1240.8627              1253.6259
 Red. masses --      1.5104                 1.4574                 2.1007
 Frc consts  --      1.2821                 1.3222                 1.9451
 IR Inten    --     28.7063                15.7165                 6.8401

                     34                     35                     36
                      A                      A                      A
 Frequencies --   1264.1924              1296.8375              1331.5747
 Red. masses --      1.5335                 1.7427                 1.9096
 Frc consts  --      1.4439                 1.7268                 1.9949
 IR Inten    --     14.1642                 1.6134                 2.2315

                     37                     38                     39
                      A                      A                      A
 Frequencies --   1387.8846              1432.1288              1445.0139
 Red. masses --      2.2737                 1.3322                 1.6625
 Frc consts  --      2.5804                 1.6098                 2.0453
 IR Inten    --      4.3987               101.7522                76.7089

                     40                     41                     42
                      A                      A                      A
 Frequencies --   1460.7904              1500.0183              3051.8701
 Red. masses --      1.0878                 1.5021                 1.0858
 Frc consts  --      1.3676                 1.9913                 5.9582
 IR Inten    --      1.1780                 0.3254                39.7888

                     43                     44                     45
                      A                      A                      A
 Frequencies --   3123.2123              3126.2411              3133.7448
 Red. masses --      1.0499                 1.0578                 1.0895
 Frc consts  --      6.0339                 6.0909                 6.3036
 IR Inten    --     15.2854                11.2866                20.0914

                     46                     47                     48
                      A                      A                      A
 Frequencies --   3155.1424              3171.8139              3202.7732
 Red. masses --      1.0896                 1.0951                 1.1180
 Frc consts  --      6.3910                 6.4909                 6.7566
 IR Inten    --     16.3862                15.6590                 0.0814

                     49                     50                     51
                      A                      A                      A
 Frequencies --   3217.1750              3792.6786              3810.6472
 Red. masses --      1.1157                 1.0655                 1.0658
 Frc consts  --      6.8036                 9.0300                 9.1183
 IR Inten    --     12.9224                11.7760                20.2522

 - Thermochemistry -
 -------------------
 Temperature   298.150 Kelvin.  Pressure   1.00000 Atm.
 Atom     1 has atomic number  8 and mass  15.99491

 Molecular mass:   126.06808 amu.
 Principal axes and moments of inertia in atomic units:
                           1         2         3
     Eigenvalues --   663.792591366.650711784.57858
           X            0.99944  -0.03305   0.00471
           Y            0.03311   0.99938  -0.01232
           Z           -0.00430   0.01247   0.99991
 This molecule is an asymmetric top.
 Rotational symmetry number  1.
 Warning -- assumption of classical behavior for rotation
           may cause significant error
 Rotational temperatures (Kelvin)      0.13048     0.06338     0.04853
 Rotational constants (GHZ):           2.71883     1.32056     1.01130
 Zero-point vibrational energy     414572.5 (Joules/Mol)
                                   99.08522 (Kcal/Mol)
 Warning -- explicit consideration of  12 degrees of freedom as
           vibrations may cause significant error
 Vibrational temperatures:    164.67   232.73   245.43   313.49   355.92
          (Kelvin)            378.18   499.73   547.78   585.45   643.23
                              806.27   861.70  1125.11  1151.32  1194.34
                             1273.07  1284.28  1317.78  1369.18  1376.20
                             1417.04  1431.06  1482.47  1509.54  1550.54
                             1558.86  1592.91  1600.64  1655.87  1714.72
                             1727.00  1785.32  1803.69  1818.89  1865.86
                             1915.84  1996.85  2060.51  2079.05  2101.75
                             2158.19  4390.95  4493.60  4497.96  4508.75
                             4539.54  4563.53  4608.07  4628.79  5456.81
                             5482.66

 Zero-point correction=                           0.157902 (Hartree/Particle)
 Thermal correction to Energy=                    0.166644
 Thermal correction to Enthalpy=                  0.167588
 Thermal correction to Gibbs Free Energy=         0.124844
 Sum of electronic and zero-point Energies=           -422.962815
 Sum of electronic and thermal Energies=              -422.954073
 Sum of electronic and thermal Enthalpies=            -422.953129
 Sum of electronic and thermal Free Energies=         -422.995873

                     E (Thermal)             CV                S
                      KCal/Mol        Cal/Mol-Kelvin    Cal/Mol-Kelvin
 Total                  104.571             33.858             89.963
 Electronic               0.000              0.000              0.000
 Translational            0.889              2.981             40.409
 Rotational               0.889              2.981             28.872
 Vibrational            102.793             27.896             20.683
 Vibration     1          0.607              1.937              3.192
 Vibration     2          0.622              1.889              2.529
 Vibration     3          0.626              1.879              2.429
 Vibration     4          0.646              1.814              1.977
 Vibration     5          0.661              1.767              1.749
 Vibration     6          0.670              1.741              1.643
 Vibration     7          0.725              1.581              1.178
 Vibration     8          0.750              1.511              1.036
 Vibration     9          0.772              1.455              0.938
 Vibration    10          0.806              1.367              0.805
 Vibration    11          0.916              1.117              0.523
 Vibration    12          0.957              1.034              0.452

 Normal termination of Gaussian 09 at Tue Jan 28 00:25:20 2020.
