 Gaussian 09, Revision D.01,
 Gaussian 09:  ES64L-G09RevD.01 24-Apr-2013

 -----------------------------
 # b3lyp 6-31G(2df,p) opt Freq
 -----------------------------

 -----
 titel
 -----
 Symbolic Z-matrix:
 Charge =  0 Multiplicity = 1

 SCF Done:  E(RB3LYP) =  -423.206707741     A.U. after   14 cycles
 Optimization completed.
    -- Stationary point found.
 Normal termination of Gaussian 09 at Tue Jan 28 11:44:32 2020.

 ----------------------------------------------------------------------
 #N Geom=AllCheck Guess=TCheck SCRF=Check GenChk RB3LYP/6-31G(2df,p) Fr
 eq
 ----------------------------------------------------------------------

 Structure from the checkpoint file:  "/scratch/puck/g09_8a2fb982-44f7-47c8-8a0c-527346cdabe7/Gau-26502.chk"
 -----
 titel
 -----
 Charge =  0 Multiplicity = 1

                         Standard orientation:
 ---------------------------------------------------------------------
 Center     Atomic      Atomic             Coordinates (Angstroms)
 Number     Number       Type             X           Y           Z
 ---------------------------------------------------------------------
      1          6           0       -2.095970   -0.226224    1.289951
      2          8           0       -2.250467    0.122452   -0.071382
      3          6           0       -1.061679    0.219482   -0.856182
      4          6           0       -0.246133   -1.082894   -0.987323
      5          6           0        0.874039   -1.250592    0.049997
      6          6           0        1.738022   -0.005508    0.195161
      7          8           0        2.916805   -0.060101    0.481094
      8          6           0        1.041045    1.292240    0.031291
      9          6           0       -0.217221    1.390765   -0.413092
     10          1           0       -1.353523    0.400009    1.802991
     11          1           0       -3.069527   -0.071163    1.761741
     12          1           0       -1.816037   -1.281391    1.419268
     13          1           0       -1.461288    0.460426   -1.848694
     14          1           0       -0.936297   -1.931995   -0.962038
     15          1           0        0.207077   -1.081304   -1.985534
     16          1           0        0.458943   -1.456050    1.044842
     17          1           0        1.525584   -2.093163   -0.195470
     18          1           0        1.623136    2.168992    0.300768
     19          1           0       -0.701398    2.363222   -0.474388
 ---------------------------------------------------------------------

 SCF Done:  E(RB3LYP) =  -423.206707741     A.U. after    1 cycles

 The electronic state is 1-A.
 Alpha  occ. eigenvalues --  -19.14850 -19.12479 -10.26637 -10.24944 -10.22988
 Alpha  occ. eigenvalues --  -10.21180 -10.19881 -10.19701 -10.19332  -1.03757
 Alpha  occ. eigenvalues --   -1.03379  -0.83617  -0.76623  -0.74127  -0.67572
 Alpha  occ. eigenvalues --   -0.62916  -0.59083  -0.52627  -0.50559  -0.47755
 Alpha  occ. eigenvalues --   -0.46587  -0.45900  -0.43832  -0.43461  -0.41718
 Alpha  occ. eigenvalues --   -0.40566  -0.38642  -0.37946  -0.35600  -0.34343
 Alpha  occ. eigenvalues --   -0.31182  -0.28416  -0.26342  -0.24225
 Alpha virt. eigenvalues --   -0.05737   0.05095   0.07812   0.10418   0.11686
 Alpha virt. eigenvalues --    0.13811   0.14291   0.14868   0.16002   0.16143
 Alpha virt. eigenvalues --    0.16368   0.17567   0.19635   0.20017   0.21362

 Mulliken charges:
               1
     1  C   -0.243240
     2  O   -0.250909
     3  C    0.076869
     4  C   -0.259947
     5  C   -0.323937
     6  C    0.378319
     7  O   -0.328031
     8  C   -0.145275
     9  C   -0.068653
    10  H    0.111853
    11  H    0.131055
    12  H    0.110032
    13  H    0.099707
    14  H    0.116456
    15  H    0.115667
    16  H    0.128379
    17  H    0.125445
    18  H    0.112113
    19  H    0.114097
 Sum of Mulliken charges =   0.00000

 Dipole moment (field-independent basis, Debye):
    X=             -2.1939    Y=             -0.0154    Z=             -0.3604  Tot=              2.2234
 Quadrupole moment (field-independent basis, Debye-Ang):
   XX=            -67.4286   YY=            -49.6092   ZZ=            -50.6931
   XY=              0.7056   XZ=             -3.7014   YZ=             -0.1729

  Exact polarizability:  96.160  -2.097  74.435   4.487  -0.542  63.786
 Approx polarizability: 156.096  -7.855 105.087  15.599  -3.368  96.937

                      1                      2                      3
                      A                      A                      A
 Frequencies --     64.6095               112.3077               171.6612
 Red. masses --      4.8932                 2.5519                 2.4935
 Frc consts  --      0.0120                 0.0190                 0.0433
 IR Inten    --      4.4886                 2.4137                 2.2757

                      4                      5                      6
                      A                      A                      A
 Frequencies --    210.4928               228.8257               306.1472
 Red. masses --      2.5844                 1.3031                 2.7533
 Frc consts  --      0.0675                 0.0402                 0.1520
 IR Inten    --      3.8349                 0.2945                 3.0428

                      7                      8                      9
                      A                      A                      A
 Frequencies --    391.8405               419.0206               438.7269
 Red. masses --      3.0568                 2.5175                 5.3182
 Frc consts  --      0.2765                 0.2604                 0.6031
 IR Inten    --      7.5298                 7.0356                 1.7441

                     10                     11                     12
                      A                      A                      A
 Frequencies --    479.9014               568.2964               663.3523
 Red. masses --      3.4286                 3.5434                 2.9377
 Frc consts  --      0.4652                 0.6743                 0.7616
 IR Inten    --      4.0845                 0.8711                 6.5058

                     13                     14                     15
                      A                      A                      A
 Frequencies --    716.5860               746.2305               775.1922
 Red. masses --      2.9069                 2.3785                 2.5085
 Frc consts  --      0.8795                 0.7804                 0.8882
 IR Inten    --      0.6306                 3.6860                 5.0903

                     16                     17                     18
                      A                      A                      A
 Frequencies --    883.3072               907.3258               961.1706
 Red. masses --      1.9271                 2.8570                 2.4841
 Frc consts  --      0.8859                 1.3858                 1.3521
 IR Inten    --     14.2412                25.0424                10.6696

                     19                     20                     21
                      A                      A                      A
 Frequencies --    986.9075              1030.5984              1036.0346
 Red. masses --      2.6413                 2.5058                 1.3013
 Frc consts  --      1.5157                 1.5681                 0.8229
 IR Inten    --      6.0614                15.0342                 0.4287

                     22                     23                     24
                      A                      A                      A
 Frequencies --   1096.7583              1122.7262              1134.7699
 Red. masses --      1.9958                 2.8307                 1.3843
 Frc consts  --      1.4145                 2.1023                 1.0503
 IR Inten    --     20.0366                84.1447                29.8846

                     25                     26                     27
                      A                      A                      A
 Frequencies --   1180.4319              1201.5613              1222.2828
 Red. masses --      1.2799                 1.4048                 1.4181
 Frc consts  --      1.0508                 1.1950                 1.2482
 IR Inten    --      1.3134                32.3773                 1.3134

                     28                     29                     30
                      A                      A                      A
 Frequencies --   1244.5490              1258.8004              1346.0516
 Red. masses --      1.5621                 1.8748                 1.4046
 Frc consts  --      1.4255                 1.7503                 1.4994
 IR Inten    --     32.7928                23.9644                 9.3507

                     31                     32                     33
                      A                      A                      A
 Frequencies --   1354.8597              1379.3690              1389.6088
 Red. masses --      1.6665                 1.4734                 1.2359
 Frc consts  --      1.8023                 1.6517                 1.4061
 IR Inten    --      5.5795                 6.9375                 2.2437

                     34                     35                     36
                      A                      A                      A
 Frequencies --   1404.3293              1460.7553              1476.4824
 Red. masses --      1.5669                 1.0832                 1.1272
 Frc consts  --      1.8207                 1.3618                 1.4478
 IR Inten    --     16.4556                 4.3443                 2.0875

                     37                     38                     39
                      A                      A                      A
 Frequencies --   1481.4035              1496.3667              1511.4648
 Red. masses --      1.0843                 1.0670                 1.0496
 Frc consts  --      1.4020                 1.4077                 1.4127
 IR Inten    --      2.5688                 7.1378                10.8291

                     40                     41                     42
                      A                      A                      A
 Frequencies --   1685.1388              1782.2408              2991.4168
 Red. masses --      7.1645                11.5079                 1.0361
 Frc consts  --     11.9869                21.5367                 5.4629
 IR Inten    --      6.0695               215.4680                39.3845

                     43                     44                     45
                      A                      A                      A
 Frequencies --   3026.7843              3035.8454              3044.6105
 Red. masses --      1.0771                 1.0692                 1.0672
 Frc consts  --      5.8142                 5.8057                 5.8284
 IR Inten    --      8.3527                 1.6812                41.6285

                     46                     47                     48
                      A                      A                      A
 Frequencies --   3046.2279              3085.3423              3102.1300
 Red. masses --      1.1020                 1.0993                 1.0966
 Frc consts  --      6.0250                 6.1658                 6.2177
 IR Inten    --     38.4072                20.7767                18.4043

                     49                     50                     51
                      A                      A                      A
 Frequencies --   3111.8785              3150.9994              3181.5401
 Red. masses --      1.0980                 1.0861                 1.0958
 Frc consts  --      6.2646                 6.3538                 6.5354
 IR Inten    --     25.8752                 8.5058                10.6657

 - Thermochemistry -
 -------------------
 Temperature   298.150 Kelvin.  Pressure   1.00000 Atm.
 Atom     1 has atomic number  6 and mass  12.00000

 Molecular mass:   126.06808 amu.
 Principal axes and moments of inertia in atomic units:
                           1         2         3
     Eigenvalues --   593.947391540.166831670.61237
           X            0.99978   0.00404  -0.02058
           Y           -0.00386   0.99996   0.00848
           Z            0.02062  -0.00840   0.99975
 This molecule is an asymmetric top.
 Rotational symmetry number  1.
 Warning -- assumption of classical behavior for rotation
           may cause significant error
 Rotational temperatures (Kelvin)      0.14583     0.05624     0.05185
 Rotational constants (GHZ):           3.03855     1.17178     1.08029
 Zero-point vibrational energy     419322.6 (Joules/Mol)
                                  100.22050 (Kcal/Mol)
 Warning -- explicit consideration of  11 degrees of freedom as
           vibrations may cause significant error
 Vibrational temperatures:     92.96   161.59   246.98   302.85   329.23
          (Kelvin)            440.48   563.77   602.88   631.23   690.47
                              817.65   954.41  1031.01  1073.66  1115.33
                             1270.88  1305.44  1382.91  1419.94  1482.80
                             1490.62  1577.99  1615.35  1632.68  1698.38
                             1728.78  1758.59  1790.63  1811.13  1936.67
                             1949.34  1984.60  1999.33  2020.51  2101.70
                             2124.33  2131.41  2152.94  2174.66  2424.54
                             2564.24  4303.98  4354.86  4367.90  4380.51
                             4382.84  4439.11  4463.27  4477.29  4533.58
                             4577.52

 Zero-point correction=                           0.159712 (Hartree/Particle)
 Thermal correction to Energy=                    0.168331
 Thermal correction to Enthalpy=                  0.169275
 Thermal correction to Gibbs Free Energy=         0.126159
 Sum of electronic and zero-point Energies=           -423.046996
 Sum of electronic and thermal Energies=              -423.038377
 Sum of electronic and thermal Enthalpies=            -423.037433
 Sum of electronic and thermal Free Energies=         -423.080548

                     E (Thermal)             CV                S
                      KCal/Mol        Cal/Mol-Kelvin    Cal/Mol-Kelvin
 Total                  105.629             32.171             90.745
 Electronic               0.000              0.000              0.000
 Translational            0.889              2.981             40.409
 Rotational               0.889              2.981             28.815
 Vibrational            103.852             26.209             21.521
 Vibration     1          0.597              1.971              4.311
 Vibration     2          0.607              1.939              3.229
 Vibration     3          0.626              1.877              2.417
 Vibration     4          0.643              1.825              2.039
 Vibration     5          0.652              1.797              1.888
 Vibration     6          0.697              1.662              1.383
 Vibration     7          0.759              1.488              0.993
 Vibration     8          0.782              1.429              0.895
 Vibration     9          0.799              1.386              0.831
 Vibration    10          0.836              1.295              0.710
 Vibration    11          0.924              1.100              0.508

 Optimization completed.
    -- Stationary point found.
 Normal termination of Gaussian 09 at Tue Jan 28 12:27:02 2020.
