 Gaussian 09, Revision D.01,
 Gaussian 09:  ES64L-G09RevD.01 24-Apr-2013

 -----------------------------
 # b3lyp 6-31G(2df,p) opt Freq
 -----------------------------

 -----
 titel
 -----
 Symbolic Z-matrix:
 Charge =  0 Multiplicity = 1

 SCF Done:  E(RB3LYP) =  -423.159241419     A.U. after   14 cycles
 Optimization completed.
    -- Stationary point found.
 Normal termination of Gaussian 09 at Mon Jan 27 11:53:16 2020.

 ----------------------------------------------------------------------
 #N Geom=AllCheck Guess=TCheck SCRF=Check GenChk RB3LYP/6-31G(2df,p) Fr
 eq
 ----------------------------------------------------------------------

 Structure from the checkpoint file:  "/scratch/puck/g09_58b4d07b-6c20-4b68-a08c-bd6091138e8c/Gau-96342.chk"
 -----
 titel
 -----
 Charge =  0 Multiplicity = 1

                         Standard orientation:
 ---------------------------------------------------------------------
 Center     Atomic      Atomic             Coordinates (Angstroms)
 Number     Number       Type             X           Y           Z
 ---------------------------------------------------------------------
      1          6           0       -2.151960   -0.000001    0.791173
      2          8           0       -2.298368    0.000000   -0.630526
      3          6           0       -0.974136    0.000001   -0.093978
      4          6           0       -0.168751   -1.285838   -0.296498
      5          6           0        1.302027   -1.010926    0.030842
      6          6           0        1.465823   -0.000001    1.187494
      7          6           0        1.302028    1.010925    0.030843
      8          6           0       -0.168750    1.285839   -0.296497
      9          8           0        1.777003    0.000000   -0.902837
     10          1           0       -2.455592    0.919176    1.292146
     11          1           0       -2.455589   -0.919178    1.292146
     12          1           0       -0.573262   -2.097696    0.317580
     13          1           0       -0.233119   -1.597810   -1.344590
     14          1           0        1.920732   -1.911565    0.015979
     15          1           0        0.734649   -0.000001    1.998429
     16          1           0        2.481062   -0.000001    1.585966
     17          1           0        1.920733    1.911564    0.015981
     18          1           0       -0.573258    2.097698    0.317582
     19          1           0       -0.233118    1.597812   -1.344589
 ---------------------------------------------------------------------

 SCF Done:  E(RB3LYP) =  -423.159241419     A.U. after    1 cycles

 The electronic state is 1-A.
 Alpha  occ. eigenvalues --  -19.14794 -19.13146 -10.24408 -10.23974 -10.23974
 Alpha  occ. eigenvalues --  -10.23149 -10.19092 -10.18667 -10.18666  -1.06987
 Alpha  occ. eigenvalues --   -1.04278  -0.79377  -0.75327  -0.72457  -0.66086
 Alpha  occ. eigenvalues --   -0.62438  -0.59061  -0.52520  -0.51946  -0.48118
 Alpha  occ. eigenvalues --   -0.46695  -0.45366  -0.45366  -0.42991  -0.39468
 Alpha  occ. eigenvalues --   -0.39225  -0.37603  -0.36655  -0.35627  -0.31522
 Alpha  occ. eigenvalues --   -0.31206  -0.28907  -0.26199  -0.24730
 Alpha virt. eigenvalues --    0.08019   0.08459   0.09824   0.11369   0.12018
 Alpha virt. eigenvalues --    0.12486   0.13589   0.14485   0.16009   0.16369
 Alpha virt. eigenvalues --    0.17600   0.17732   0.19311   0.20674   0.21690

 Mulliken charges:
               1
     1  C   -0.245336
     2  O   -0.291698
     3  C    0.454188
     4  C   -0.290473
     5  C    0.085978
     6  C   -0.257295
     7  C    0.085978
     8  C   -0.290474
     9  O   -0.293214
    10  H    0.110064
    11  H    0.110064
    12  H    0.098372
    13  H    0.125461
    14  H    0.080071
    15  H    0.102609
    16  H    0.111803
    17  H    0.080071
    18  H    0.098372
    19  H    0.125461
 Sum of Mulliken charges =   0.00000

 Dipole moment (field-independent basis, Debye):
    X=              0.5233    Y=              0.0000    Z=              2.6156  Tot=              2.6674
 Quadrupole moment (field-independent basis, Debye-Ang):
   XX=            -58.5688   YY=            -49.2570   ZZ=            -54.1833
   XY=              0.0000   XZ=             -0.9662   YZ=              0.0000

  Exact polarizability:  80.447   0.000  74.107  -3.015   0.000  66.330
 Approx polarizability: 109.765   0.000 106.235  -5.583   0.000 106.972

                      1                      2                      3
                      A                      A                      A
 Frequencies --     92.3473               260.7052               334.9056
 Red. masses --      3.4596                 2.5872                 3.7278
 Frc consts  --      0.0174                 0.1036                 0.2463
 IR Inten    --      1.0112                 0.0062                 6.9171

                      4                      5                      6
                      A                      A                      A
 Frequencies --    339.2663               385.6913               395.3689
 Red. masses --      4.0354                 2.4854                 1.9287
 Frc consts  --      0.2737                 0.2178                 0.1776
 IR Inten    --      2.0165                 6.7254                 0.0152

                      7                      8                      9
                      A                      A                      A
 Frequencies --    443.0943               538.7470               571.7374
 Red. masses --      2.3763                 4.3861                 3.2091
 Frc consts  --      0.2749                 0.7501                 0.6181
 IR Inten    --      1.0659                 0.8354                13.1619

                     10                     11                     12
                      A                      A                      A
 Frequencies --    725.8520               839.0897               842.0803
 Red. masses --      4.0085                 3.3746                 2.1950
 Frc consts  --      1.2443                 1.3999                 0.9171
 IR Inten    --      3.9346                26.8715                 0.0144

                     13                     14                     15
                      A                      A                      A
 Frequencies --    849.7953               866.8348               877.5293
 Red. masses --      2.3270                 2.1637                 3.3513
 Frc consts  --      0.9901                 0.9579                 1.5205
 IR Inten    --      6.7631                 8.2300                25.7439

                     16                     17                     18
                      A                      A                      A
 Frequencies --    932.0536               938.6383               951.7828
 Red. masses --      5.7979                 1.3336                 3.3207
 Frc consts  --      2.9676                 0.6923                 1.7724
 IR Inten    --      1.2390                 0.2293                13.8850

                     19                     20                     21
                      A                      A                      A
 Frequencies --    958.1615               999.4261              1029.3173
 Red. masses --      3.0415                 1.9075                 1.8011
 Frc consts  --      1.6452                 1.1226                 1.1243
 IR Inten    --     38.8560                15.7383                20.7047

                     22                     23                     24
                      A                      A                      A
 Frequencies --   1086.8058              1093.1059              1097.1121
 Red. masses --      2.0236                 1.1070                 2.6942
 Frc consts  --      1.4083                 0.7793                 1.9107
 IR Inten    --     10.5223                 0.6557                 1.1730

                     25                     26                     27
                      A                      A                      A
 Frequencies --   1132.2029              1159.2914              1167.1401
 Red. masses --      1.2826                 1.1589                 1.3926
 Frc consts  --      0.9687                 0.9177                 1.1177
 IR Inten    --      0.4668                12.2450                 0.0198

                     28                     29                     30
                      A                      A                      A
 Frequencies --   1215.0295              1225.2464              1253.0430
 Red. masses --      1.3618                 2.2170                 1.5852
 Frc consts  --      1.1845                 1.9609                 1.4665
 IR Inten    --      4.2822                 1.6347                 7.1377

                     31                     32                     33
                      A                      A                      A
 Frequencies --   1263.7278              1307.3288              1317.0864
 Red. masses --      1.3986                 1.9689                 1.6040
 Frc consts  --      1.3160                 1.9827                 1.6394
 IR Inten    --      0.6239                 4.2051                 0.0011

                     34                     35                     36
                      A                      A                      A
 Frequencies --   1338.7609              1358.0938              1369.0398
 Red. masses --      1.5104                 1.5650                 1.5624
 Frc consts  --      1.5949                 1.7007                 1.7253
 IR Inten    --     11.8426                 9.1146                13.9558

                     37                     38                     39
                      A                      A                      A
 Frequencies --   1420.8697              1467.1506              1477.6822
 Red. masses --      2.2136                 1.0880                 1.1333
 Frc consts  --      2.6330                 1.3798                 1.4580
 IR Inten    --     15.5518                 4.6229                 0.9003

                     40                     41                     42
                      A                      A                      A
 Frequencies --   1490.8836              1529.1423              3040.3222
 Red. masses --      1.1308                 1.3156                 1.0592
 Frc consts  --      1.4809                 1.8124                 5.7687
 IR Inten    --      2.7298                 3.8428                21.8785

                     43                     44                     45
                      A                      A                      A
 Frequencies --   3042.0485              3071.2586              3073.2782
 Red. masses --      1.0603                 1.0506                 1.0647
 Frc consts  --      5.7809                 5.8387                 5.9251
 IR Inten    --      7.4037                26.3774                19.9841

                     46                     47                     48
                      A                      A                      A
 Frequencies --   3079.5152              3084.9818              3085.8394
 Red. masses --      1.0864                 1.0901                 1.1038
 Frc consts  --      6.0704                 6.1126                 6.1929
 IR Inten    --     87.7877                20.6396                 7.9212

                     49                     50                     51
                      A                      A                      A
 Frequencies --   3088.3525              3140.2702              3156.5703
 Red. masses --      1.0980                 1.1088                 1.1192
 Frc consts  --      6.1705                 6.4424                 6.5705
 IR Inten    --     31.7857                25.3110                27.1684

 - Thermochemistry -
 -------------------
 Temperature   298.150 Kelvin.  Pressure   1.00000 Atm.
 Atom     1 has atomic number  6 and mass  12.00000

 Molecular mass:   126.06808 amu.
 Principal axes and moments of inertia in atomic units:
                           1         2         3
     Eigenvalues --   524.942261271.045501369.55593
           X            1.00000   0.00000  -0.00253
           Y            0.00000   1.00000   0.00000
           Z            0.00253   0.00000   1.00000
 This molecule is an asymmetric top.
 Rotational symmetry number  1.
 Warning -- assumption of classical behavior for rotation
           may cause significant error
 Rotational temperatures (Kelvin)      0.16500     0.06814     0.06324
 Rotational constants (GHZ):           3.43798     1.41989     1.31776
 Zero-point vibrational energy     423499.6 (Joules/Mol)
                                  101.21883 (Kcal/Mol)
 Warning -- explicit consideration of   9 degrees of freedom as
           vibrations may cause significant error
 Vibrational temperatures:    132.87   375.10   481.85   488.13   554.92
          (Kelvin)            568.85   637.51   775.14   822.60  1044.34
                             1207.26  1211.56  1222.66  1247.18  1262.57
                             1341.02  1350.49  1369.40  1378.58  1437.95
                             1480.96  1563.67  1572.73  1578.50  1628.99
                             1667.96  1679.25  1748.15  1762.85  1802.85
                             1818.22  1880.95  1894.99  1926.18  1953.99
                             1969.74  2044.31  2110.90  2126.05  2145.05
                             2200.09  4374.34  4376.82  4418.85  4421.76
                             4430.73  4438.60  4439.83  4443.44  4518.14
                             4541.59

 Zero-point correction=                           0.161302 (Hartree/Particle)
 Thermal correction to Energy=                    0.168333
 Thermal correction to Enthalpy=                  0.169278
 Thermal correction to Gibbs Free Energy=         0.129966
 Sum of electronic and zero-point Energies=           -422.997939
 Sum of electronic and thermal Energies=              -422.990908
 Sum of electronic and thermal Enthalpies=            -422.989964
 Sum of electronic and thermal Free Energies=         -423.029275

                     E (Thermal)             CV                S
                      KCal/Mol        Cal/Mol-Kelvin    Cal/Mol-Kelvin
 Total                  105.631             28.932             82.738
 Electronic               0.000              0.000              0.000
 Translational            0.889              2.981             40.409
 Rotational               0.889              2.981             28.304
 Vibrational            103.853             22.970             14.025
 Vibration     1          0.602              1.955              3.610
 Vibration     2          0.669              1.745              1.657
 Vibration     3          0.716              1.606              1.236
 Vibration     4          0.719              1.597              1.216
 Vibration     5          0.754              1.501              1.017
 Vibration     6          0.762              1.480              0.980
 Vibration     7          0.803              1.376              0.817
 Vibration     8          0.894              1.164              0.568
 Vibration     9          0.928              1.092              0.501

 Optimization completed.
    -- Stationary point found.
 Normal termination of Gaussian 09 at Mon Jan 27 12:37:49 2020.
