 Gaussian 09, Revision D.01,
 Gaussian 09:  ES64L-G09RevD.01 24-Apr-2013

 -----------------------------
 # b3lyp 6-31G(2df,p) opt Freq
 -----------------------------

 -----
 titel
 -----
 Symbolic Z-matrix:
 Charge =  0 Multiplicity = 1

 SCF Done:  E(RB3LYP) =  -423.188535264     A.U. after   14 cycles
 Optimization completed.
    -- Stationary point found.
 Normal termination of Gaussian 09 at Mon Jan 27 13:44:31 2020.

 ----------------------------------------------------------------------
 #N Geom=AllCheck Guess=TCheck SCRF=Check GenChk RB3LYP/6-31G(2df,p) Fr
 eq
 ----------------------------------------------------------------------

 Structure from the checkpoint file:  "/scratch/puck/g09_7e93a640-52cc-46ab-bc2a-fdd961858ed0/Gau-2381.chk"
 -----
 titel
 -----
 Charge =  0 Multiplicity = 1

                         Standard orientation:
 ---------------------------------------------------------------------
 Center     Atomic      Atomic             Coordinates (Angstroms)
 Number     Number       Type             X           Y           Z
 ---------------------------------------------------------------------
      1          8           0        2.709027   -0.639862   -0.071523
      2          6           0        1.587536   -0.785542    0.339377
      3          6           0        0.340905   -0.630984   -0.513017
      4          6           0       -0.760137   -1.688002   -0.202888
      5          6           0       -1.949106   -0.904105    0.402242
      6          6           0       -1.830764    0.493978   -0.226258
      7          6           0       -0.331823    0.723826   -0.222281
      8          6           0        0.336603    2.007477   -0.426014
      9          8           0        0.197881    1.464823    0.894562
     10          1           0        1.388997   -1.051492    1.401273
     11          1           0        0.658084   -0.670250   -1.558574
     12          1           0       -1.058250   -2.185751   -1.130021
     13          1           0       -0.398529   -2.470340    0.472513
     14          1           0       -2.910635   -1.387043    0.211736
     15          1           0       -1.832084   -0.821491    1.488423
     16          1           0       -2.200530    0.481879   -1.259543
     17          1           0       -2.359452    1.278645    0.319635
     18          1           0        1.354766    2.027191   -0.812680
     19          1           0       -0.256912    2.899082   -0.624041
 ---------------------------------------------------------------------

 SCF Done:  E(RB3LYP) =  -423.188535264     A.U. after    1 cycles

 The electronic state is 1-A.
 Alpha  occ. eigenvalues --  -19.15560 -19.13727 -10.26907 -10.25113 -10.23683
 Alpha  occ. eigenvalues --  -10.19986 -10.19719 -10.19380 -10.19303  -1.07481
 Alpha  occ. eigenvalues --   -1.04409  -0.84491  -0.74607  -0.70823  -0.66391
 Alpha  occ. eigenvalues --   -0.60995  -0.58355  -0.55521  -0.50946  -0.49455
 Alpha  occ. eigenvalues --   -0.47173  -0.44281  -0.43269  -0.42959  -0.41456
 Alpha  occ. eigenvalues --   -0.39037  -0.37265  -0.35788  -0.35170  -0.34272
 Alpha  occ. eigenvalues --   -0.33958  -0.30411  -0.27206  -0.24779
 Alpha virt. eigenvalues --   -0.01832   0.06573   0.09046   0.10572   0.11090
 Alpha virt. eigenvalues --    0.12261   0.13572   0.14887   0.15718   0.15952
 Alpha virt. eigenvalues --    0.16611   0.18304   0.18795   0.20743   0.21172

 Mulliken charges:
               1
     1  O   -0.259839
     2  C    0.169795
     3  C   -0.152898
     4  C   -0.246701
     5  C   -0.209268
     6  C   -0.286330
     7  C    0.418162
     8  C   -0.257306
     9  O   -0.267740
    10  H    0.084043
    11  H    0.100091
    12  H    0.112853
    13  H    0.107879
    14  H    0.102307
    15  H    0.116479
    16  H    0.105687
    17  H    0.115339
    18  H    0.130363
    19  H    0.117086
 Sum of Mulliken charges =   0.00000

 Dipole moment (field-independent basis, Debye):
    X=             -3.1509    Y=             -0.3710    Z=             -1.1941  Tot=              3.3899
 Quadrupole moment (field-independent basis, Debye-Ang):
   XX=            -60.6224   YY=            -50.4617   ZZ=            -53.2265
   XY=              1.4112   XZ=              0.5600   YZ=             -3.1857

  Exact polarizability:  83.793   2.901  77.899  -1.631  -3.190  63.753
 Approx polarizability: 118.787   4.981 105.865  -3.976  -2.647 104.730

                      1                      2                      3
                      A                      A                      A
 Frequencies --     44.0328                75.6502               165.0163
 Red. masses --      3.6361                 4.7938                 2.4015
 Frc consts  --      0.0042                 0.0162                 0.0385
 IR Inten    --      2.2485                 3.4603                 1.1619

                      4                      5                      6
                      A                      A                      A
 Frequencies --    233.3375               278.9947               334.9658
 Red. masses --      3.0634                 2.4306                 2.3257
 Frc consts  --      0.0983                 0.1115                 0.1537
 IR Inten    --     10.2119                 2.3006                 2.1219

                      7                      8                      9
                      A                      A                      A
 Frequencies --    378.1244               436.9273               488.0369
 Red. masses --      3.0572                 3.6014                 3.4336
 Frc consts  --      0.2575                 0.4051                 0.4818
 IR Inten    --      1.3945                 4.7593                10.7589

                     10                     11                     12
                      A                      A                      A
 Frequencies --    539.6720               602.1520               757.6493
 Red. masses --      3.3532                 2.1475                 4.5590
 Frc consts  --      0.5754                 0.4588                 1.5419
 IR Inten    --      1.6501                 1.1982                11.7996

                     13                     14                     15
                      A                      A                      A
 Frequencies --    812.6621               841.1085               851.1699
 Red. masses --      1.6211                 2.0507                 2.8689
 Frc consts  --      0.6308                 0.8548                 1.2246
 IR Inten    --     12.5954                 1.4204                11.1139

                     16                     17                     18
                      A                      A                      A
 Frequencies --    900.7563               924.5977               963.4682
 Red. masses --      2.2434                 1.7778                 3.9971
 Frc consts  --      1.0724                 0.8955                 2.1861
 IR Inten    --      0.5091                 2.1512                14.5336

                     19                     20                     21
                      A                      A                      A
 Frequencies --    976.1939              1013.1329              1019.5635
 Red. masses --      2.1312                 2.1307                 1.6315
 Frc consts  --      1.1966                 1.2886                 0.9992
 IR Inten    --      4.9033                29.8743                 1.1093

                     22                     23                     24
                      A                      A                      A
 Frequencies --   1064.0624              1084.0034              1129.5174
 Red. masses --      2.0896                 1.7998                 1.2983
 Frc consts  --      1.3939                 1.2460                 0.9759
 IR Inten    --      4.9272                 1.8125                 3.0322

                     25                     26                     27
                      A                      A                      A
 Frequencies --   1160.3972              1183.2438              1190.1533
 Red. masses --      1.5601                 1.4313                 1.5299
 Frc consts  --      1.2377                 1.1807                 1.2768
 IR Inten    --     16.6632                 6.8163                 3.2585

                     28                     29                     30
                      A                      A                      A
 Frequencies --   1221.3438              1255.7893              1268.4088
 Red. masses --      2.0572                 1.2933                 1.4463
 Frc consts  --      1.8081                 1.2017                 1.3710
 IR Inten    --      7.5953                 1.1346                 5.0367

                     31                     32                     33
                      A                      A                      A
 Frequencies --   1300.0497              1320.8325              1338.1623
 Red. masses --      1.4390                 1.4118                 1.3418
 Frc consts  --      1.4330                 1.4511                 1.4157
 IR Inten    --      1.4284                 2.6457                 2.9685

                     34                     35                     36
                      A                      A                      A
 Frequencies --   1345.4501              1415.4158              1428.1642
 Red. masses --      1.4133                 1.9518                 1.4103
 Frc consts  --      1.5074                 2.3038                 1.6948
 IR Inten    --      3.0997                 4.3128                 7.2544

                     37                     38                     39
                      A                      A                      A
 Frequencies --   1474.6386              1488.5162              1503.3274
 Red. masses --      1.1033                 1.0810                 1.0986
 Frc consts  --      1.4136                 1.4112                 1.4628
 IR Inten    --      3.6402                 2.4670                 2.1908

                     40                     41                     42
                      A                      A                      A
 Frequencies --   1527.0506              1830.4922              2886.5966
 Red. masses --      1.4373                10.3273                 1.0835
 Frc consts  --      1.9747                20.3880                 5.3191
 IR Inten    --      4.9249               180.5092                77.0487

                     43                     44                     45
                      A                      A                      A
 Frequencies --   3030.9869              3046.7563              3051.4509
 Red. masses --      1.0675                 1.0621                 1.0632
 Frc consts  --      5.7782                 5.8091                 5.8328
 IR Inten    --     17.8398                17.3860                32.5493

                     46                     47                     48
                      A                      A                      A
 Frequencies --   3073.1703              3082.5279              3089.1667
 Red. masses --      1.0876                 1.0508                 1.0984
 Frc consts  --      6.0521                 5.8828                 6.1756
 IR Inten    --      4.7668                22.1577                18.2435

                     49                     50                     51
                      A                      A                      A
 Frequencies --   3105.4144              3111.6893              3170.7861
 Red. masses --      1.0989                 1.1011                 1.1196
 Frc consts  --      6.2440                 6.2814                 6.6319
 IR Inten    --     25.4524                28.1749                14.3694

 - Thermochemistry -
 -------------------
 Temperature   298.150 Kelvin.  Pressure   1.00000 Atm.
 Atom     1 has atomic number  8 and mass  15.99491

 Molecular mass:   126.06808 amu.
 Principal axes and moments of inertia in atomic units:
                           1         2         3
     Eigenvalues --   779.109171096.224061631.91415
           X            0.99846   0.05550  -0.00162
           Y           -0.05552   0.99806  -0.02824
           Z            0.00005   0.02829   0.99960
 This molecule is an asymmetric top.
 Rotational symmetry number  1.
 Warning -- assumption of classical behavior for rotation
           may cause significant error
 Rotational temperatures (Kelvin)      0.11117     0.07901     0.05307
 Rotational constants (GHZ):           2.31642     1.64633     1.10590
 Zero-point vibrational energy     417585.1 (Joules/Mol)
                                   99.80523 (Kcal/Mol)
 Warning -- explicit consideration of  11 degrees of freedom as
           vibrations may cause significant error
 Vibrational temperatures:     63.35   108.84   237.42   335.72   401.41
          (Kelvin)            481.94   544.04   628.64   702.18   776.47
                              866.36  1090.09  1169.24  1210.17  1224.64
                             1295.99  1330.29  1386.21  1404.52  1457.67
                             1466.92  1530.95  1559.64  1625.12  1669.55
                             1702.42  1712.36  1757.24  1806.80  1824.96
                             1870.48  1900.38  1925.31  1935.80  2036.47
                             2054.81  2121.67  2141.64  2162.95  2197.08
                             2633.67  4153.16  4360.91  4383.60  4390.35
                             4421.60  4435.06  4444.62  4467.99  4477.02
                             4562.05

 Zero-point correction=                           0.159050 (Hartree/Particle)
 Thermal correction to Energy=                    0.167463
 Thermal correction to Enthalpy=                  0.168407
 Thermal correction to Gibbs Free Energy=         0.125189
 Sum of electronic and zero-point Energies=           -423.029486
 Sum of electronic and thermal Energies=              -423.021073
 Sum of electronic and thermal Enthalpies=            -423.020129
 Sum of electronic and thermal Free Energies=         -423.063346

                     E (Thermal)             CV                S
                      KCal/Mol        Cal/Mol-Kelvin    Cal/Mol-Kelvin
 Total                  105.084             31.405             90.959
 Electronic               0.000              0.000              0.000
 Translational            0.889              2.981             40.409
 Rotational               0.889              2.981             28.724
 Vibrational            103.307             25.443             21.827
 Vibration     1          0.595              1.980              5.069
 Vibration     2          0.599              1.965              4.001
 Vibration     3          0.623              1.885              2.491
 Vibration     4          0.654              1.790              1.853
 Vibration     5          0.679              1.712              1.540
 Vibration     6          0.716              1.606              1.236
 Vibration     7          0.748              1.517              1.047
 Vibration     8          0.797              1.390              0.836
 Vibration     9          0.844              1.277              0.689
 Vibration    10          0.895              1.162              0.566
 Vibration    11          0.960              1.027              0.446

 Optimization completed.
    -- Stationary point found.
 Normal termination of Gaussian 09 at Mon Jan 27 15:40:55 2020.
