 Gaussian 09, Revision D.01,
 Gaussian 09:  ES64L-G09RevD.01 24-Apr-2013

 -----------------------------
 # b3lyp 6-31G(2df,p) opt Freq
 -----------------------------

 -----
 titel
 -----
 Symbolic Z-matrix:
 Charge =  0 Multiplicity = 1

 SCF Done:  E(RB3LYP) =  -423.159912556     A.U. after   14 cycles
 Optimization completed.
    -- Stationary point found.
 Normal termination of Gaussian 09 at Tue Jan 28 14:10:05 2020.

 ----------------------------------------------------------------------
 #N Geom=AllCheck Guess=TCheck SCRF=Check GenChk RB3LYP/6-31G(2df,p) Fr
 eq
 ----------------------------------------------------------------------

 Structure from the checkpoint file:  "/scratch/puck/g09_4de4fdd5-6c51-4a54-beb3-12876d15cbfc/Gau-34123.chk"
 -----
 titel
 -----
 Charge =  0 Multiplicity = 1

                         Standard orientation:
 ---------------------------------------------------------------------
 Center     Atomic      Atomic             Coordinates (Angstroms)
 Number     Number       Type             X           Y           Z
 ---------------------------------------------------------------------
      1          6           0        2.808759   -0.154439   -0.551219
      2          8           0        1.813681   -0.820139    0.209341
      3          6           0        0.532701   -0.616210   -0.277423
      4          6           0       -0.546927   -0.703480    0.768731
      5          6           0       -1.957062   -1.085861    0.334680
      6          6           0       -2.343645    0.024130   -0.625218
      7          6           0       -1.402323    0.967519   -0.717644
      8          6           0       -0.210832    0.647386    0.120594
      9          8           0        0.521990    1.661204    0.727245
     10          1           0        2.669168    0.932325   -0.526343
     11          1           0        3.772164   -0.408437   -0.102817
     12          1           0        2.805548   -0.493224   -1.598445
     13          1           0        0.347709   -1.012873   -1.279759
     14          1           0       -0.190247   -0.922227    1.768209
     15          1           0       -1.982921   -2.068817   -0.153537
     16          1           0       -2.652192   -1.146485    1.183235
     17          1           0       -3.274277    0.010451   -1.181295
     18          1           0       -1.443259    1.855630   -1.338239
     19          1           0       -0.021085    2.050863    1.421290
 ---------------------------------------------------------------------

 SCF Done:  E(RB3LYP) =  -423.159912557     A.U. after    1 cycles

 The electronic state is 1-A.
 Alpha  occ. eigenvalues --  -19.14548 -19.13919 -10.23314 -10.22862 -10.21471
 Alpha  occ. eigenvalues --  -10.18953 -10.18378 -10.18311 -10.17966  -1.04256
 Alpha  occ. eigenvalues --   -1.02157  -0.87174  -0.76434  -0.70368  -0.67876
 Alpha  occ. eigenvalues --   -0.58584  -0.57488  -0.55320  -0.52281  -0.47554
 Alpha  occ. eigenvalues --   -0.46428  -0.44832  -0.44040  -0.41278  -0.41002
 Alpha  occ. eigenvalues --   -0.38747  -0.37299  -0.35365  -0.33723  -0.31642
 Alpha  occ. eigenvalues --   -0.30102  -0.26378  -0.25112  -0.21896
 Alpha virt. eigenvalues --    0.01341   0.07961   0.10361   0.12153   0.13151
 Alpha virt. eigenvalues --    0.14200   0.15727   0.15950   0.16361   0.17059
 Alpha virt. eigenvalues --    0.18385   0.18645   0.19182   0.21123   0.22917

 Mulliken charges:
               1
     1  C   -0.238720
     2  O   -0.244183
     3  C    0.080170
     4  C   -0.180153
     5  C   -0.285760
     6  C   -0.073006
     7  C   -0.165402
     8  C    0.335112
     9  O   -0.464116
    10  H    0.131332
    11  H    0.123078
    12  H    0.100539
    13  H    0.080516
    14  H    0.100276
    15  H    0.114940
    16  H    0.106899
    17  H    0.097184
    18  H    0.097653
    19  H    0.283640
 Sum of Mulliken charges =   0.00000

 Dipole moment (field-independent basis, Debye):
    X=             -1.3439    Y=              0.4520    Z=             -0.1401  Tot=              1.4248
 Quadrupole moment (field-independent basis, Debye-Ang):
   XX=            -50.5817   YY=            -53.0554   ZZ=            -50.3393
   XY=              0.3779   XZ=             -2.3030   YZ=              1.8281

  Exact polarizability:  95.099   6.019  73.176   0.600  -2.562  65.033
 Approx polarizability: 127.402  13.986 115.539   0.618  -4.562  98.707

                      1                      2                      3
                      A                      A                      A
 Frequencies --    110.8391               158.9563               167.5494
 Red. masses --      2.8604                 3.0415                 1.2971
 Frc consts  --      0.0207                 0.0453                 0.0215
 IR Inten    --      4.3271                 1.8723                 0.0892

                      4                      5                      6
                      A                      A                      A
 Frequencies --    224.7829               259.8902               274.6978
 Red. masses --      2.4586                 3.4536                 1.2098
 Frc consts  --      0.0732                 0.1374                 0.0538
 IR Inten    --      0.8949                 4.2484                66.7761

                      7                      8                      9
                      A                      A                      A
 Frequencies --    310.7224               385.0264               415.3155
 Red. masses --      2.4157                 3.1623                 4.0496
 Frc consts  --      0.1374                 0.2762                 0.4115
 IR Inten    --     21.2239                 5.2958                 5.4380

                     10                     11                     12
                      A                      A                      A
 Frequencies --    476.7664               535.9580               678.0784
 Red. masses --      2.3544                 4.0336                 4.6767
 Frc consts  --      0.3153                 0.6827                 1.2669
 IR Inten    --      4.3014                 8.3218                 9.4997

                     13                     14                     15
                      A                      A                      A
 Frequencies --    741.1794               747.2495               779.7907
 Red. masses --      1.7511                 2.6577                 4.3356
 Frc consts  --      0.5668                 0.8743                 1.5533
 IR Inten    --     39.0926                 5.9244                 5.7898

                     16                     17                     18
                      A                      A                      A
 Frequencies --    887.7457               897.9122               922.3700
 Red. masses --      3.5047                 1.7975                 2.7909
 Frc consts  --      1.6273                 0.8539                 1.3990
 IR Inten    --      1.1147                11.9646                 0.5615

                     19                     20                     21
                      A                      A                      A
 Frequencies --    963.2984               984.4183              1024.0171
 Red. masses --      1.3496                 1.8406                 2.0063
 Frc consts  --      0.7379                 1.0509                 1.2396
 IR Inten    --      5.3501                10.0950                 9.4115

                     22                     23                     24
                      A                      A                      A
 Frequencies --   1033.0134              1057.7394              1096.5798
 Red. masses --      2.5193                 2.1294                 1.3700
 Frc consts  --      1.5839                 1.4037                 0.9706
 IR Inten    --     20.5865                13.2863                21.6914

                     25                     26                     27
                      A                      A                      A
 Frequencies --   1120.7457              1166.4676              1177.0851
 Red. masses --      1.1912                 2.8804                 1.2644
 Frc consts  --      0.8816                 2.3092                 1.0322
 IR Inten    --      3.2596                64.1576                 5.6497

                     28                     29                     30
                      A                      A                      A
 Frequencies --   1188.4137              1211.7111              1232.6242
 Red. masses --      1.3014                 1.8612                 1.8922
 Frc consts  --      1.0829                 1.6100                 1.6939
 IR Inten    --      7.5571                32.7159                81.3232

                     31                     32                     33
                      A                      A                      A
 Frequencies --   1255.7038              1279.5617              1317.4131
 Red. masses --      2.3892                 1.6745                 1.4640
 Frc consts  --      2.2196                 1.6153                 1.4970
 IR Inten    --     35.7445                68.3273                 3.0590

                     34                     35                     36
                      A                      A                      A
 Frequencies --   1337.5154              1377.0878              1438.3836
 Red. masses --      1.4417                 1.9035                 2.3855
 Frc consts  --      1.5196                 2.1268                 2.9079
 IR Inten    --     14.9953                22.3043                43.9545

                     37                     38                     39
                      A                      A                      A
 Frequencies --   1477.2742              1485.0781              1487.0260
 Red. masses --      1.1004                 1.2768                 1.0475
 Frc consts  --      1.4149                 1.6591                 1.3647
 IR Inten    --      3.6434                 4.4201                 3.6171

                     40                     41                     42
                      A                      A                      A
 Frequencies --   1507.6867              1662.7506              2988.9334
 Red. masses --      1.0498                 6.3065                 1.0433
 Frc consts  --      1.4060                10.2729                 5.4917
 IR Inten    --      6.0541                 4.8881                65.8448

                     43                     44                     45
                      A                      A                      A
 Frequencies --   3012.1679              3041.2324              3057.8133
 Red. masses --      1.0618                 1.0995                 1.0874
 Frc consts  --      5.6759                 5.9914                 5.9902
 IR Inten    --     46.4270                19.7249                40.8246

                     46                     47                     48
                      A                      A                      A
 Frequencies --   3067.1126              3121.4951              3186.1453
 Red. masses --      1.0912                 1.1017                 1.0847
 Frc consts  --      6.0480                 6.3249                 6.4876
 IR Inten    --     26.2034                29.2128                 4.9804

                     49                     50                     51
                      A                      A                      A
 Frequencies --   3191.4701              3210.4286              3791.6546
 Red. masses --      1.0901                 1.1041                 1.0663
 Frc consts  --      6.5421                 6.7047                 9.0317
 IR Inten    --      4.5321                18.0881                17.1219

 - Thermochemistry -
 -------------------
 Temperature   298.150 Kelvin.  Pressure   1.00000 Atm.
 Atom     1 has atomic number  6 and mass  12.00000

 Molecular mass:   126.06808 amu.
 Principal axes and moments of inertia in atomic units:
                           1         2         3
     Eigenvalues --   571.492691413.415601645.85535
           X            0.99978   0.01570  -0.01371
           Y           -0.01584   0.99983  -0.00981
           Z            0.01356   0.01002   0.99986
 This molecule is an asymmetric top.
 Rotational symmetry number  1.
 Warning -- assumption of classical behavior for rotation
           may cause significant error
 Rotational temperatures (Kelvin)      0.15156     0.06128     0.05263
 Rotational constants (GHZ):           3.15794     1.27687     1.09654
 Zero-point vibrational energy     415851.1 (Joules/Mol)
                                   99.39080 (Kcal/Mol)
 Warning -- explicit consideration of  11 degrees of freedom as
           vibrations may cause significant error
 Vibrational temperatures:    159.47   228.70   241.07   323.41   373.92
          (Kelvin)            395.23   447.06   553.97   597.55   685.96
                              771.12   975.60  1066.39  1075.12  1121.94
                             1277.27  1291.89  1327.08  1385.97  1416.36
                             1473.33  1486.27  1521.85  1577.73  1612.50
                             1678.28  1693.56  1709.86  1743.38  1773.47
                             1806.68  1841.00  1895.46  1924.38  1981.32
                             2069.51  2125.47  2136.69  2139.50  2169.22
                             2392.32  4300.40  4333.83  4375.65  4399.51
                             4412.89  4491.13  4584.15  4591.81  4619.08
                             5455.34

 Zero-point correction=                           0.158389 (Hartree/Particle)
 Thermal correction to Energy=                    0.167045
 Thermal correction to Enthalpy=                  0.167990
 Thermal correction to Gibbs Free Energy=         0.125435
 Sum of electronic and zero-point Energies=           -423.001523
 Sum of electronic and thermal Energies=              -422.992867
 Sum of electronic and thermal Enthalpies=            -422.991923
 Sum of electronic and thermal Free Energies=         -423.034477

                     E (Thermal)             CV                S
                      KCal/Mol        Cal/Mol-Kelvin    Cal/Mol-Kelvin
 Total                  104.823             33.127             89.563
 Electronic               0.000              0.000              0.000
 Translational            0.889              2.981             40.409
 Rotational               0.889              2.981             28.677
 Vibrational            103.045             27.166             20.478
 Vibration     1          0.607              1.941              3.254
 Vibration     2          0.621              1.893              2.562
 Vibration     3          0.624              1.882              2.463
 Vibration     4          0.649              1.803              1.920
 Vibration     5          0.668              1.746              1.663
 Vibration     6          0.677              1.720              1.566
 Vibration     7          0.700              1.653              1.358
 Vibration     8          0.754              1.502              1.019
 Vibration     9          0.779              1.437              0.908
 Vibration    10          0.833              1.302              0.719
 Vibration    11          0.891              1.171              0.574

 Optimization completed.
    -- Stationary point found.
 Normal termination of Gaussian 09 at Tue Jan 28 14:50:42 2020.
