 Gaussian 09, Revision D.01,
 Gaussian 09:  ES64L-G09RevD.01 24-Apr-2013

 -----------------------------
 # b3lyp 6-31G(2df,p) opt Freq
 -----------------------------

 -----
 titel
 -----
 Symbolic Z-matrix:
 Charge =  0 Multiplicity = 1

 SCF Done:  E(RB3LYP) =  -423.177556096     A.U. after   14 cycles
 Optimization completed.
    -- Stationary point found.
 Normal termination of Gaussian 09 at Tue Jan 28 04:00:08 2020.

 ----------------------------------------------------------------------
 #N Geom=AllCheck Guess=TCheck SCRF=Check GenChk RB3LYP/6-31G(2df,p) Fr
 eq
 ----------------------------------------------------------------------

 Structure from the checkpoint file:  "/scratch/puck/g09_0fcbbb56-b884-4c7a-a85a-37cb3ecde8a9/Gau-68080.chk"
 -----
 titel
 -----
 Charge =  0 Multiplicity = 1

                         Standard orientation:
 ---------------------------------------------------------------------
 Center     Atomic      Atomic             Coordinates (Angstroms)
 Number     Number       Type             X           Y           Z
 ---------------------------------------------------------------------
      1          6           0        1.637904    1.815905   -0.111504
      2          6           0        1.349029    0.397647   -0.577954
      3          6           0        2.180674   -0.743062    0.046911
      4          8           0        0.991329   -1.407797    0.522709
      5          6           0        0.138461   -0.367178    0.022803
      6          6           0       -0.845312    0.285066    1.038521
      7          6           0       -1.967384    0.062881    0.013579
      8          8           0       -3.085817    0.473336   -0.095941
      9          6           0       -1.058505   -0.807845   -0.866019
     10          1           0        1.669858    1.879334    0.981281
     11          1           0        2.607126    2.155544   -0.492003
     12          1           0        0.878963    2.519871   -0.469294
     13          1           0        1.341549    0.356494   -1.671118
     14          1           0        2.751292   -1.370842   -0.646839
     15          1           0        2.834660   -0.438310    0.874353
     16          1           0       -0.967922   -0.350342    1.922668
     17          1           0       -0.670039    1.313573    1.362765
     18          1           0       -1.270840   -1.875474   -0.739907
     19          1           0       -1.027943   -0.574653   -1.934073
 ---------------------------------------------------------------------

 SCF Done:  E(RB3LYP) =  -423.177556096     A.U. after    1 cycles

 The electronic state is 1-A.
 Alpha  occ. eigenvalues --  -19.13986 -19.13670 -10.27189 -10.25051 -10.23498
 Alpha  occ. eigenvalues --  -10.20368 -10.19070 -10.19066 -10.19055  -1.04889
 Alpha  occ. eigenvalues --   -1.04413  -0.84167  -0.78362  -0.68982  -0.67793
 Alpha  occ. eigenvalues --   -0.64846  -0.53541  -0.52915  -0.50243  -0.49233
 Alpha  occ. eigenvalues --   -0.47094  -0.44253  -0.43224  -0.42705  -0.41590
 Alpha  occ. eigenvalues --   -0.40058  -0.38881  -0.37274  -0.35807  -0.35370
 Alpha  occ. eigenvalues --   -0.31326  -0.30422  -0.26012  -0.23580
 Alpha virt. eigenvalues --   -0.02242   0.07670   0.08313   0.10362   0.11287
 Alpha virt. eigenvalues --    0.12521   0.13465   0.14858   0.15227   0.15694
 Alpha virt. eigenvalues --    0.17300   0.17614   0.18400   0.19818   0.20155

 Mulliken charges:
               1
     1  C   -0.414502
     2  C   -0.105332
     3  C   -0.087629
     4  O   -0.315818
     5  C    0.435280
     6  C   -0.416052
     7  C    0.405708
     8  O   -0.292573
     9  C   -0.415237
    10  H    0.124235
    11  H    0.122945
    12  H    0.125133
    13  H    0.084294
    14  H    0.105154
    15  H    0.100803
    16  H    0.144235
    17  H    0.128232
    18  H    0.144901
    19  H    0.126222
 Sum of Mulliken charges =   0.00000

 Dipole moment (field-independent basis, Debye):
    X=              3.0253    Y=              0.5588    Z=             -0.5883  Tot=              3.1322
 Quadrupole moment (field-independent basis, Debye-Ang):
   XX=            -61.7812   YY=            -54.4557   ZZ=            -51.2746
   XY=              4.3848   XZ=             -1.7084   YZ=              1.5006

  Exact polarizability:  89.235  -1.749  69.807   0.719   3.420  67.810
 Approx polarizability: 121.648  -6.621 101.750   2.188   2.632 102.887

                      1                      2                      3
                      A                      A                      A
 Frequencies --     47.9016                49.9607               214.8372
 Red. masses --      2.7275                 4.4207                 2.4631
 Frc consts  --      0.0037                 0.0065                 0.0670
 IR Inten    --      0.3708                 4.3550                 0.1627

                      4                      5                      6
                      A                      A                      A
 Frequencies --    230.3580               265.6942               324.4525
 Red. masses --      1.3234                 1.7428                 3.6905
 Frc consts  --      0.0414                 0.0725                 0.2289
 IR Inten    --      0.8263                 2.0350                 5.0283

                      7                      8                      9
                      A                      A                      A
 Frequencies --    381.4084               411.0442               436.1622
 Red. masses --      3.0545                 1.8030                 2.9127
 Frc consts  --      0.2618                 0.1795                 0.3265
 IR Inten    --      3.2024                 0.2883                 2.3299

                     10                     11                     12
                      A                      A                      A
 Frequencies --    471.8855               534.5147               644.3286
 Red. masses --      4.2907                 2.8637                 1.5267
 Frc consts  --      0.5629                 0.4820                 0.3734
 IR Inten    --      0.3946                 0.6672                 0.1859

                     13                     14                     15
                      A                      A                      A
 Frequencies --    716.2366               741.9772               837.7716
 Red. masses --      3.1780                 2.6695                 2.9990
 Frc consts  --      0.9605                 0.8659                 1.2402
 IR Inten    --      0.6519                 0.3040                 5.1534

                     16                     17                     18
                      A                      A                      A
 Frequencies --    895.3718               912.0251               930.1029
 Red. masses --      2.2851                 1.4845                 3.5293
 Frc consts  --      1.0794                 0.7275                 1.7989
 IR Inten    --      7.6333                 2.0757                 9.3529

                     19                     20                     21
                      A                      A                      A
 Frequencies --    940.8755               987.1128              1025.0905
 Red. masses --      1.7081                 1.2037                 7.2434
 Frc consts  --      0.8909                 0.6910                 4.4845
 IR Inten    --      1.4256                 3.0471                90.4314

                     22                     23                     24
                      A                      A                      A
 Frequencies --   1055.2166              1100.6535              1109.5193
 Red. masses --      2.3983                 2.6537                 2.6563
 Frc consts  --      1.5734                 1.8941                 1.9266
 IR Inten    --     36.7372                33.1126                18.4837

                     25                     26                     27
                      A                      A                      A
 Frequencies --   1141.4366              1150.9694              1159.4928
 Red. masses --      2.0760                 1.9992                 1.4685
 Frc consts  --      1.5936                 1.5604                 1.1632
 IR Inten    --     12.3296                16.9189                15.6175

                     28                     29                     30
                      A                      A                      A
 Frequencies --   1181.1089              1200.5330              1224.0443
 Red. masses --      1.4609                 2.0129                 1.7237
 Frc consts  --      1.2008                 1.7093                 1.5217
 IR Inten    --      1.4214                12.9963                31.4768

                     31                     32                     33
                      A                      A                      A
 Frequencies --   1272.2497              1294.8632              1343.7108
 Red. masses --      1.5173                 2.4165                 1.3433
 Frc consts  --      1.4470                 2.3872                 1.4290
 IR Inten    --      9.2777                23.0124                 4.4818

                     34                     35                     36
                      A                      A                      A
 Frequencies --   1384.1022              1410.0090              1413.9331
 Red. masses --      1.6939                 1.1179                 1.2173
 Frc consts  --      1.9120                 1.3094                 1.4339
 IR Inten    --      0.6533                16.0894                10.4413

                     37                     38                     39
                      A                      A                      A
 Frequencies --   1431.1239              1496.8692              1497.6062
 Red. masses --      1.1203                 1.0466                 1.0493
 Frc consts  --      1.3519                 1.3817                 1.3866
 IR Inten    --      2.7404                 5.2686                 4.8211

                     40                     41                     42
                      A                      A                      A
 Frequencies --   1527.7627              1896.6300              3013.3467
 Red. masses --      1.1025                12.6839                 1.0569
 Frc consts  --      1.5161                26.8823                 5.6544
 IR Inten    --      1.7463               278.9977                75.0162

                     43                     44                     45
                      A                      A                      A
 Frequencies --   3030.4837              3048.9687              3052.3151
 Red. masses --      1.0355                 1.0586                 1.0948
 Frc consts  --      5.6028                 5.7981                 6.0096
 IR Inten    --     17.9469                 3.6045                 5.9047

                     46                     47                     48
                      A                      A                      A
 Frequencies --   3057.1659              3068.2760              3097.9165
 Red. masses --      1.0619                 1.0987                 1.1011
 Frc consts  --      5.8478                 6.0943                 6.2259
 IR Inten    --      3.7356                42.7703                22.6339

                     49                     50                     51
                      A                      A                      A
 Frequencies --   3103.3820              3109.2527              3119.6125
 Red. masses --      1.1013                 1.1050                 1.1027
 Frc consts  --      6.2495                 6.2939                 6.3226
 IR Inten    --     28.6635                 9.6284                 6.0187

 - Thermochemistry -
 -------------------
 Temperature   298.150 Kelvin.  Pressure   1.00000 Atm.
 Atom     1 has atomic number  6 and mass  12.00000

 Molecular mass:   126.06808 amu.
 Principal axes and moments of inertia in atomic units:
                           1         2         3
     Eigenvalues --   578.646351519.698111770.72602
           X            0.99940   0.03444  -0.00327
           Y           -0.03427   0.99848   0.04315
           Z            0.00475  -0.04301   0.99906
 This molecule is an asymmetric top.
 Rotational symmetry number  1.
 Warning -- assumption of classical behavior for rotation
           may cause significant error
 Rotational temperatures (Kelvin)      0.14968     0.05699     0.04891
 Rotational constants (GHZ):           3.11890     1.18757     1.01921
 Zero-point vibrational energy     412661.8 (Joules/Mol)
                                   98.62854 (Kcal/Mol)
 Warning -- explicit consideration of  11 degrees of freedom as
           vibrations may cause significant error
 Vibrational temperatures:     68.92    71.88   309.10   331.43   382.27
          (Kelvin)            466.81   548.76   591.40   627.54   678.94
                              769.05   927.04  1030.50  1067.54  1205.36
                             1288.24  1312.20  1338.21  1353.71  1420.23
                             1474.87  1518.22  1583.59  1596.35  1642.27
                             1655.99  1668.25  1699.35  1727.30  1761.12
                             1830.48  1863.02  1933.30  1991.41  2028.69
                             2034.33  2059.07  2153.66  2154.72  2198.11
                             2728.82  4335.53  4360.18  4386.78  4391.60
                             4398.57  4414.56  4457.21  4465.07  4473.52
                             4488.42

 Zero-point correction=                           0.157175 (Hartree/Particle)
 Thermal correction to Energy=                    0.165886
 Thermal correction to Enthalpy=                  0.166830
 Thermal correction to Gibbs Free Energy=         0.122964
 Sum of electronic and zero-point Energies=           -423.020382
 Sum of electronic and thermal Energies=              -423.011670
 Sum of electronic and thermal Enthalpies=            -423.010726
 Sum of electronic and thermal Free Energies=         -423.054592

                     E (Thermal)             CV                S
                      KCal/Mol        Cal/Mol-Kelvin    Cal/Mol-Kelvin
 Total                  104.095             32.737             92.324
 Electronic               0.000              0.000              0.000
 Translational            0.889              2.981             40.409
 Rotational               0.889              2.981             28.834
 Vibrational            102.317             26.775             23.082
 Vibration     1          0.595              1.978              4.902
 Vibration     2          0.595              1.978              4.819
 Vibration     3          0.645              1.818              2.002
 Vibration     4          0.652              1.795              1.876
 Vibration     5          0.672              1.736              1.624
 Vibration     6          0.709              1.627              1.288
 Vibration     7          0.751              1.510              1.034
 Vibration     8          0.775              1.446              0.923
 Vibration     9          0.797              1.391              0.839
 Vibration    10          0.829              1.312              0.732
 Vibration    11          0.890              1.174              0.577

 Optimization completed.
    -- Stationary point found.
 Normal termination of Gaussian 09 at Tue Jan 28 04:43:35 2020.
