 Gaussian 09, Revision D.01,
 Gaussian 09:  ES64L-G09RevD.01 24-Apr-2013

 -----------------------------
 # b3lyp 6-31G(2df,p) opt Freq
 -----------------------------

 -----
 titel
 -----
 Symbolic Z-matrix:
 Charge =  0 Multiplicity = 1

 SCF Done:  E(RB3LYP) =  -423.161760907     A.U. after   14 cycles
 Optimization completed.
    -- Stationary point found.
 Normal termination of Gaussian 09 at Tue Jan 28 02:55:06 2020.

 ----------------------------------------------------------------------
 #N Geom=AllCheck Guess=TCheck SCRF=Check GenChk RB3LYP/6-31G(2df,p) Fr
 eq
 ----------------------------------------------------------------------

 Structure from the checkpoint file:  "/scratch/puck/g09_fcd25ce8-2758-4f6d-b541-723110984ea9/Gau-29316.chk"
 -----
 titel
 -----
 Charge =  0 Multiplicity = 1

                         Standard orientation:
 ---------------------------------------------------------------------
 Center     Atomic      Atomic             Coordinates (Angstroms)
 Number     Number       Type             X           Y           Z
 ---------------------------------------------------------------------
      1          8           0        1.651078    1.267793   -0.604613
      2          6           0        1.581167    0.290263    0.401427
      3          6           0        1.690472   -1.202830   -0.115303
      4          6           0        0.187806   -1.250061    0.028118
      5          6           0       -0.957138   -1.480150   -0.605661
      6          6           0       -2.023983   -0.530591   -0.071123
      7          6           0       -1.208629    0.628229    0.576555
      8          8           0       -1.071237    1.637744   -0.428800
      9          6           0        0.130982   -0.060572    0.947767
     10          1           0        0.840925    1.196965   -1.129355
     11          1           0        2.315015    0.570109    1.161695
     12          1           0        2.119099   -1.337705   -1.111387
     13          1           0        2.227287   -1.835719    0.599422
     14          1           0       -1.130163   -2.157869   -1.433378
     15          1           0       -2.667155   -0.128477   -0.860865
     16          1           0       -2.681986   -1.006243    0.668347
     17          1           0       -1.723401    1.051231    1.449101
     18          1           0       -0.519143    2.338611   -0.063515
     19          1           0        0.176735   -0.300931    2.016557
 ---------------------------------------------------------------------

 SCF Done:  E(RB3LYP) =  -423.161760907     A.U. after    1 cycles

 The electronic state is 1-A.
 Alpha  occ. eigenvalues --  -19.14670 -19.13306 -10.24086 -10.23973 -10.18725
 Alpha  occ. eigenvalues --  -10.18506 -10.18207 -10.18104 -10.17772  -1.03187
 Alpha  occ. eigenvalues --   -1.01314  -0.86104  -0.77462  -0.70335  -0.66115
 Alpha  occ. eigenvalues --   -0.62041  -0.57716  -0.53525  -0.50516  -0.48541
 Alpha  occ. eigenvalues --   -0.47479  -0.44762  -0.41583  -0.41263  -0.39755
 Alpha  occ. eigenvalues --   -0.38675  -0.37697  -0.35582  -0.32944  -0.32203
 Alpha  occ. eigenvalues --   -0.29942  -0.27933  -0.25136  -0.23358
 Alpha virt. eigenvalues --    0.01524   0.06560   0.10722   0.11548   0.12962
 Alpha virt. eigenvalues --    0.13347   0.13981   0.15555   0.16037   0.17318
 Alpha virt. eigenvalues --    0.18060   0.19104   0.19295   0.20553   0.21267

 Mulliken charges:
               1
     1  O   -0.438865
     2  C    0.105806
     3  C   -0.350277
     4  C    0.294182
     5  C   -0.234705
     6  C   -0.246568
     7  C    0.074810
     8  O   -0.437992
     9  C   -0.120267
    10  H    0.288081
    11  H    0.086951
    12  H    0.115521
    13  H    0.109102
    14  H    0.094548
    15  H    0.118840
    16  H    0.105753
    17  H    0.068666
    18  H    0.291324
    19  H    0.075090
 Sum of Mulliken charges =   0.00000

 Dipole moment (field-independent basis, Debye):
    X=             -0.5227    Y=             -0.5370    Z=              1.3005  Tot=              1.5010
 Quadrupole moment (field-independent basis, Debye-Ang):
   XX=            -55.1346   YY=            -53.3483   ZZ=            -51.3664
   XY=             -1.7053   XZ=              0.8354   YZ=              2.6775

  Exact polarizability:  92.640   0.523  71.539   4.938   4.972  68.113
 Approx polarizability: 134.662   3.762 104.061  13.124   5.510 109.243

                      1                      2                      3
                      A                      A                      A
 Frequencies --     97.1645               197.5947               233.1763
 Red. masses --      4.3174                 2.0212                 2.3337
 Frc consts  --      0.0240                 0.0465                 0.0748
 IR Inten    --      1.4844                43.1530                58.3877

                      4                      5                      6
                      A                      A                      A
 Frequencies --    246.8919               328.3558               341.0978
 Red. masses --      1.8297                 2.9631                 5.5003
 Frc consts  --      0.0657                 0.1882                 0.3770
 IR Inten    --    155.4065                 6.8093                37.3212

                      7                      8                      9
                      A                      A                      A
 Frequencies --    405.5880               412.3976               542.2190
 Red. masses --      2.5376                 2.2031                 3.3315
 Frc consts  --      0.2459                 0.2208                 0.5771
 IR Inten    --      2.9588                 2.2783                10.7854

                     10                     11                     12
                      A                      A                      A
 Frequencies --    649.6957               679.2525               734.0329
 Red. masses --      1.4173                 2.4390                 2.7449
 Frc consts  --      0.3525                 0.6630                 0.8714
 IR Inten    --     11.2205                 2.1525                 3.7776

                     13                     14                     15
                      A                      A                      A
 Frequencies --    746.4697               798.1215               825.3975
 Red. masses --      3.6283                 2.2546                 1.8976
 Frc consts  --      1.1912                 0.8462                 0.7617
 IR Inten    --      4.9878                12.5166                 1.3364

                     16                     17                     18
                      A                      A                      A
 Frequencies --    839.9623               870.8981               925.3069
 Red. masses --      3.7149                 2.1455                 2.4637
 Frc consts  --      1.5442                 0.9588                 1.2428
 IR Inten    --      1.9336                 9.0466                20.5045

                     19                     20                     21
                      A                      A                      A
 Frequencies --    934.2885               964.4175               979.7159
 Red. masses --      2.3576                 2.6228                 2.0604
 Frc consts  --      1.2125                 1.4373                 1.1652
 IR Inten    --      5.3035                21.1378                 4.5085

                     22                     23                     24
                      A                      A                      A
 Frequencies --    990.2524              1052.7751              1081.6494
 Red. masses --      2.1518                 1.7923                 1.8976
 Frc consts  --      1.2432                 1.1704                 1.3080
 IR Inten    --      3.9768                11.3104                29.4655

                     25                     26                     27
                      A                      A                      A
 Frequencies --   1121.2957              1135.7588              1170.2975
 Red. masses --      2.3577                 1.6214                 1.6231
 Frc consts  --      1.7466                 1.2323                 1.3097
 IR Inten    --      1.8686                12.6355                82.2903

                     28                     29                     30
                      A                      A                      A
 Frequencies --   1191.6815              1213.3613              1220.1851
 Red. masses --      1.2416                 1.3957                 1.4577
 Frc consts  --      1.0388                 1.2106                 1.2787
 IR Inten    --      0.6477                 9.9768                17.4753

                     31                     32                     33
                      A                      A                      A
 Frequencies --   1251.7087              1276.7555              1295.8291
 Red. masses --      1.5449                 1.3225                 1.4821
 Frc consts  --      1.4261                 1.2702                 1.4663
 IR Inten    --      3.1408                 0.5121                43.8161

                     34                     35                     36
                      A                      A                      A
 Frequencies --   1310.3311              1342.2010              1355.6057
 Red. masses --      1.4671                 1.5163                 1.5159
 Frc consts  --      1.4841                 1.6094                 1.6413
 IR Inten    --      8.0972                 2.6120                10.4845

                     37                     38                     39
                      A                      A                      A
 Frequencies --   1410.6856              1453.4505              1466.4951
 Red. masses --      1.3397                 1.1652                 1.1488
 Frc consts  --      1.5708                 1.4503                 1.4556
 IR Inten    --      6.2837                58.6733                31.3855

                     40                     41                     42
                      A                      A                      A
 Frequencies --   1473.1195              1734.0881              3007.1618
 Red. masses --      1.0921                 8.3709                 1.0803
 Frc consts  --      1.3963                14.8307                 5.7560
 IR Inten    --      3.3952                 3.1672                20.9707

                     43                     44                     45
                      A                      A                      A
 Frequencies --   3023.1851              3037.0145              3045.2761
 Red. masses --      1.0716                 1.0835                 1.0620
 Frc consts  --      5.7706                 5.8880                 5.8028
 IR Inten    --     51.0179                64.4728                23.1443

                     46                     47                     48
                      A                      A                      A
 Frequencies --   3077.2032              3078.0752              3109.2685
 Red. masses --      1.0875                 1.0954                 1.1043
 Frc consts  --      6.0671                 6.1148                 6.2899
 IR Inten    --     72.1559                14.1326                18.2674

                     49                     50                     51
                      A                      A                      A
 Frequencies --   3200.5295              3728.4106              3801.8816
 Red. masses --      1.0949                 1.0655                 1.0660
 Frc consts  --      6.6078                 8.7269                 9.0780
 IR Inten    --     11.5819                59.8163                32.0511

 - Thermochemistry -
 -------------------
 Temperature   298.150 Kelvin.  Pressure   1.00000 Atm.
 Atom     1 has atomic number  8 and mass  15.99491

 Molecular mass:   126.06808 amu.
 Principal axes and moments of inertia in atomic units:
                           1         2         3
     Eigenvalues --   726.235981010.707181424.33147
           X            0.99962  -0.02740   0.00338
           Y            0.02730   0.99930   0.02539
           Z           -0.00408  -0.02529   0.99967
 This molecule is an asymmetric top.
 Rotational symmetry number  1.
 Warning -- assumption of classical behavior for rotation
           may cause significant error
 Rotational temperatures (Kelvin)      0.11926     0.08570     0.06081
 Rotational constants (GHZ):           2.48506     1.78562     1.26708
 Zero-point vibrational energy     421130.8 (Joules/Mol)
                                  100.65268 (Kcal/Mol)
 Warning -- explicit consideration of   9 degrees of freedom as
           vibrations may cause significant error
 Vibrational temperatures:    139.80   284.29   335.49   355.22   472.43
          (Kelvin)            490.76   583.55   593.35   780.13   934.77
                              977.29  1056.11  1074.00  1148.32  1187.56
                             1208.52  1253.03  1331.31  1344.23  1387.58
                             1409.59  1424.75  1514.71  1556.25  1613.29
                             1634.10  1683.79  1714.56  1745.75  1755.57
                             1800.93  1836.96  1864.41  1885.27  1931.13
                             1950.41  2029.66  2091.19  2109.96  2119.49
                             2494.96  4326.63  4349.68  4369.58  4381.47
                             4427.40  4428.66  4473.54  4604.84  5364.34
                             5470.05

 Zero-point correction=                           0.160400 (Hartree/Particle)
 Thermal correction to Energy=                    0.168299
 Thermal correction to Enthalpy=                  0.169244
 Thermal correction to Gibbs Free Energy=         0.128300
 Sum of electronic and zero-point Energies=           -423.001361
 Sum of electronic and thermal Energies=              -422.993462
 Sum of electronic and thermal Enthalpies=            -422.992517
 Sum of electronic and thermal Free Energies=         -423.033461

                     E (Thermal)             CV                S
                      KCal/Mol        Cal/Mol-Kelvin    Cal/Mol-Kelvin
 Total                  105.609             31.634             86.173
 Electronic               0.000              0.000              0.000
 Translational            0.889              2.981             40.409
 Rotational               0.889              2.981             28.438
 Vibrational            103.832             25.672             17.326
 Vibration     1          0.603              1.951              3.510
 Vibration     2          0.637              1.843              2.155
 Vibration     3          0.654              1.790              1.854
 Vibration     4          0.661              1.768              1.753
 Vibration     5          0.712              1.619              1.268
 Vibration     6          0.721              1.593              1.207
 Vibration     7          0.771              1.458              0.942
 Vibration     8          0.776              1.443              0.918
 Vibration     9          0.897              1.157              0.561

 Optimization completed.
    -- Stationary point found.
 Normal termination of Gaussian 09 at Tue Jan 28 03:43:51 2020.
