 Gaussian 09, Revision D.01,
 Gaussian 09:  ES64L-G09RevD.01 24-Apr-2013

 -----------------------------
 # b3lyp 6-31G(2df,p) opt Freq
 -----------------------------

 -----
 titel
 -----
 Symbolic Z-matrix:
 Charge =  0 Multiplicity = 1

 SCF Done:  E(RB3LYP) =  -423.149902568     A.U. after   13 cycles
 Optimization completed.
    -- Stationary point found.
 Normal termination of Gaussian 09 at Mon Jan 27 17:57:01 2020.

 ----------------------------------------------------------------------
 #N Geom=AllCheck Guess=TCheck SCRF=Check GenChk RB3LYP/6-31G(2df,p) Fr
 eq
 ----------------------------------------------------------------------

 Structure from the checkpoint file:  "/scratch/puck/g09_043c000f-b09c-47c6-8769-27c0b0ff1a14/Gau-113802.chk"
 -----
 titel
 -----
 Charge =  0 Multiplicity = 1

                         Standard orientation:
 ---------------------------------------------------------------------
 Center     Atomic      Atomic             Coordinates (Angstroms)
 Number     Number       Type             X           Y           Z
 ---------------------------------------------------------------------
      1          6           0       -2.502034   -0.297667    0.354619
      2          6           0       -1.036311   -0.224810    0.038299
      3          6           0       -0.159558   -1.458160   -0.316984
      4          6           0        0.972930   -0.467543   -0.027084
      5          8           0        2.323497   -0.755621    0.068991
      6          6           0        0.626269    0.867292   -0.808848
      7          6           0        0.591140    1.623134    0.539292
      8          6           0        0.087167    0.268474    1.055925
      9          8           0       -0.762613    0.647395   -1.080702
     10          1           0       -2.685370   -0.985420    1.185105
     11          1           0       -2.887079    0.689375    0.627854
     12          1           0       -3.062312   -0.652501   -0.516598
     13          1           0       -0.209019   -2.235886    0.452911
     14          1           0       -0.280078   -1.884434   -1.316351
     15          1           0        2.444084   -1.450297    0.724998
     16          1           0        1.166095    1.203615   -1.692510
     17          1           0        1.591455    1.837002    0.923238
     18          1           0       -0.050176    2.506007    0.591846
     19          1           0        0.007715   -0.025968    2.101881
 ---------------------------------------------------------------------

 SCF Done:  E(RB3LYP) =  -423.149902568     A.U. after    1 cycles

 The electronic state is 1-A.
 Alpha  occ. eigenvalues --  -19.15145 -19.13186 -10.23965 -10.23946 -10.22902
 Alpha  occ. eigenvalues --  -10.18600 -10.17809 -10.17797 -10.17783  -1.05516
 Alpha  occ. eigenvalues --   -1.03002  -0.83799  -0.77685  -0.72111  -0.65078
 Alpha  occ. eigenvalues --   -0.61213  -0.56670  -0.54408  -0.50983  -0.47309
 Alpha  occ. eigenvalues --   -0.46587  -0.44755  -0.43461  -0.40474  -0.39604
 Alpha  occ. eigenvalues --   -0.36900  -0.36470  -0.35790  -0.34422  -0.33134
 Alpha  occ. eigenvalues --   -0.31665  -0.28356  -0.25046  -0.23649
 Alpha virt. eigenvalues --    0.07291   0.09262   0.10976   0.11979   0.13950
 Alpha virt. eigenvalues --    0.14313   0.14541   0.15842   0.16895   0.16998
 Alpha virt. eigenvalues --    0.17896   0.19131   0.19831   0.21305   0.21867

 Mulliken charges:
               1
     1  C   -0.494389
     2  C    0.413127
     3  C   -0.344103
     4  C    0.387174
     5  O   -0.481949
     6  C    0.051997
     7  C   -0.253218
     8  C   -0.179957
     9  O   -0.300229
    10  H    0.116561
    11  H    0.127720
    12  H    0.130131
    13  H    0.087409
    14  H    0.101214
    15  H    0.283920
    16  H    0.082052
    17  H    0.109423
    18  H    0.096838
    19  H    0.066278
 Sum of Mulliken charges =   0.00000

 Dipole moment (field-independent basis, Debye):
    X=             -0.0126    Y=             -1.2964    Z=              1.9273  Tot=              2.3228
 Quadrupole moment (field-independent basis, Debye-Ang):
   XX=            -54.3664   YY=            -50.5061   ZZ=            -52.8715
   XY=             -0.1884   XZ=              0.4695   YZ=             -1.4511

  Exact polarizability:  80.212   2.463  76.436  -0.517   0.109  67.410
 Approx polarizability: 111.830   1.119 110.163   0.227  -2.490 106.937

                      1                      2                      3
                      A                      A                      A
 Frequencies --    198.3463               232.2632               239.9675
 Red. masses --      1.0390                 2.4445                 2.9546
 Frc consts  --      0.0241                 0.0777                 0.1002
 IR Inten    --      0.2123                 5.2526                 0.5836

                      4                      5                      6
                      A                      A                      A
 Frequencies --    269.6044               332.7454               366.0844
 Red. masses --      1.8732                 1.6241                 2.8268
 Frc consts  --      0.0802                 0.1059                 0.2232
 IR Inten    --     13.3125                77.3132                 9.9181

                      7                      8                      9
                      A                      A                      A
 Frequencies --    437.6123               490.6418               537.9170
 Red. masses --      1.8884                 2.2446                 4.0443
 Frc consts  --      0.2131                 0.3184                 0.6895
 IR Inten    --      0.6884                 5.9653                 2.7578

                     10                     11                     12
                      A                      A                      A
 Frequencies --    587.5122               606.6882               667.9518
 Red. masses --      5.2511                 3.7785                 3.0414
 Frc consts  --      1.0679                 0.8194                 0.7995
 IR Inten    --      6.3572                 0.3015                 0.3095

                     13                     14                     15
                      A                      A                      A
 Frequencies --    723.4907               823.1859               851.9863
 Red. masses --      4.0625                 2.7093                 2.8220
 Frc consts  --      1.2529                 1.0817                 1.2069
 IR Inten    --      2.0417                 1.4266                 2.7989

                     16                     17                     18
                      A                      A                      A
 Frequencies --    882.3498               905.2496               918.6078
 Red. masses --      2.4724                 2.5229                 1.8095
 Frc consts  --      1.1341                 1.2181                 0.8996
 IR Inten    --     20.8536                 1.3795                 1.0771

                     19                     20                     21
                      A                      A                      A
 Frequencies --    968.3327               987.6563               994.3707
 Red. masses --      1.9805                 1.9240                 1.6941
 Frc consts  --      1.0942                 1.1058                 0.9869
 IR Inten    --     26.3727                19.5747                 7.4696

                     22                     23                     24
                      A                      A                      A
 Frequencies --   1023.2322              1040.1396              1083.2388
 Red. masses --      2.4063                 1.6766                 1.4849
 Frc consts  --      1.4844                 1.0687                 1.0266
 IR Inten    --      2.1326                 5.8167                27.4572

                     25                     26                     27
                      A                      A                      A
 Frequencies --   1100.4187              1125.6576              1154.9246
 Red. masses --      2.6499                 1.4805                 1.5987
 Frc consts  --      1.8906                 1.1053                 1.2564
 IR Inten    --     49.0138                 5.4183                 3.7691

                     28                     29                     30
                      A                      A                      A
 Frequencies --   1158.3763              1183.7018              1193.8592
 Red. masses --      1.6843                 2.2613                 1.7382
 Frc consts  --      1.3316                 1.8668                 1.4597
 IR Inten    --     26.5147                39.7347                 2.9863

                     31                     32                     33
                      A                      A                      A
 Frequencies --   1234.6840              1252.3969              1294.1139
 Red. masses --      1.6863                 1.7715                 2.1939
 Frc consts  --      1.5146                 1.6371                 2.1648
 IR Inten    --     10.1301                 6.2644               153.1484

                     34                     35                     36
                      A                      A                      A
 Frequencies --   1321.3193              1339.9505              1384.6927
 Red. masses --      1.9485                 2.1925                 1.8657
 Frc consts  --      2.0043                 2.3193                 2.1076
 IR Inten    --     66.8376                 0.7481                 4.7265

                     37                     38                     39
                      A                      A                      A
 Frequencies --   1419.9254              1475.7129              1480.5495
 Red. masses --      1.6039                 1.1308                 1.0497
 Frc consts  --      1.9052                 1.4510                 1.3556
 IR Inten    --      8.4444                 1.9900                 3.3306

                     40                     41                     42
                      A                      A                      A
 Frequencies --   1484.8709              1492.6319              3038.6046
 Red. masses --      1.2541                 1.0552                 1.0372
 Frc consts  --      1.6291                 1.3852                 5.6422
 IR Inten    --      1.8817                 3.2226                18.7015

                     43                     44                     45
                      A                      A                      A
 Frequencies --   3043.7096              3064.3808              3108.2119
 Red. masses --      1.0549                 1.0559                 1.1026
 Frc consts  --      5.7577                 5.8420                 6.2763
 IR Inten    --     30.1816                30.8109                 2.3917

                     46                     47                     48
                      A                      A                      A
 Frequencies --   3110.1700              3116.9917              3124.2289
 Red. masses --      1.1063                 1.1015                 1.0905
 Frc consts  --      6.3053                 6.3055                 6.2716
 IR Inten    --     33.3600                13.4463                37.3997

                     49                     50                     51
                      A                      A                      A
 Frequencies --   3128.3020              3138.1613              3806.1205
 Red. masses --      1.1091                 1.0919                 1.0659
 Frc consts  --      6.3952                 6.3357                 9.0977
 IR Inten    --     21.5155                33.6509                25.1422

 - Thermochemistry -
 -------------------
 Temperature   298.150 Kelvin.  Pressure   1.00000 Atm.
 Atom     1 has atomic number  6 and mass  12.00000

 Molecular mass:   126.06808 amu.
 Principal axes and moments of inertia in atomic units:
                           1         2         3
     Eigenvalues --   607.267821066.922131251.23872
           X            0.99938   0.03365  -0.01041
           Y           -0.03344   0.99924   0.01980
           Z            0.01106  -0.01944   0.99975
 This molecule is an asymmetric top.
 Rotational symmetry number  1.
 Warning -- assumption of classical behavior for rotation
           may cause significant error
 Rotational temperatures (Kelvin)      0.14263     0.08118     0.06922
 Rotational constants (GHZ):           2.97190     1.69154     1.44236
 Zero-point vibrational energy     418369.0 (Joules/Mol)
                                   99.99260 (Kcal/Mol)
 Warning -- explicit consideration of  11 degrees of freedom as
           vibrations may cause significant error
 Vibrational temperatures:    285.38   334.17   345.26   387.90   478.75
          (Kelvin)            526.71   629.63   705.92   773.94   845.30
                              872.89   961.03  1040.94  1184.38  1225.82
                             1269.50  1302.45  1321.67  1393.21  1421.02
                             1430.68  1472.20  1496.53  1558.54  1583.26
                             1619.57  1661.68  1666.64  1703.08  1717.69
                             1776.43  1801.92  1861.94  1901.08  1927.89
                             1992.26  2042.95  2123.22  2130.18  2136.40
                             2147.56  4371.87  4379.21  4408.95  4472.02
                             4474.84  4484.65  4495.06  4500.92  4515.11
                             5476.15

 Zero-point correction=                           0.159348 (Hartree/Particle)
 Thermal correction to Energy=                    0.166922
 Thermal correction to Enthalpy=                  0.167866
 Thermal correction to Gibbs Free Energy=         0.128045
 Sum of electronic and zero-point Energies=           -422.990554
 Sum of electronic and thermal Energies=              -422.982980
 Sum of electronic and thermal Enthalpies=            -422.982036
 Sum of electronic and thermal Free Energies=         -423.021858

                     E (Thermal)             CV                S
                      KCal/Mol        Cal/Mol-Kelvin    Cal/Mol-Kelvin
 Total                  104.745             31.416             83.811
 Electronic               0.000              0.000              0.000
 Translational            0.889              2.981             40.409
 Rotational               0.889              2.981             28.185
 Vibrational            102.968             25.454             15.218
 Vibration     1          0.637              1.842              2.148
 Vibration     2          0.653              1.792              1.861
 Vibration     3          0.657              1.779              1.803
 Vibration     4          0.674              1.729              1.599
 Vibration     5          0.715              1.610              1.247
 Vibration     6          0.739              1.542              1.096
 Vibration     7          0.798              1.388              0.834
 Vibration     8          0.846              1.271              0.682
 Vibration     9          0.893              1.166              0.570
 Vibration    10          0.945              1.058              0.472
 Vibration    11          0.965              1.018              0.438

 Normal termination of Gaussian 09 at Mon Jan 27 18:40:50 2020.
