 Gaussian 09, Revision D.01,
 Gaussian 09:  ES64L-G09RevD.01 24-Apr-2013

 -----------------------------
 # b3lyp 6-31G(2df,p) opt Freq
 -----------------------------

 -----
 titel
 -----
 Symbolic Z-matrix:
 Charge =  0 Multiplicity = 1

 SCF Done:  E(RB3LYP) =  -423.176445987     A.U. after   14 cycles
 Optimization completed.
    -- Stationary point found.
 Normal termination of Gaussian 09 at Mon Jan 27 22:13:55 2020.

 ----------------------------------------------------------------------
 #N Geom=AllCheck Guess=TCheck SCRF=Check GenChk RB3LYP/6-31G(2df,p) Fr
 eq
 ----------------------------------------------------------------------

 Structure from the checkpoint file:  "/scratch/puck/g09_3cd2847e-71b2-42e3-8d6d-2c84b62a2ddb/Gau-28317.chk"
 -----
 titel
 -----
 Charge =  0 Multiplicity = 1

                         Standard orientation:
 ---------------------------------------------------------------------
 Center     Atomic      Atomic             Coordinates (Angstroms)
 Number     Number       Type             X           Y           Z
 ---------------------------------------------------------------------
      1          6           0        2.405026   -0.977475    0.683083
      2          6           0        0.947683   -0.568219    0.627259
      3          6           0        0.156708   -0.957890   -0.630586
      4          6           0       -1.288782   -0.709916   -0.343735
      5          8           0       -2.291269   -1.364125   -0.413134
      6          6           0       -1.011303    0.794980   -0.024996
      7          8           0       -1.450454    1.412916    1.153391
      8          6           0        0.489638    0.524246   -0.280645
      9          6           0        1.378555    1.504791   -0.991177
     10          1           0        2.881381   -0.934607   -0.300302
     11          1           0        2.967886   -0.324440    1.358644
     12          1           0        2.500924   -2.003407    1.051893
     13          1           0        0.444747   -0.686402    1.587229
     14          1           0        0.586712   -1.620606   -1.371590
     15          1           0       -1.423421    1.388103   -0.851456
     16          1           0       -1.310101    0.811908    1.891772
     17          1           0        2.360580    1.085696   -1.224400
     18          1           0        0.923435    1.837207   -1.930389
     19          1           0        1.536488    2.393119   -0.368665
 ---------------------------------------------------------------------

 SCF Done:  E(RB3LYP) =  -423.176445987     A.U. after    1 cycles

 The electronic state is 1-A.
 Alpha  occ. eigenvalues --  -19.14948 -19.13071 -10.26476 -10.24139 -10.21912
 Alpha  occ. eigenvalues --  -10.21498 -10.20480 -10.19586 -10.19263  -1.04448
 Alpha  occ. eigenvalues --   -1.02803  -0.91026  -0.76063  -0.73722  -0.68306
 Alpha  occ. eigenvalues --   -0.62301  -0.56828  -0.55571  -0.49155  -0.47976
 Alpha  occ. eigenvalues --   -0.46369  -0.44059  -0.43218  -0.41873  -0.40513
 Alpha  occ. eigenvalues --   -0.40404  -0.39367  -0.38397  -0.36969  -0.35770
 Alpha  occ. eigenvalues --   -0.30757  -0.28770  -0.27440  -0.23149
 Alpha virt. eigenvalues --   -0.01796   0.06292   0.08282   0.09432   0.12194
 Alpha virt. eigenvalues --    0.13196   0.13602   0.14811   0.16214   0.16515
 Alpha virt. eigenvalues --    0.17097   0.17567   0.18253   0.19896   0.22204

 Mulliken charges:
               1
     1  C   -0.431711
     2  C   -0.062506
     3  C   -0.244586
     4  C    0.368889
     5  O   -0.320691
     6  C   -0.048504
     7  O   -0.424341
     8  C    0.310845
     9  C   -0.506510
    10  H    0.124842
    11  H    0.128361
    12  H    0.130959
    13  H    0.074861
    14  H    0.107646
    15  H    0.115204
    16  H    0.289756
    17  H    0.124995
    18  H    0.126544
    19  H    0.135947
 Sum of Mulliken charges =   0.00000

 Dipole moment (field-independent basis, Debye):
    X=              3.7710    Y=              0.4083    Z=              0.3017  Tot=              3.8050
 Quadrupole moment (field-independent basis, Debye-Ang):
   XX=            -60.0084   YY=            -57.4053   ZZ=            -48.9386
   XY=             -3.1684   XZ=             -0.8646   YZ=             -2.8696

  Exact polarizability:  87.849   1.456  76.091   2.072  -1.155  67.284
 Approx polarizability: 125.390   7.035 115.200   3.380   2.057 103.461

                      1                      2                      3
                      A                      A                      A
 Frequencies --     93.9162               153.1377               170.8304
 Red. masses --      4.8008                 1.4957                 1.6794
 Frc consts  --      0.0249                 0.0207                 0.0289
 IR Inten    --      1.3946                21.9328                 2.2268

                      4                      5                      6
                      A                      A                      A
 Frequencies --    175.7335               193.3699               234.8191
 Red. masses --      1.3293                 1.5845                 1.9317
 Frc consts  --      0.0242                 0.0349                 0.0628
 IR Inten    --     12.8117                 0.8433                 7.6482

                      7                      8                      9
                      A                      A                      A
 Frequencies --    252.4051               292.0836               297.6675
 Red. masses --      2.3409                 3.0833                 2.5036
 Frc consts  --      0.0879                 0.1550                 0.1307
 IR Inten    --     23.5762                20.2492                 1.2631

                     10                     11                     12
                      A                      A                      A
 Frequencies --    420.8019               516.5832               540.3555
 Red. masses --      2.9841                 4.0585                 3.8831
 Frc consts  --      0.3113                 0.6381                 0.6680
 IR Inten    --      2.8219                 4.4456                 0.7651

                     13                     14                     15
                      A                      A                      A
 Frequencies --    605.0180               664.6832               717.8821
 Red. masses --      4.6061                 3.6044                 4.4057
 Frc consts  --      0.9934                 0.9382                 1.3377
 IR Inten    --      5.8613                 2.2951                24.1668

                     16                     17                     18
                      A                      A                      A
 Frequencies --    753.2494               853.9966               913.0344
 Red. masses --      3.1155                 3.1579                 2.3502
 Frc consts  --      1.0415                 1.3570                 1.1543
 IR Inten    --     18.4948                11.4327                17.3273

                     19                     20                     21
                      A                      A                      A
 Frequencies --    943.9483               947.5551              1026.2758
 Red. masses --      1.8389                 1.4156                 1.4151
 Frc consts  --      0.9654                 0.7489                 0.8781
 IR Inten    --      8.2550                 7.0147                34.3358

                     22                     23                     24
                      A                      A                      A
 Frequencies --   1059.7775              1084.6184              1092.8530
 Red. masses --      1.9488                 1.9108                 1.9281
 Frc consts  --      1.2896                 1.3244                 1.3568
 IR Inten    --     48.7471                22.4347                 2.6755

                     25                     26                     27
                      A                      A                      A
 Frequencies --   1124.6424              1129.0933              1146.8740
 Red. masses --      2.3536                 1.9245                 1.6142
 Frc consts  --      1.7540                 1.4455                 1.2510
 IR Inten    --     26.8170                49.0471                31.5049

                     28                     29                     30
                      A                      A                      A
 Frequencies --   1183.8496              1219.5374              1251.8810
 Red. masses --      1.6912                 2.2917                 2.1992
 Frc consts  --      1.3965                 2.0081                 2.0307
 IR Inten    --     12.5512                 8.9164                 9.3090

                     31                     32                     33
                      A                      A                      A
 Frequencies --   1274.5146              1362.2875              1414.1338
 Red. masses --      1.6334                 1.5670                 1.2595
 Frc consts  --      1.5633                 1.7133                 1.4840
 IR Inten    --      2.1647                 4.8299                 9.4559

                     34                     35                     36
                      A                      A                      A
 Frequencies --   1420.5126              1425.3823              1438.5859
 Red. masses --      1.3098                 1.2726                 2.5329
 Frc consts  --      1.5572                 1.5234                 3.0885
 IR Inten    --     15.0994                30.4998                10.2738

                     37                     38                     39
                      A                      A                      A
 Frequencies --   1484.5590              1491.1494              1497.1323
 Red. masses --      1.0480                 1.0452                 1.0591
 Frc consts  --      1.3609                 1.3693                 1.3986
 IR Inten    --      4.8157                 2.5950                 4.6546

                     40                     41                     42
                      A                      A                      A
 Frequencies --   1508.7607              1880.8008              3031.1192
 Red. masses --      1.1075                12.5593                 1.0374
 Frc consts  --      1.4854                26.1759                 5.6159
 IR Inten    --      9.5523               357.7921                21.2820

                     43                     44                     45
                      A                      A                      A
 Frequencies --   3037.2869              3041.4015              3086.0468
 Red. masses --      1.0373                 1.0816                 1.0877
 Frc consts  --      5.6379                 5.8947                 6.1031
 IR Inten    --     29.7482                15.9752                11.4482

                     46                     47                     48
                      A                      A                      A
 Frequencies --   3089.2639              3100.9925              3111.4707
 Red. masses --      1.1004                 1.1011                 1.1001
 Frc consts  --      6.1873                 6.2387                 6.2748
 IR Inten    --     13.6703                17.2371                28.7692

                     49                     50                     51
                      A                      A                      A
 Frequencies --   3118.8283              3194.7122              3822.2234
 Red. masses --      1.0993                 1.0935                 1.0661
 Frc consts  --      6.2999                 6.5757                 9.1768
 IR Inten    --     24.4720                 5.3592                18.5210

 - Thermochemistry -
 -------------------
 Temperature   298.150 Kelvin.  Pressure   1.00000 Atm.
 Atom     1 has atomic number  6 and mass  12.00000

 Molecular mass:   126.06808 amu.
 Principal axes and moments of inertia in atomic units:
                           1         2         3
     Eigenvalues --   798.383781292.212091590.66665
           X            0.99938  -0.03513  -0.00200
           Y            0.03487   0.99638  -0.07747
           Z            0.00471   0.07736   0.99699
 This molecule is an asymmetric top.
 Rotational symmetry number  1.
 Warning -- assumption of classical behavior for rotation
           may cause significant error
 Rotational temperatures (Kelvin)      0.10849     0.06703     0.05445
 Rotational constants (GHZ):           2.26049     1.39663     1.13458
 Zero-point vibrational energy     412063.5 (Joules/Mol)
                                   98.48554 (Kcal/Mol)
 Warning -- explicit consideration of  13 degrees of freedom as
           vibrations may cause significant error
 Vibrational temperatures:    135.12   220.33   245.79   252.84   278.22
          (Kelvin)            337.85   363.15   420.24   428.28   605.44
                              743.25   777.45   870.48   956.33  1032.87
                             1083.76  1228.71  1313.65  1358.13  1363.32
                             1476.58  1524.78  1560.52  1572.37  1618.11
                             1624.51  1650.09  1703.29  1754.64  1801.18
                             1833.74  1960.03  2034.62  2043.80  2050.80
                             2069.80  2135.95  2145.43  2154.04  2170.77
                             2706.05  4361.10  4369.97  4375.89  4440.13
                             4444.76  4461.63  4476.71  4487.29  4596.47
                             5499.32

 Zero-point correction=                           0.156947 (Hartree/Particle)
 Thermal correction to Energy=                    0.166471
 Thermal correction to Enthalpy=                  0.167415
 Thermal correction to Gibbs Free Energy=         0.122937
 Sum of electronic and zero-point Energies=           -423.019499
 Sum of electronic and thermal Energies=              -423.009975
 Sum of electronic and thermal Enthalpies=            -423.009031
 Sum of electronic and thermal Free Energies=         -423.053509

                     E (Thermal)             CV                S
                      KCal/Mol        Cal/Mol-Kelvin    Cal/Mol-Kelvin
 Total                  104.462             35.081             93.611
 Electronic               0.000              0.000              0.000
 Translational            0.889              2.981             40.409
 Rotational               0.889              2.981             28.886
 Vibrational            102.684             29.119             24.317
 Vibration     1          0.603              1.954              3.577
 Vibration     2          0.619              1.899              2.633
 Vibration     3          0.626              1.878              2.426
 Vibration     4          0.628              1.872              2.373
 Vibration     5          0.635              1.849              2.195
 Vibration     6          0.655              1.788              1.842
 Vibration     7          0.664              1.759              1.714
 Vibration     8          0.687              1.688              1.462
 Vibration     9          0.691              1.678              1.430
 Vibration    10          0.783              1.425              0.889
 Vibration    11          0.872              1.213              0.618
 Vibration    12          0.895              1.161              0.565
 Vibration    13          0.964              1.021              0.441

 Optimization completed.
    -- Stationary point found.
 Normal termination of Gaussian 09 at Tue Jan 28 00:26:23 2020.
