 Gaussian 09, Revision D.01,
 Gaussian 09:  ES64L-G09RevD.01 24-Apr-2013

 -----------------------------
 # b3lyp 6-31G(2df,p) opt Freq
 -----------------------------

 -----
 titel
 -----
 Symbolic Z-matrix:
 Charge =  0 Multiplicity = 1

 SCF Done:  E(RB3LYP) =  -423.150243325     A.U. after   13 cycles
 Optimization completed.
    -- Stationary point found.
 Normal termination of Gaussian 09 at Tue Jan 28 00:05:20 2020.

 ----------------------------------------------------------------------
 #N Geom=AllCheck Guess=TCheck SCRF=Check GenChk RB3LYP/6-31G(2df,p) Fr
 eq
 ----------------------------------------------------------------------

 Structure from the checkpoint file:  "/scratch/puck/g09_56f62471-abbc-456c-ab4c-3de39653dab3/Gau-84032.chk"
 -----
 titel
 -----
 Charge =  0 Multiplicity = 1

                         Standard orientation:
 ---------------------------------------------------------------------
 Center     Atomic      Atomic             Coordinates (Angstroms)
 Number     Number       Type             X           Y           Z
 ---------------------------------------------------------------------
      1          8           0        2.867345   -0.371740    0.253547
      2          6           0        1.511774   -0.076338    0.433812
      3          6           0        0.756727    0.558559   -0.707537
      4          8           0       -0.269375    1.503882   -0.575746
      5          6           0       -1.148486    1.321407    0.522531
      6          6           0       -1.670587   -0.096646    0.663117
      7          6           0       -2.051374   -0.906925   -0.546040
      8          6           0       -0.789551   -1.245170    0.224954
      9          6           0        0.532297   -0.898493   -0.382674
     10          1           0        3.360719    0.454363    0.300421
     11          1           0        1.214774    0.150916    1.457211
     12          1           0        1.347823    0.790620   -1.587246
     13          1           0       -0.654445    1.624426    1.459883
     14          1           0       -1.972315    2.021670    0.348299
     15          1           0       -2.262020   -0.245806    1.562308
     16          1           0       -2.900245   -1.576965   -0.466578
     17          1           0       -1.925396   -0.444913   -1.519208
     18          1           0       -0.810610   -2.145221    0.833486
     19          1           0        0.973164   -1.624594   -1.059961
 ---------------------------------------------------------------------

 SCF Done:  E(RB3LYP) =  -423.150243326     A.U. after    1 cycles

 The electronic state is 1-A.
 Alpha  occ. eigenvalues --  -19.14546 -19.14236 -10.23184 -10.23072 -10.22915
 Alpha  occ. eigenvalues --  -10.19399 -10.19223 -10.18522 -10.18179  -1.04162
 Alpha  occ. eigenvalues --   -1.02359  -0.86799  -0.82925  -0.70912  -0.63946
 Alpha  occ. eigenvalues --   -0.60272  -0.58468  -0.53524  -0.52196  -0.50658
 Alpha  occ. eigenvalues --   -0.49106  -0.45767  -0.43627  -0.41692  -0.39357
 Alpha  occ. eigenvalues --   -0.38560  -0.37105  -0.35517  -0.34344  -0.30827
 Alpha  occ. eigenvalues --   -0.29422  -0.27522  -0.25525  -0.22086
 Alpha virt. eigenvalues --    0.07825   0.09013   0.10027   0.11947   0.12400
 Alpha virt. eigenvalues --    0.13395   0.14584   0.15554   0.16954   0.18001
 Alpha virt. eigenvalues --    0.18526   0.18921   0.19850   0.22150   0.23786

 Mulliken charges:
               1
     1  O   -0.428972
     2  C    0.021430
     3  C    0.059143
     4  O   -0.256549
     5  C   -0.108551
     6  C   -0.032331
     7  C   -0.294730
     8  C   -0.048859
     9  C   -0.098722
    10  H    0.286308
    11  H    0.089968
    12  H    0.104283
    13  H    0.093101
    14  H    0.111436
    15  H    0.085822
    16  H    0.108874
    17  H    0.125489
    18  H    0.086022
    19  H    0.096839
 Sum of Mulliken charges =   0.00000

 Dipole moment (field-independent basis, Debye):
    X=             -0.4867    Y=              0.4007    Z=              0.9195  Tot=              1.1149
 Quadrupole moment (field-independent basis, Debye-Ang):
   XX=            -50.8296   YY=            -54.5106   ZZ=            -51.8787
   XY=              5.1357   XZ=             -1.7474   YZ=              1.8652

  Exact polarizability:  86.145   1.408  71.196  -1.069   2.471  65.393
 Approx polarizability: 113.855  -1.109 107.399   0.206   1.730 102.056

                      1                      2                      3
                      A                      A                      A
 Frequencies --    151.1203               190.8827               268.2962
 Red. masses --      3.8134                 2.6645                 2.4646
 Frc consts  --      0.0513                 0.0572                 0.1045
 IR Inten    --      0.8033                 3.9625                39.4629

                      4                      5                      6
                      A                      A                      A
 Frequencies --    290.3306               319.9490               361.7517
 Red. masses --      2.9262                 1.6088                 2.5520
 Frc consts  --      0.1453                 0.0970                 0.1968
 IR Inten    --     21.3242                45.0499                 2.0749

                      7                      8                      9
                      A                      A                      A
 Frequencies --    373.8797               412.3709               549.8321
 Red. masses --      2.9828                 3.6835                 5.0789
 Frc consts  --      0.2457                 0.3690                 0.9047
 IR Inten    --      7.1632                 5.5269                 2.9744

                     10                     11                     12
                      A                      A                      A
 Frequencies --    599.0986               720.3495               767.9093
 Red. masses --      3.4764                 2.3130                 2.7840
 Frc consts  --      0.7352                 0.7071                 0.9672
 IR Inten    --      1.2134                12.6065                 2.3967

                     13                     14                     15
                      A                      A                      A
 Frequencies --    785.7941               844.3860               845.9705
 Red. masses --      3.4390                 1.6431                 1.8341
 Frc consts  --      1.2511                 0.6902                 0.7734
 IR Inten    --      1.8635                10.6792                 4.3847

                     16                     17                     18
                      A                      A                      A
 Frequencies --    911.7253               936.6655               962.3185
 Red. masses --      2.6949                 2.3965                 2.0347
 Frc consts  --      1.3198                 1.2388                 1.1102
 IR Inten    --     28.0135                 6.9837                 5.3959

                     19                     20                     21
                      A                      A                      A
 Frequencies --    980.5036              1042.4477              1065.1331
 Red. masses --      2.3630                 1.8866                 1.4036
 Frc consts  --      1.3385                 1.2079                 0.9382
 IR Inten    --      4.1565                 7.8161                11.4872

                     22                     23                     24
                      A                      A                      A
 Frequencies --   1074.5449              1094.0581              1101.4166
 Red. masses --      1.5222                 1.6980                 1.6831
 Frc consts  --      1.0355                 1.1975                 1.2030
 IR Inten    --     13.5435                44.6666                 1.9796

                     25                     26                     27
                      A                      A                      A
 Frequencies --   1105.8663              1132.1934              1141.2286
 Red. masses --      1.4037                 1.6068                 1.4950
 Frc consts  --      1.0114                 1.2135                 1.1472
 IR Inten    --      1.0880                26.1051                 8.3425

                     28                     29                     30
                      A                      A                      A
 Frequencies --   1158.3744              1178.1638              1211.1208
 Red. masses --      2.0273                 2.5626                 1.6708
 Frc consts  --      1.6028                 2.0958                 1.4439
 IR Inten    --     78.9346                18.4836                12.2382

                     31                     32                     33
                      A                      A                      A
 Frequencies --   1233.2453              1289.1888              1298.7181
 Red. masses --      1.9092                 1.1400                 1.2451
 Frc consts  --      1.7108                 1.1163                 1.2373
 IR Inten    --     39.1385                30.1399                16.3420

                     34                     35                     36
                      A                      A                      A
 Frequencies --   1331.6442              1345.9147              1383.8953
 Red. masses --      1.2832                 1.3454                 1.7923
 Frc consts  --      1.3406                 1.4360                 2.0224
 IR Inten    --      1.7033                 2.8763                 6.5075

                     37                     38                     39
                      A                      A                      A
 Frequencies --   1396.7777              1422.4947              1472.2790
 Red. masses --      1.9530                 1.3826                 2.3035
 Frc consts  --      2.2449                 1.6483                 2.9418
 IR Inten    --      3.3565                 3.6689                17.7386

                     40                     41                     42
                      A                      A                      A
 Frequencies --   1492.2849              1512.5813              2972.3549
 Red. masses --      1.4488                 1.0910                 1.0708
 Frc consts  --      1.9009                 1.4707                 5.5740
 IR Inten    --      3.5923                 0.7803                60.0604

                     43                     44                     45
                      A                      A                      A
 Frequencies --   3064.8187              3105.2233              3133.4178
 Red. masses --      1.0911                 1.0875                 1.0773
 Frc consts  --      6.0385                 6.1780                 6.2320
 IR Inten    --     38.5126                23.0022                12.7130

                     46                     47                     48
                      A                      A                      A
 Frequencies --   3134.6891              3146.4731              3148.8935
 Red. masses --      1.0636                 1.0875                 1.0902
 Frc consts  --      6.1577                 6.3436                 6.3693
 IR Inten    --     13.3746                22.2858                15.8111

                     49                     50                     51
                      A                      A                      A
 Frequencies --   3170.3212              3223.0872              3798.7605
 Red. masses --      1.0898                 1.1168                 1.0662
 Frc consts  --      6.4536                 6.8353                 9.0650
 IR Inten    --     18.6740                 9.4884                20.3098

 - Thermochemistry -
 -------------------
 Temperature   298.150 Kelvin.  Pressure   1.00000 Atm.
 Atom     1 has atomic number  8 and mass  15.99491

 Molecular mass:   126.06808 amu.
 Principal axes and moments of inertia in atomic units:
                           1         2         3
     Eigenvalues --   578.473181280.249131552.91226
           X            0.99978   0.02004  -0.00669
           Y           -0.01975   0.99899   0.04024
           Z            0.00749  -0.04010   0.99917
 This molecule is an asymmetric top.
 Rotational symmetry number  1.
 Warning -- assumption of classical behavior for rotation
           may cause significant error
 Rotational temperatures (Kelvin)      0.14973     0.06765     0.05578
 Rotational constants (GHZ):           3.11984     1.40968     1.16217
 Zero-point vibrational energy     422609.2 (Joules/Mol)
                                  101.00603 (Kcal/Mol)
 Warning -- explicit consideration of  10 degrees of freedom as
           vibrations may cause significant error
 Vibrational temperatures:    217.43   274.64   386.02   417.72   460.33
          (Kelvin)            520.48   537.93   593.31   791.08   861.97
                             1036.42  1104.85  1130.58  1214.88  1217.16
                             1311.77  1347.65  1384.56  1410.72  1499.85
                             1532.49  1546.03  1574.10  1584.69  1591.09
                             1628.97  1641.97  1666.64  1695.11  1742.53
                             1774.36  1854.85  1868.56  1915.94  1936.47
                             1991.11  2009.65  2046.65  2118.28  2147.06
                             2176.26  4276.55  4409.59  4467.72  4508.28
                             4510.11  4527.07  4530.55  4561.38  4637.30
                             5465.56

 Zero-point correction=                           0.160963 (Hartree/Particle)
 Thermal correction to Energy=                    0.168577
 Thermal correction to Enthalpy=                  0.169521
 Thermal correction to Gibbs Free Energy=         0.129265
 Sum of electronic and zero-point Energies=           -422.989280
 Sum of electronic and thermal Energies=              -422.981667
 Sum of electronic and thermal Enthalpies=            -422.980723
 Sum of electronic and thermal Free Energies=         -423.020978

                     E (Thermal)             CV                S
                      KCal/Mol        Cal/Mol-Kelvin    Cal/Mol-Kelvin
 Total                  105.783             30.784             84.725
 Electronic               0.000              0.000              0.000
 Translational            0.889              2.981             40.409
 Rotational               0.889              2.981             28.533
 Vibrational            104.006             24.823             15.784
 Vibration     1          0.619              1.901              2.658
 Vibration     2          0.634              1.852              2.219
 Vibration     3          0.673              1.731              1.607
 Vibration     4          0.686              1.692              1.472
 Vibration     5          0.706              1.635              1.310
 Vibration     6          0.736              1.551              1.115
 Vibration     7          0.745              1.526              1.064
 Vibration     8          0.776              1.443              0.918
 Vibration     9          0.905              1.140              0.545
 Vibration    10          0.957              1.034              0.451

 Optimization completed.
    -- Stationary point found.
 Normal termination of Gaussian 09 at Tue Jan 28 00:53:42 2020.
