 Gaussian 09, Revision D.01,
 Gaussian 09:  ES64L-G09RevD.01 24-Apr-2013

 -----------------------------
 # b3lyp 6-31G(2df,p) opt Freq
 -----------------------------

 -----
 titel
 -----
 Symbolic Z-matrix:
 Charge =  0 Multiplicity = 1

 SCF Done:  E(RB3LYP) =  -423.160922116     A.U. after   14 cycles
 Optimization completed.
    -- Stationary point found.
 Normal termination of Gaussian 09 at Mon Jan 27 17:15:26 2020.

 ----------------------------------------------------------------------
 #N Geom=AllCheck Guess=TCheck SCRF=Check GenChk RB3LYP/6-31G(2df,p) Fr
 eq
 ----------------------------------------------------------------------

 Structure from the checkpoint file:  "/scratch/puck/g09_01ae7435-9c98-4a76-adfd-b9246c0157b6/Gau-32515.chk"
 -----
 titel
 -----
 Charge =  0 Multiplicity = 1

                         Standard orientation:
 ---------------------------------------------------------------------
 Center     Atomic      Atomic             Coordinates (Angstroms)
 Number     Number       Type             X           Y           Z
 ---------------------------------------------------------------------
      1          6           0       -2.127994   -1.048446   -0.264073
      2          6           0       -0.740909   -0.616738    0.149967
      3          6           0       -0.594079    0.282437    1.367875
      4          6           0       -0.273275    0.816771   -0.006266
      5          8           0       -1.083716    1.761395   -0.634367
      6          6           0        1.189429    0.772735   -0.416629
      7          8           0        2.067377    0.197841    0.561566
      8          6           0        1.618194   -0.628909   -0.523833
      9          6           0        0.440285   -1.539390   -0.198888
     10          1           0       -2.843690   -0.234530   -0.122069
     11          1           0       -2.154848   -1.332196   -1.322357
     12          1           0       -2.468662   -1.909708    0.322089
     13          1           0       -1.524957    0.627330    1.808111
     14          1           0        0.225242    0.125696    2.058491
     15          1           0       -1.048463    2.576426   -0.122136
     16          1           0        1.594378    1.588720   -1.009293
     17          1           0        2.404809   -0.970508   -1.192893
     18          1           0        0.194516   -2.130318   -1.089444
     19          1           0        0.682481   -2.245566    0.602982
 ---------------------------------------------------------------------

 SCF Done:  E(RB3LYP) =  -423.160922116     A.U. after    1 cycles

 The electronic state is 1-A.
 Alpha  occ. eigenvalues --  -19.14901 -19.14798 -10.23552 -10.23288 -10.23188
 Alpha  occ. eigenvalues --  -10.19521 -10.18738 -10.17831 -10.17473  -1.07024
 Alpha  occ. eigenvalues --   -1.03249  -0.86360  -0.74149  -0.71562  -0.67054
 Alpha  occ. eigenvalues --   -0.60479  -0.57783  -0.54831  -0.52190  -0.48275
 Alpha  occ. eigenvalues --   -0.45720  -0.44286  -0.42720  -0.41961  -0.39936
 Alpha  occ. eigenvalues --   -0.38414  -0.37454  -0.36447  -0.34864  -0.32028
 Alpha  occ. eigenvalues --   -0.30490  -0.27794  -0.25392  -0.24429
 Alpha virt. eigenvalues --    0.07549   0.08154   0.09878   0.11852   0.12687
 Alpha virt. eigenvalues --    0.13719   0.15082   0.15750   0.16368   0.17030
 Alpha virt. eigenvalues --    0.17829   0.18815   0.19327   0.20990   0.22431

 Mulliken charges:
               1
     1  C   -0.472051
     2  C    0.285810
     3  C   -0.397371
     4  C    0.333436
     5  O   -0.472126
     6  C   -0.040060
     7  O   -0.255934
     8  C    0.050618
     9  C   -0.321328
    10  H    0.126361
    11  H    0.115037
    12  H    0.114771
    13  H    0.104217
    14  H    0.131179
    15  H    0.286715
    16  H    0.095276
    17  H    0.096223
    18  H    0.104478
    19  H    0.114749
 Sum of Mulliken charges =   0.00000

 Dipole moment (field-independent basis, Debye):
    X=             -0.6097    Y=              0.1065    Z=             -0.2861  Tot=              0.6818
 Quadrupole moment (field-independent basis, Debye-Ang):
   XX=            -56.3358   YY=            -47.2640   ZZ=            -54.0598
   XY=             -1.0727   XZ=             -4.8291   YZ=              2.1459

  Exact polarizability:  77.255  -0.310  78.597  -3.184   2.262  65.946
 Approx polarizability: 104.511  -1.965 116.665   0.475   2.864 104.763

                      1                      2                      3
                      A                      A                      A
 Frequencies --    173.3768               186.3630               215.8455
 Red. masses --      2.7600                 1.0688                 3.6608
 Frc consts  --      0.0489                 0.0219                 0.1005
 IR Inten    --      1.3960                 0.4043                 8.7392

                      4                      5                      6
                      A                      A                      A
 Frequencies --    261.5038               300.7835               334.7503
 Red. masses --      3.1280                 1.1222                 3.7858
 Frc consts  --      0.1260                 0.0598                 0.2499
 IR Inten    --      2.3610                67.2630                18.8063

                      7                      8                      9
                      A                      A                      A
 Frequencies --    388.1333               408.9513               451.2667
 Red. masses --      2.1424                 5.0891                 2.1384
 Frc consts  --      0.1902                 0.5015                 0.2566
 IR Inten    --     13.7982                 2.7993                 5.5291

                     10                     11                     12
                      A                      A                      A
 Frequencies --    547.7627               558.6608               673.7341
 Red. masses --      3.2473                 3.9730                 4.5920
 Frc consts  --      0.5741                 0.7306                 1.2281
 IR Inten    --      2.5125                 0.7364                 0.1581

                     13                     14                     15
                      A                      A                      A
 Frequencies --    731.0349               749.5447               816.8477
 Red. masses --      3.9752                 4.4483                 3.4899
 Frc consts  --      1.2516                 1.4725                 1.3720
 IR Inten    --      1.3127                 1.3612                18.2271

                     16                     17                     18
                      A                      A                      A
 Frequencies --    860.1025               900.0242               908.0063
 Red. masses --      2.4202                 1.9339                 2.4114
 Frc consts  --      1.0549                 0.9230                 1.1714
 IR Inten    --     30.2392                 0.7168                 4.3612

                     19                     20                     21
                      A                      A                      A
 Frequencies --    930.3869               961.1788               978.5420
 Red. masses --      1.8273                 2.3346                 1.4104
 Frc consts  --      0.9319                 1.2708                 0.7957
 IR Inten    --      5.6077                15.7396                 1.7695

                     22                     23                     24
                      A                      A                      A
 Frequencies --   1005.1940              1033.1419              1070.2318
 Red. masses --      1.6731                 1.5703                 1.2783
 Frc consts  --      0.9960                 0.9875                 0.8626
 IR Inten    --      4.2151                 7.7358                 5.4294

                     25                     26                     27
                      A                      A                      A
 Frequencies --   1093.0168              1122.5137              1163.3070
 Red. masses --      1.3858                 1.6900                 3.1094
 Frc consts  --      0.9755                 1.2546                 2.4792
 IR Inten    --      6.8014                 3.9745                 3.9072

                     28                     29                     30
                      A                      A                      A
 Frequencies --   1205.6214              1217.4626              1254.1802
 Red. masses --      1.9815                 1.4576                 1.7605
 Frc consts  --      1.6970                 1.2729                 1.6316
 IR Inten    --     64.3888                14.2305                 3.4367

                     31                     32                     33
                      A                      A                      A
 Frequencies --   1260.5934              1297.2983              1310.9920
 Red. masses --      1.5962                 2.3274                 1.3937
 Frc consts  --      1.4944                 2.3078                 1.4113
 IR Inten    --     24.5977                16.1127                27.2509

                     34                     35                     36
                      A                      A                      A
 Frequencies --   1360.9255              1392.6459              1415.1441
 Red. masses --      1.9896                 1.9855                 1.4253
 Frc consts  --      2.1711                 2.2689                 1.6818
 IR Inten    --      5.2331                 4.5484                 2.4470

                     37                     38                     39
                      A                      A                      A
 Frequencies --   1422.2989              1470.9644              1482.9329
 Red. masses --      2.1133                 1.2382                 1.3160
 Frc consts  --      2.5189                 1.5785                 1.7051
 IR Inten    --     16.6438                 1.0594                 7.9549

                     40                     41                     42
                      A                      A                      A
 Frequencies --   1489.6059              1502.6137              3025.8771
 Red. masses --      1.0567                 1.1451                 1.0380
 Frc consts  --      1.3815                 1.5233                 5.5993
 IR Inten    --      1.9057                 6.9523                26.9784

                     43                     44                     45
                      A                      A                      A
 Frequencies --   3036.0014              3076.0733              3083.5835
 Red. masses --      1.0590                 1.1028                 1.1011
 Frc consts  --      5.7512                 6.1482                 6.1685
 IR Inten    --     36.6812                10.8804                30.8023

                     46                     47                     48
                      A                      A                      A
 Frequencies --   3115.3700              3129.7455              3136.9402
 Red. masses --      1.0981                 1.0555                 1.0884
 Frc consts  --      6.2792                 6.0916                 6.3102
 IR Inten    --     12.1806                16.4569                27.9849

                     49                     50                     51
                      A                      A                      A
 Frequencies --   3156.0757              3229.5736              3797.5560
 Red. masses --      1.0944                 1.1156                 1.0664
 Frc consts  --      6.4226                 6.8559                 9.0607
 IR Inten    --     28.6838                 2.4135                23.8886

 - Thermochemistry -
 -------------------
 Temperature   298.150 Kelvin.  Pressure   1.00000 Atm.
 Atom     1 has atomic number  6 and mass  12.00000

 Molecular mass:   126.06808 amu.
 Principal axes and moments of inertia in atomic units:
                           1         2         3
     Eigenvalues --   704.059451033.865331350.76780
           X            0.99920   0.03374  -0.02159
           Y           -0.03308   0.99900   0.03023
           Z            0.02259  -0.02949   0.99931
 This molecule is an asymmetric top.
 Rotational symmetry number  1.
 Warning -- assumption of classical behavior for rotation
           may cause significant error
 Rotational temperatures (Kelvin)      0.12302     0.08378     0.06412
 Rotational constants (GHZ):           2.56334     1.74563     1.33609
 Zero-point vibrational energy     416864.4 (Joules/Mol)
                                   99.63298 (Kcal/Mol)
 Warning -- explicit consideration of  11 degrees of freedom as
           vibrations may cause significant error
 Vibrational temperatures:    249.45   268.13   310.55   376.25   432.76
          (Kelvin)            481.63   558.44   588.39   649.27   788.11
                              803.79   969.35  1051.79  1078.43  1175.26
                             1237.49  1294.93  1306.42  1338.62  1382.92
                             1407.90  1446.25  1486.46  1539.82  1572.61
                             1615.04  1673.74  1734.62  1751.65  1804.48
                             1813.71  1866.52  1886.22  1958.07  2003.70
                             2036.07  2046.37  2116.39  2133.61  2143.21
                             2161.92  4353.56  4368.12  4425.78  4436.58
                             4482.32  4503.00  4513.35  4540.88  4646.63
                             5463.83

 Zero-point correction=                           0.158775 (Hartree/Particle)
 Thermal correction to Energy=                    0.166847
 Thermal correction to Enthalpy=                  0.167791
 Thermal correction to Gibbs Free Energy=         0.126877
 Sum of electronic and zero-point Energies=           -423.002147
 Sum of electronic and thermal Energies=              -422.994075
 Sum of electronic and thermal Enthalpies=            -422.993131
 Sum of electronic and thermal Free Energies=         -423.034046

                     E (Thermal)             CV                S
                      KCal/Mol        Cal/Mol-Kelvin    Cal/Mol-Kelvin
 Total                  104.698             32.513             86.111
 Electronic               0.000              0.000              0.000
 Translational            0.889              2.981             40.409
 Rotational               0.889              2.981             28.377
 Vibrational            102.920             26.552             17.326
 Vibration     1          0.627              1.875              2.399
 Vibration     2          0.632              1.859              2.264
 Vibration     3          0.645              1.817              1.994
 Vibration     4          0.669              1.743              1.652
 Vibration     5          0.693              1.672              1.413
 Vibration     6          0.716              1.606              1.237
 Vibration     7          0.756              1.496              1.007
 Vibration     8          0.773              1.451              0.930
 Vibration     9          0.810              1.358              0.792
 Vibration    10          0.903              1.145              0.549
 Vibration    11          0.914              1.121              0.527

 Optimization completed.
    -- Stationary point found.
 Normal termination of Gaussian 09 at Mon Jan 27 18:04:02 2020.
