 Gaussian 09, Revision D.01,
 Gaussian 09:  ES64L-G09RevD.01 24-Apr-2013

 -----------------------------
 # b3lyp 6-31G(2df,p) opt Freq
 -----------------------------

 -----
 titel
 -----
 Symbolic Z-matrix:
 Charge =  0 Multiplicity = 1

 SCF Done:  E(RB3LYP) =  -423.220424260     A.U. after   14 cycles
 Optimization completed.
    -- Stationary point found.
 Normal termination of Gaussian 09 at Mon Jan 27 23:09:20 2020.

 ----------------------------------------------------------------------
 #N Geom=AllCheck Guess=TCheck SCRF=Check GenChk RB3LYP/6-31G(2df,p) Fr
 eq
 ----------------------------------------------------------------------

 Structure from the checkpoint file:  "/scratch/puck/g09_6d15cfc8-9525-477e-b1b2-d46affd50de4/Gau-162012.chk"
 -----
 titel
 -----
 Charge =  0 Multiplicity = 1

                         Standard orientation:
 ---------------------------------------------------------------------
 Center     Atomic      Atomic             Coordinates (Angstroms)
 Number     Number       Type             X           Y           Z
 ---------------------------------------------------------------------
      1          6           0        0.186325    2.198787   -0.241063
      2          6           0        0.452571    0.967489    0.607381
      3          6           0       -0.718013    0.045123    1.111158
      4          6           0        0.360280   -1.084994    1.225987
      5          6           0        0.892862   -0.379434   -0.045109
      6          6           0        2.215678   -0.638128   -0.704181
      7          8           0       -0.208039   -0.630325   -0.991291
      8          6           0       -1.318090   -0.349584   -0.230384
      9          8           0       -2.442543   -0.425338   -0.624018
     10          1           0       -0.428673    1.968278   -1.115014
     11          1           0       -0.329336    2.967258    0.343804
     12          1           0        1.127387    2.631656   -0.596735
     13          1           0        1.113792    1.205956    1.446358
     14          1           0       -1.412378    0.314469    1.902388
     15          1           0        1.008798   -0.964443    2.095685
     16          1           0        0.033535   -2.121489    1.118345
     17          1           0        2.354078    0.021328   -1.566126
     18          1           0        3.029831   -0.460286    0.004373
     19          1           0        2.277942   -1.672984   -1.053342
 ---------------------------------------------------------------------

 SCF Done:  E(RB3LYP) =  -423.220424260     A.U. after    1 cycles

 The electronic state is 1-A.
 Alpha  occ. eigenvalues --  -19.16973 -19.12256 -10.29744 -10.26048 -10.21267
 Alpha  occ. eigenvalues --  -10.21159 -10.20568 -10.19261 -10.18512  -1.09644
 Alpha  occ. eigenvalues --   -1.02107  -0.86331  -0.76391  -0.74672  -0.65919
 Alpha  occ. eigenvalues --   -0.63698  -0.58379  -0.55316  -0.48453  -0.47882
 Alpha  occ. eigenvalues --   -0.47401  -0.44651  -0.43163  -0.41293  -0.40823
 Alpha  occ. eigenvalues --   -0.40426  -0.38665  -0.37221  -0.36144  -0.35261
 Alpha  occ. eigenvalues --   -0.33096  -0.32597  -0.28006  -0.25893
 Alpha virt. eigenvalues --    0.01587   0.07648   0.09901   0.11207   0.11739
 Alpha virt. eigenvalues --    0.13174   0.14004   0.14509   0.15794   0.16265
 Alpha virt. eigenvalues --    0.17327   0.18417   0.18816   0.19884   0.20594

 Mulliken charges:
               1
     1  C   -0.440936
     2  C   -0.009349
     3  C   -0.208817
     4  C   -0.278415
     5  C    0.420020
     6  C   -0.496194
     7  O   -0.283341
     8  C    0.454037
     9  O   -0.356136
    10  H    0.146583
    11  H    0.125723
    12  H    0.121461
    13  H    0.083038
    14  H    0.094551
    15  H    0.110677
    16  H    0.117681
    17  H    0.137664
    18  H    0.123509
    19  H    0.138246
 Sum of Mulliken charges =   0.00000

 Dipole moment (field-independent basis, Debye):
    X=              3.6468    Y=              0.8475    Z=              2.3449  Tot=              4.4177
 Quadrupole moment (field-independent basis, Debye-Ang):
   XX=            -59.0540   YY=            -51.2699   ZZ=            -53.4922
   XY=             -1.8627   XZ=             -3.2113   YZ=             -1.3478

  Exact polarizability:  83.808  -0.455  73.134   0.470  -0.994  68.586
 Approx polarizability: 126.085   0.820 101.998   4.859   1.319 105.285

                      1                      2                      3
                      A                      A                      A
 Frequencies --    148.4051               184.2369               201.4542
 Red. masses --      5.3586                 1.0331                 1.4738
 Frc consts  --      0.0695                 0.0207                 0.0352
 IR Inten    --      1.6819                 0.0544                 0.0827

                      4                      5                      6
                      A                      A                      A
 Frequencies --    203.1807               252.8184               292.9317
 Red. masses --      1.5020                 3.0602                 3.1645
 Frc consts  --      0.0365                 0.1152                 0.1600
 IR Inten    --      0.0801                 1.2336                 1.2304

                      7                      8                      9
                      A                      A                      A
 Frequencies --    361.5070               482.1724               498.7225
 Red. masses --      2.5429                 2.8604                 3.3853
 Frc consts  --      0.1958                 0.3918                 0.4961
 IR Inten    --      1.3161                 1.5964                 1.3050

                     10                     11                     12
                      A                      A                      A
 Frequencies --    578.1792               602.5168               686.3046
 Red. masses --      4.3005                 3.8720                 3.9331
 Frc consts  --      0.8470                 0.8282                 1.0915
 IR Inten    --      5.6003                 2.3673                 1.3297

                     13                     14                     15
                      A                      A                      A
 Frequencies --    742.7011               767.1710               816.1531
 Red. masses --      3.0519                 4.4729                 2.5952
 Frc consts  --      0.9918                 1.5510                 1.0185
 IR Inten    --      0.9968                 3.3664                 1.5598

                     16                     17                     18
                      A                      A                      A
 Frequencies --    844.3375               886.1049               893.1826
 Red. masses --      2.9112                 4.3674                 2.6574
 Frc consts  --      1.2228                 2.0204                 1.2491
 IR Inten    --      4.8354                60.8201                32.9729

                     19                     20                     21
                      A                      A                      A
 Frequencies --    937.4738               994.4756              1028.5118
 Red. masses --      2.2161                 1.5094                 1.3233
 Frc consts  --      1.1475                 0.8795                 0.8248
 IR Inten    --      0.7015                12.7250                 4.8841

                     22                     23                     24
                      A                      A                      A
 Frequencies --   1043.3887              1059.4250              1099.4388
 Red. masses --      1.3732                 1.4520                 2.3812
 Frc consts  --      0.8808                 0.9602                 1.6959
 IR Inten    --     41.8255                19.5999                36.5279

                     25                     26                     27
                      A                      A                      A
 Frequencies --   1117.5806              1146.3434              1165.9803
 Red. masses --      1.6581                 2.2271                 2.2115
 Frc consts  --      1.2202                 1.7244                 1.7714
 IR Inten    --     12.7342                 8.2483                 4.2922

                     28                     29                     30
                      A                      A                      A
 Frequencies --   1203.5567              1231.5344              1248.6523
 Red. masses --      1.6992                 1.7033                 2.0233
 Frc consts  --      1.4502                 1.5221                 1.8587
 IR Inten    --      7.9441                 0.7098                 2.0751

                     31                     32                     33
                      A                      A                      A
 Frequencies --   1292.3849              1330.7634              1390.9413
 Red. masses --      2.1266                 2.4522                 1.3898
 Frc consts  --      2.0927                 2.5586                 1.5842
 IR Inten    --     28.0199                26.9510                 6.0527

                     34                     35                     36
                      A                      A                      A
 Frequencies --   1415.3259              1422.8902              1480.7683
 Red. masses --      1.3070                 1.5063                 1.0500
 Frc consts  --      1.5426                 1.7968                 1.3565
 IR Inten    --      9.2566                19.8305                 3.4188

                     37                     38                     39
                      A                      A                      A
 Frequencies --   1490.7914              1492.8183              1497.7923
 Red. masses --      1.0543                 1.0475                 1.0952
 Frc consts  --      1.3805                 1.3753                 1.4476
 IR Inten    --      6.6986                 2.8865                 1.7105

                     40                     41                     42
                      A                      A                      A
 Frequencies --   1504.1198              1908.6008              3038.4659
 Red. masses --      1.0960                12.6173                 1.0367
 Frc consts  --      1.4610                27.0799                 5.6391
 IR Inten    --      7.5364               393.7815                19.1190

                     43                     44                     45
                      A                      A                      A
 Frequencies --   3043.6952              3060.2828              3073.3961
 Red. masses --      1.0353                 1.0815                 1.0591
 Frc consts  --      5.6508                 5.9679                 5.8940
 IR Inten    --     12.9735                13.0692                28.6603

                     46                     47                     48
                      A                      A                      A
 Frequencies --   3100.6079              3117.2335              3119.7259
 Red. masses --      1.1007                 1.1016                 1.1016
 Frc consts  --      6.2344                 6.3068                 6.3168
 IR Inten    --     17.3225                11.3717                 5.1580

                     49                     50                     51
                      A                      A                      A
 Frequencies --   3120.8770              3138.6621              3162.6388
 Red. masses --      1.1009                 1.1107                 1.0917
 Frc consts  --      6.3175                 6.4465                 6.4337
 IR Inten    --     19.1329                21.9707                17.3422

 - Thermochemistry -
 -------------------
 Temperature   298.150 Kelvin.  Pressure   1.00000 Atm.
 Atom     1 has atomic number  6 and mass  12.00000

 Molecular mass:   126.06808 amu.
 Principal axes and moments of inertia in atomic units:
                           1         2         3
     Eigenvalues --   761.817381087.898941257.68732
           X            0.99836  -0.04544  -0.03494
           Y            0.04332   0.99730  -0.05933
           Z            0.03754   0.05772   0.99763
 This molecule is an asymmetric top.
 Rotational symmetry number  1.
 Warning -- assumption of classical behavior for rotation
           may cause significant error
 Rotational temperatures (Kelvin)      0.11369     0.07962     0.06887
 Rotational constants (GHZ):           2.36899     1.65892     1.43497
 Zero-point vibrational energy     418221.8 (Joules/Mol)
                                   99.95741 (Kcal/Mol)
 Warning -- explicit consideration of  11 degrees of freedom as
           vibrations may cause significant error
 Vibrational temperatures:    213.52   265.08   289.85   292.33   363.75
          (Kelvin)            421.46   520.13   693.74   717.55   831.87
                              866.89   987.44  1068.58  1103.79  1174.26
                             1214.81  1274.91  1285.09  1348.81  1430.83
                             1479.80  1501.20  1524.27  1581.85  1607.95
                             1649.33  1677.58  1731.65  1771.90  1796.53
                             1859.45  1914.67  2001.25  2036.34  2047.22
                             2130.49  2144.91  2147.83  2154.99  2164.09
                             2746.05  4371.67  4379.19  4403.06  4421.93
                             4461.08  4485.00  4488.58  4490.24  4515.83
                             4550.33

 Zero-point correction=                           0.159292 (Hartree/Particle)
 Thermal correction to Energy=                    0.167461
 Thermal correction to Enthalpy=                  0.168405
 Thermal correction to Gibbs Free Energy=         0.127043
 Sum of electronic and zero-point Energies=           -423.061132
 Sum of electronic and thermal Energies=              -423.052963
 Sum of electronic and thermal Enthalpies=            -423.052019
 Sum of electronic and thermal Free Energies=         -423.093381

                     E (Thermal)             CV                S
                      KCal/Mol        Cal/Mol-Kelvin    Cal/Mol-Kelvin
 Total                  105.083             31.994             87.054
 Electronic               0.000              0.000              0.000
 Translational            0.889              2.981             40.409
 Rotational               0.889              2.981             28.435
 Vibrational            103.306             26.032             18.211
 Vibration     1          0.618              1.904              2.693
 Vibration     2          0.631              1.861              2.285
 Vibration     3          0.638              1.838              2.120
 Vibration     4          0.639              1.835              2.104
 Vibration     5          0.664              1.758              1.711
 Vibration     6          0.688              1.687              1.457
 Vibration     7          0.736              1.552              1.116
 Vibration     8          0.838              1.290              0.704
 Vibration     9          0.854              1.253              0.661
 Vibration    10          0.935              1.078              0.489
 Vibration    11          0.961              1.026              0.445

 Optimization completed.
    -- Stationary point found.
 Normal termination of Gaussian 09 at Mon Jan 27 23:55:31 2020.
