 Gaussian 09, Revision D.01,
 Gaussian 09:  ES64L-G09RevD.01 24-Apr-2013

 -----------------------------
 # b3lyp 6-31G(2df,p) opt Freq
 -----------------------------

 -----
 titel
 -----
 Symbolic Z-matrix:
 Charge =  0 Multiplicity = 1

 SCF Done:  E(RB3LYP) =  -423.156852754     A.U. after   13 cycles
 Optimization completed.
    -- Stationary point found.
 Normal termination of Gaussian 09 at Tue Jan 28 02:56:45 2020.

 ----------------------------------------------------------------------
 #N Geom=AllCheck Guess=TCheck SCRF=Check GenChk RB3LYP/6-31G(2df,p) Fr
 eq
 ----------------------------------------------------------------------

 Structure from the checkpoint file:  "/scratch/puck/g09_435228b6-34d9-4187-b9f3-75c80f32660c/Gau-89739.chk"
 -----
 titel
 -----
 Charge =  0 Multiplicity = 1

                         Standard orientation:
 ---------------------------------------------------------------------
 Center     Atomic      Atomic             Coordinates (Angstroms)
 Number     Number       Type             X           Y           Z
 ---------------------------------------------------------------------
      1          8           0        2.901602    0.000004   -0.473703
      2          6           0        1.489467    0.000001   -0.408418
      3          6           0        0.872795   -1.211928    0.320100
      4          6           0       -0.559869   -0.797397    0.670825
      5          6           0       -1.529262   -0.736070   -0.519580
      6          8           0       -2.680540   -0.000003   -0.096382
      7          6           0       -1.529265    0.736071   -0.519576
      8          6           0       -0.559871    0.797396    0.670827
      9          6           0        0.872793    1.211930    0.320100
     10          1           0        3.238139   -0.000035    0.429398
     11          1           0        1.169196    0.000001   -1.456077
     12          1           0        0.928461   -2.130134   -0.272697
     13          1           0        1.439341   -1.391111    1.244134
     14          1           0       -0.963379   -1.307115    1.547983
     15          1           0       -1.662693   -1.446669   -1.328581
     16          1           0       -1.662700    1.446674   -1.328574
     17          1           0       -0.963379    1.307111    1.547988
     18          1           0        0.928457    2.130135   -0.272697
     19          1           0        1.439341    1.391114    1.244133
 ---------------------------------------------------------------------

 SCF Done:  E(RB3LYP) =  -423.156852754     A.U. after    1 cycles

 The electronic state is 1-A.
 Alpha  occ. eigenvalues --  -19.14965 -19.13703 -10.23510 -10.23478 -10.23280
 Alpha  occ. eigenvalues --  -10.19466 -10.19452 -10.18537 -10.18536  -1.07669
 Alpha  occ. eigenvalues --   -1.02027  -0.84686  -0.73236  -0.72854  -0.63679
 Alpha  occ. eigenvalues --   -0.63324  -0.58907  -0.53390  -0.51894  -0.49774
 Alpha  occ. eigenvalues --   -0.48147  -0.44182  -0.43013  -0.42518  -0.40127
 Alpha  occ. eigenvalues --   -0.37479  -0.36476  -0.34932  -0.34196  -0.32014
 Alpha  occ. eigenvalues --   -0.31932  -0.28437  -0.26361  -0.25257
 Alpha virt. eigenvalues --    0.06875   0.09037   0.09598   0.09944   0.11849
 Alpha virt. eigenvalues --    0.12714   0.13913   0.14371   0.16459   0.16990
 Alpha virt. eigenvalues --    0.17683   0.18679   0.19727   0.20588   0.20930

 Mulliken charges:
               1
     1  O   -0.433890
     2  C    0.143347
     3  C   -0.257680
     4  C   -0.060331
     5  C    0.027754
     6  O   -0.250278
     7  C    0.027754
     8  C   -0.060331
     9  C   -0.257677
    10  H    0.274403
    11  H    0.095221
    12  H    0.105007
    13  H    0.089355
    14  H    0.080484
    15  H    0.101007
    16  H    0.101007
    17  H    0.080484
    18  H    0.105007
    19  H    0.089355
 Sum of Mulliken charges =   0.00000

 Dipole moment (field-independent basis, Debye):
    X=              1.0738    Y=             -0.0001    Z=              0.7819  Tot=              1.3283
 Quadrupole moment (field-independent basis, Debye-Ang):
   XX=            -63.4023   YY=            -50.7834   ZZ=            -50.9771
   XY=             -0.0002   XZ=              6.4531   YZ=              0.0000

  Exact polarizability:  80.480   0.000  73.531   3.918   0.000  66.070
 Approx polarizability: 112.372   0.000 110.984   3.398   0.000 102.592

                      1                      2                      3
                      A                      A                      A
 Frequencies --    118.9569               170.9415               273.7627
 Red. masses --      4.5359                 2.5739                 1.5798
 Frc consts  --      0.0378                 0.0443                 0.0698
 IR Inten    --      3.0261                 1.9635                23.8337

                      4                      5                      6
                      A                      A                      A
 Frequencies --    289.2400               328.8548               393.0701
 Red. masses --      2.9715                 1.8519                 3.0138
 Frc consts  --      0.1465                 0.1180                 0.2744
 IR Inten    --      0.3435                64.5211                 8.1734

                      7                      8                      9
                      A                      A                      A
 Frequencies --    430.7102               463.9790               617.1531
 Red. masses --      6.2886                 1.9194                 4.7293
 Frc consts  --      0.6873                 0.2435                 1.0613
 IR Inten    --      9.0449                 0.8805                 0.0208

                     10                     11                     12
                      A                      A                      A
 Frequencies --    623.4638               802.0805               820.0241
 Red. masses --      4.7706                 2.2751                 2.0363
 Frc consts  --      1.0926                 0.8624                 0.8068
 IR Inten    --      6.9046                 5.6953                 0.4970

                     13                     14                     15
                      A                      A                      A
 Frequencies --    848.6896               860.4397               867.4250
 Red. masses --      4.9721                 2.9984                 1.8529
 Frc consts  --      2.1100                 1.3079                 0.8214
 IR Inten    --      0.4529                 3.5300                28.9962

                     16                     17                     18
                      A                      A                      A
 Frequencies --    868.6881               900.3302               925.0654
 Red. masses --      5.1617                 2.0685                 1.5264
 Frc consts  --      2.2949                 0.9879                 0.7696
 IR Inten    --      9.2965                13.2896                 0.7997

                     19                     20                     21
                      A                      A                      A
 Frequencies --    987.2039              1015.6402              1048.2265
 Red. masses --      2.0619                 1.8533                 1.5737
 Frc consts  --      1.1839                 1.1264                 1.0188
 IR Inten    --     30.1846                 0.1314                 0.1745

                     22                     23                     24
                      A                      A                      A
 Frequencies --   1058.3773              1085.2606              1095.3514
 Red. masses --      1.2071                 1.9876                 2.8804
 Frc consts  --      0.7967                 1.3793                 2.0362
 IR Inten    --      0.0001                21.7064                 4.2100

                     25                     26                     27
                      A                      A                      A
 Frequencies --   1106.5077              1144.5596              1160.2127
 Red. masses --      3.8197                 1.1886                 1.9431
 Frc consts  --      2.7554                 0.9174                 1.5411
 IR Inten    --     89.6018                 1.5303                42.5032

                     28                     29                     30
                      A                      A                      A
 Frequencies --   1194.3741              1221.4954              1231.1427
 Red. masses --      1.2795                 1.4354                 1.2795
 Frc consts  --      1.0754                 1.2619                 1.1426
 IR Inten    --      3.0430                 3.5848                 0.0438

                     31                     32                     33
                      A                      A                      A
 Frequencies --   1264.6496              1283.1622              1284.1702
 Red. masses --      1.5027                 1.5677                 1.7277
 Frc consts  --      1.4160                 1.5208                 1.6787
 IR Inten    --      0.0473                 3.8856                 0.0463

                     34                     35                     36
                      A                      A                      A
 Frequencies --   1321.6040              1326.4931              1352.4566
 Red. masses --      1.5226                 1.5496                 1.4162
 Frc consts  --      1.5669                 1.6065                 1.5262
 IR Inten    --      0.0596                 3.4808                 5.0266

                     37                     38                     39
                      A                      A                      A
 Frequencies --   1365.9521              1382.4360              1433.4593
 Red. masses --      1.5493                 3.5323                 1.2417
 Frc consts  --      1.7032                 3.9774                 1.5033
 IR Inten    --     10.2931                17.6118                56.5949

                     40                     41                     42
                      A                      A                      A
 Frequencies --   1478.0868              1492.8406              3014.8858
 Red. masses --      1.0912                 1.0979                 1.0668
 Frc consts  --      1.4046                 1.4416                 5.7131
 IR Inten    --      2.5964                 3.3271                15.1293

                     43                     44                     45
                      A                      A                      A
 Frequencies --   3018.8674              3051.5116              3080.9857
 Red. masses --      1.0689                 1.0820                 1.0951
 Frc consts  --      5.7395                 5.9364                 6.1248
 IR Inten    --     34.2486                19.7029                36.2266

                     46                     47                     48
                      A                      A                      A
 Frequencies --   3084.9748              3087.3778              3095.0829
 Red. masses --      1.0872                 1.0981                 1.0880
 Frc consts  --      6.0960                 6.1669                 6.1406
 IR Inten    --     13.6368                28.4292                45.4778

                     49                     50                     51
                      A                      A                      A
 Frequencies --   3164.9373              3180.4940              3796.4300
 Red. masses --      1.0865                 1.1010                 1.0657
 Frc consts  --      6.4122                 6.5620                 9.0496
 IR Inten    --     19.4268                19.6307                11.4961

 - Thermochemistry -
 -------------------
 Temperature   298.150 Kelvin.  Pressure   1.00000 Atm.
 Atom     1 has atomic number  8 and mass  15.99491

 Molecular mass:   126.06808 amu.
 Principal axes and moments of inertia in atomic units:
                           1         2         3
     Eigenvalues --   441.438571509.762201669.85414
           X            0.99993   0.00000   0.01221
           Y            0.00000   1.00000   0.00000
           Z           -0.01221   0.00000   0.99993
 This molecule is an asymmetric top.
 Rotational symmetry number  1.
 Warning -- assumption of classical behavior for rotation
           may cause significant error
 Rotational temperatures (Kelvin)      0.19621     0.05737     0.05187
 Rotational constants (GHZ):           4.08832     1.19538     1.08078
 Zero-point vibrational energy     421755.9 (Joules/Mol)
                                  100.80208 (Kcal/Mol)
 Warning -- explicit consideration of   9 degrees of freedom as
           vibrations may cause significant error
 Vibrational temperatures:    171.15   245.95   393.88   416.15   473.15
          (Kelvin)            565.54   619.70   667.56   887.94   897.02
                             1154.01  1179.83  1221.07  1237.98  1248.03
                             1249.85  1295.37  1330.96  1420.36  1461.28
                             1508.16  1522.77  1561.45  1575.96  1592.02
                             1646.76  1669.29  1718.44  1757.46  1771.34
                             1819.55  1846.18  1847.63  1901.49  1908.53
                             1945.88  1965.30  1989.01  2062.43  2126.63
                             2147.86  4337.74  4343.47  4390.44  4432.85
                             4438.59  4442.04  4453.13  4553.63  4576.02
                             5462.21

 Zero-point correction=                           0.160638 (Hartree/Particle)
 Thermal correction to Energy=                    0.168098
 Thermal correction to Enthalpy=                  0.169043
 Thermal correction to Gibbs Free Energy=         0.128894
 Sum of electronic and zero-point Energies=           -422.996214
 Sum of electronic and thermal Energies=              -422.988754
 Sum of electronic and thermal Enthalpies=            -422.987810
 Sum of electronic and thermal Free Energies=         -423.027959

                     E (Thermal)             CV                S
                      KCal/Mol        Cal/Mol-Kelvin    Cal/Mol-Kelvin
 Total                  105.483             30.126             84.500
 Electronic               0.000              0.000              0.000
 Translational            0.889              2.981             40.409
 Rotational               0.889              2.981             28.500
 Vibrational            103.706             24.164             15.592
 Vibration     1          0.609              1.934              3.117
 Vibration     2          0.626              1.878              2.425
 Vibration     3          0.676              1.722              1.572
 Vibration     4          0.686              1.694              1.478
 Vibration     5          0.712              1.618              1.266
 Vibration     6          0.760              1.485              0.988
 Vibration     7          0.792              1.403              0.856
 Vibration     8          0.822              1.330              0.755
 Vibration     9          0.977              0.996              0.421

 Optimization completed.
    -- Stationary point found.
 Normal termination of Gaussian 09 at Tue Jan 28 03:51:58 2020.
