 Gaussian 09, Revision D.01,
 Gaussian 09:  ES64L-G09RevD.01 24-Apr-2013

 -----------------------------
 # b3lyp 6-31G(2df,p) opt Freq
 -----------------------------

 -----
 titel
 -----
 Symbolic Z-matrix:
 Charge =  0 Multiplicity = 1

 SCF Done:  E(RB3LYP) =  -423.173476600     A.U. after   13 cycles
 Optimization completed.
    -- Stationary point found.
 Normal termination of Gaussian 09 at Mon Jan 27 17:26:47 2020.

 ----------------------------------------------------------------------
 #N Geom=AllCheck Guess=TCheck SCRF=Check GenChk RB3LYP/6-31G(2df,p) Fr
 eq
 ----------------------------------------------------------------------

 Structure from the checkpoint file:  "/scratch/puck/g09_bd14f34f-b43c-49e6-9b68-348afabcfeb4/Gau-72504.chk"
 -----
 titel
 -----
 Charge =  0 Multiplicity = 1

                         Standard orientation:
 ---------------------------------------------------------------------
 Center     Atomic      Atomic             Coordinates (Angstroms)
 Number     Number       Type             X           Y           Z
 ---------------------------------------------------------------------
      1          6           0       -2.634480   -0.159511   -0.524248
      2          6           0       -1.247038   -0.072602    0.048036
      3          6           0       -0.719967    1.254290    0.600532
      4          6           0        0.788436    1.141853    0.438470
      5          8           0        1.217166    1.055304   -0.930900
      6          6           0        1.168941   -0.153077   -0.146631
      7          6           0        2.462613   -0.878092    0.086989
      8          6           0       -0.116538   -0.904904   -0.386192
      9          8           0       -0.812008   -1.199096    0.837624
     10          1           0       -3.382653    0.096551    0.234228
     11          1           0       -2.750931    0.538260   -1.359907
     12          1           0       -2.843098   -1.171772   -0.878931
     13          1           0       -1.113212    2.106848    0.036492
     14          1           0       -1.003974    1.379922    1.651002
     15          1           0        1.458666    1.690441    1.095532
     16          1           0        2.354906   -1.585482    0.915603
     17          1           0        2.758384   -1.442708   -0.804125
     18          1           0        3.263504   -0.173509    0.324267
     19          1           0       -0.194654   -1.655967   -1.169691
 ---------------------------------------------------------------------

 SCF Done:  E(RB3LYP) =  -423.173476600     A.U. after    1 cycles

 The electronic state is 1-A.
 Alpha  occ. eigenvalues --  -19.14740 -19.14712 -10.24262 -10.24090 -10.23513
 Alpha  occ. eigenvalues --  -10.23295 -10.19097 -10.18496 -10.18493  -1.08060
 Alpha  occ. eigenvalues --   -1.05551  -0.78113  -0.75717  -0.72808  -0.67868
 Alpha  occ. eigenvalues --   -0.62345  -0.56806  -0.56385  -0.50278  -0.46646
 Alpha  occ. eigenvalues --   -0.45329  -0.44743  -0.42717  -0.42287  -0.40919
 Alpha  occ. eigenvalues --   -0.39767  -0.37869  -0.37344  -0.36819  -0.35558
 Alpha  occ. eigenvalues --   -0.29017  -0.28791  -0.27273  -0.25550
 Alpha virt. eigenvalues --    0.07690   0.09820   0.10264   0.11222   0.11862
 Alpha virt. eigenvalues --    0.13480   0.13770   0.14987   0.15457   0.16724
 Alpha virt. eigenvalues --    0.17375   0.17773   0.19292   0.20391   0.21458

 Mulliken charges:
               1
     1  C   -0.486244
     2  C    0.433042
     3  C   -0.318257
     4  C   -0.008630
     5  O   -0.303238
     6  C    0.409830
     7  C   -0.498742
     8  C   -0.121153
     9  O   -0.302066
    10  H    0.127449
    11  H    0.128466
    12  H    0.130456
    13  H    0.113636
    14  H    0.113813
    15  H    0.094625
    16  H    0.137546
    17  H    0.127467
    18  H    0.130525
    19  H    0.091476
 Sum of Mulliken charges =   0.00000

 Dipole moment (field-independent basis, Debye):
    X=             -0.2981    Y=              0.2182    Z=              0.1623  Tot=              0.4035
 Quadrupole moment (field-independent basis, Debye-Ang):
   XX=            -50.0520   YY=            -53.4642   ZZ=            -54.7071
   XY=             -3.3915   XZ=              3.2449   YZ=              5.2642

  Exact polarizability:  86.090  -4.798  73.969  -0.280   5.206  62.815
 Approx polarizability: 107.965  -6.155 113.432  -5.947   1.923 104.326

                      1                      2                      3
                      A                      A                      A
 Frequencies --    140.1945               182.8043               203.3742
 Red. masses --      2.8743                 1.5663                 1.1244
 Frc consts  --      0.0333                 0.0308                 0.0274
 IR Inten    --      3.0283                 2.3824                 0.3201

                      4                      5                      6
                      A                      A                      A
 Frequencies --    213.2838               255.3127               347.9923
 Red. masses --      1.4272                 2.4378                 2.4218
 Frc consts  --      0.0383                 0.0936                 0.1728
 IR Inten    --      0.8897                 0.1777                 0.8611

                      7                      8                      9
                      A                      A                      A
 Frequencies --    374.8407               407.3512               446.8075
 Red. masses --      3.2416                 2.2779                 4.8617
 Frc consts  --      0.2684                 0.2227                 0.5718
 IR Inten    --      6.7553                 5.0594                 9.8712

                     10                     11                     12
                      A                      A                      A
 Frequencies --    512.2335               560.8434               632.7131
 Red. masses --      5.9818                 3.6977                 4.1669
 Frc consts  --      0.9247                 0.6853                 0.9828
 IR Inten    --      4.9136                 2.7577                 1.6983

                     13                     14                     15
                      A                      A                      A
 Frequencies --    735.2191               769.0712               840.5550
 Red. masses --      4.7649                 5.0573                 3.3041
 Frc consts  --      1.5175                 1.7624                 1.3754
 IR Inten    --      3.1842                10.0189                13.5341

                     16                     17                     18
                      A                      A                      A
 Frequencies --    856.9459               907.8935               925.5429
 Red. masses --      3.2711                 2.3402                 2.4709
 Frc consts  --      1.4153                 1.1365                 1.2471
 IR Inten    --     29.6220                 4.6675                 8.0767

                     19                     20                     21
                      A                      A                      A
 Frequencies --    934.9881               980.1685              1014.8053
 Red. masses --      2.1912                 1.8000                 1.3362
 Frc consts  --      1.1286                 1.0189                 0.8107
 IR Inten    --      2.8589                 4.8599                 5.4806

                     22                     23                     24
                      A                      A                      A
 Frequencies --   1021.2158              1069.4211              1077.8640
 Red. masses --      1.7647                 2.0171                 1.6993
 Frc consts  --      1.0843                 1.3592                 1.1632
 IR Inten    --      5.9634                 4.1097                 0.7080

                     25                     26                     27
                      A                      A                      A
 Frequencies --   1110.8567              1119.4060              1213.6590
 Red. masses --      1.8468                 2.0520                 1.5327
 Frc consts  --      1.3427                 1.5150                 1.3302
 IR Inten    --     23.9053                 8.6802                 5.4054

                     28                     29                     30
                      A                      A                      A
 Frequencies --   1233.2715              1247.6662              1284.8096
 Red. masses --      1.4490                 1.8606                 1.5881
 Frc consts  --      1.2984                 1.7065                 1.5446
 IR Inten    --     16.2952                 5.6560                 9.7679

                     31                     32                     33
                      A                      A                      A
 Frequencies --   1316.3003              1339.9523              1408.9715
 Red. masses --      2.1595                 1.9873                 1.3791
 Frc consts  --      2.2045                 2.1023                 1.6130
 IR Inten    --      5.0694                 8.6620                 3.6830

                     34                     35                     36
                      A                      A                      A
 Frequencies --   1411.2175              1444.6462              1461.7477
 Red. masses --      1.2727                 2.5003                 1.9284
 Frc consts  --      1.4933                 3.0744                 2.4277
 IR Inten    --      4.7749                 7.1850                18.5591

                     37                     38                     39
                      A                      A                      A
 Frequencies --   1468.8977              1486.4912              1488.8976
 Red. masses --      1.2233                 1.0862                 1.1356
 Frc consts  --      1.5551                 1.4141                 1.4832
 IR Inten    --      1.5265                 0.0461                17.4157

                     40                     41                     42
                      A                      A                      A
 Frequencies --   1497.2567              1498.8527              3035.3371
 Red. masses --      1.2073                 1.2740                 1.0375
 Frc consts  --      1.5946                 1.6863                 5.6319
 IR Inten    --      2.1795                 4.4066                16.1416

                     43                     44                     45
                      A                      A                      A
 Frequencies --   3036.5053              3044.7247              3088.1619
 Red. masses --      1.0362                 1.0578                 1.1042
 Frc consts  --      5.6294                 5.7777                 6.2044
 IR Inten    --     20.0500                30.3699                 8.6324

                     46                     47                     48
                      A                      A                      A
 Frequencies --   3098.7699              3100.5349              3124.8557
 Red. masses --      1.1001                 1.0999                 1.1013
 Frc consts  --      6.2239                 6.2301                 6.3357
 IR Inten    --     17.8578                14.4158                 7.0908

                     49                     50                     51
                      A                      A                      A
 Frequencies --   3125.2486              3135.0070              3146.2403
 Red. masses --      1.1014                 1.0904                 1.0911
 Frc consts  --      6.3383                 6.3139                 6.3636
 IR Inten    --     16.9410                29.4854                25.1302

 - Thermochemistry -
 -------------------
 Temperature   298.150 Kelvin.  Pressure   1.00000 Atm.
 Atom     1 has atomic number  6 and mass  12.00000

 Molecular mass:   126.06808 amu.
 Principal axes and moments of inertia in atomic units:
                           1         2         3
     Eigenvalues --   570.522541219.771531460.77739
           X            0.99872  -0.04494   0.02340
           Y            0.04274   0.99529   0.08700
           Z           -0.02719  -0.08588   0.99593
 This molecule is an asymmetric top.
 Rotational symmetry number  1.
 Warning -- assumption of classical behavior for rotation
           may cause significant error
 Rotational temperatures (Kelvin)      0.15181     0.07101     0.05929
 Rotational constants (GHZ):           3.16331     1.47957     1.23547
 Zero-point vibrational energy     414982.9 (Joules/Mol)
                                   99.18330 (Kcal/Mol)
 Warning -- explicit consideration of  11 degrees of freedom as
           vibrations may cause significant error
 Vibrational temperatures:    201.71   263.01   292.61   306.87   367.34
          (Kelvin)            500.68   539.31   586.09   642.86   736.99
                              806.93   910.33  1057.82  1106.52  1209.37
                             1232.95  1306.25  1331.65  1345.24  1410.24
                             1460.08  1469.30  1538.66  1550.80  1598.27
                             1610.57  1746.18  1774.40  1795.11  1848.55
                             1893.86  1927.89  2027.19  2030.42  2078.52
                             2103.13  2113.41  2138.73  2142.19  2154.22
                             2156.51  4367.17  4368.85  4380.67  4443.17
                             4458.43  4460.97  4495.96  4496.53  4510.57
                             4526.73

 Zero-point correction=                           0.158059 (Hartree/Particle)
 Thermal correction to Energy=                    0.166328
 Thermal correction to Enthalpy=                  0.167273
 Thermal correction to Gibbs Free Energy=         0.125782
 Sum of electronic and zero-point Energies=           -423.015418
 Sum of electronic and thermal Energies=              -423.007148
 Sum of electronic and thermal Enthalpies=            -423.006204
 Sum of electronic and thermal Free Energies=         -423.047694

                     E (Thermal)             CV                S
                      KCal/Mol        Cal/Mol-Kelvin    Cal/Mol-Kelvin
 Total                  104.373             32.410             87.324
 Electronic               0.000              0.000              0.000
 Translational            0.889              2.981             40.409
 Rotational               0.889              2.981             28.410
 Vibrational            102.595             26.448             18.506
 Vibration     1          0.615              1.913              2.801
 Vibration     2          0.630              1.863              2.300
 Vibration     3          0.639              1.835              2.102
 Vibration     4          0.644              1.821              2.015
 Vibration     5          0.666              1.754              1.694
 Vibration     6          0.726              1.579              1.175
 Vibration     7          0.746              1.524              1.060
 Vibration     8          0.772              1.454              0.936
 Vibration     9          0.806              1.368              0.805
 Vibration    10          0.867              1.223              0.628
 Vibration    11          0.917              1.116              0.522

 Normal termination of Gaussian 09 at Mon Jan 27 18:21:58 2020.
