 Gaussian 09, Revision D.01,
 Gaussian 09:  ES64L-G09RevD.01 24-Apr-2013

 -----------------------------
 # b3lyp 6-31G(2df,p) opt Freq
 -----------------------------

 -----
 titel
 -----
 Symbolic Z-matrix:
 Charge =  0 Multiplicity = 1

 SCF Done:  E(RB3LYP) =  -423.217683103     A.U. after   14 cycles
 Optimization completed.
    -- Stationary point found.
 Normal termination of Gaussian 09 at Mon Jan 27 10:20:40 2020.

 ----------------------------------------------------------------------
 #N Geom=AllCheck Guess=TCheck SCRF=Check GenChk RB3LYP/6-31G(2df,p) Fr
 eq
 ----------------------------------------------------------------------

 Structure from the checkpoint file:  "/scratch/puck/g09_b67e44ec-02fe-4155-bb65-9b404cb999b1/Gau-148550.chk"
 -----
 titel
 -----
 Charge =  0 Multiplicity = 1

                         Standard orientation:
 ---------------------------------------------------------------------
 Center     Atomic      Atomic             Coordinates (Angstroms)
 Number     Number       Type             X           Y           Z
 ---------------------------------------------------------------------
      1          6           0        2.101061    0.799486    0.997989
      2          6           0        1.474321    0.242218   -0.280985
      3          8           0        2.299028   -0.846690   -0.688644
      4          6           0        0.047527   -0.194490   -0.086220
      5          6           0       -0.378266   -1.464817    0.152166
      6          8           0       -1.730790   -1.507558    0.277409
      7          6           0       -2.174906   -0.232601    0.116590
      8          6           0       -1.143846    0.623751   -0.111555
      9          6           0       -1.231709    2.100391   -0.346392
     10          1           0        2.096882    0.033098    1.777973
     11          1           0        3.134174    1.103052    0.807062
     12          1           0        1.540321    1.666245    1.358508
     13          1           0        1.496187    1.037169   -1.046070
     14          1           0        1.890371   -1.240420   -1.466949
     15          1           0        0.138888   -2.403549    0.256401
     16          1           0       -3.241999   -0.093815    0.184026
     17          1           0       -2.273210    2.433321   -0.358677
     18          1           0       -0.711710    2.670112    0.432439
     19          1           0       -0.780906    2.385143   -1.304393
 ---------------------------------------------------------------------

 SCF Done:  E(RB3LYP) =  -423.217683103     A.U. after    1 cycles

 The electronic state is 1-A.
 Alpha  occ. eigenvalues --  -19.19821 -19.13415 -10.23831 -10.22156 -10.22127
 Alpha  occ. eigenvalues --  -10.18874 -10.18544 -10.17840 -10.17323  -1.10102
 Alpha  occ. eigenvalues --   -1.01716  -0.81547  -0.76079  -0.73077  -0.69792
 Alpha  occ. eigenvalues --   -0.62588  -0.56519  -0.55893  -0.52407  -0.48519
 Alpha  occ. eigenvalues --   -0.45156  -0.44569  -0.42802  -0.41265  -0.41033
 Alpha  occ. eigenvalues --   -0.39894  -0.38162  -0.37760  -0.36360  -0.35055
 Alpha  occ. eigenvalues --   -0.32645  -0.27650  -0.25319  -0.21916
 Alpha virt. eigenvalues --    0.02141   0.06579   0.07597   0.10142   0.13038
 Alpha virt. eigenvalues --    0.13456   0.14386   0.14681   0.15516   0.17208
 Alpha virt. eigenvalues --    0.18137   0.18603   0.20593   0.21337   0.24321

 Mulliken charges:
               1
     1  C   -0.373593
     2  C    0.024775
     3  O   -0.429000
     4  C    0.125609
     5  C   -0.106256
     6  O   -0.149771
     7  C   -0.091772
     8  C    0.134028
     9  C   -0.508560
    10  H    0.126695
    11  H    0.121935
    12  H    0.117155
    13  H    0.065473
    14  H    0.279134
    15  H    0.142690
    16  H    0.133429
    17  H    0.126187
    18  H    0.132061
    19  H    0.129782
 Sum of Mulliken charges =   0.00000

 Dipole moment (field-independent basis, Debye):
    X=             -0.8173    Y=              1.1305    Z=             -0.7449  Tot=              1.5814
 Quadrupole moment (field-independent basis, Debye-Ang):
   XX=            -55.8219   YY=            -51.1863   ZZ=            -52.2443
   XY=             -1.1933   XZ=             -0.3039   YZ=              1.0580

  Exact polarizability:  91.159   0.221  85.660  -0.772  -2.066  55.402
 Approx polarizability: 131.882   4.174 134.643  -4.479  -6.132  84.168

                      1                      2                      3
                      A                      A                      A
 Frequencies --     59.9703               135.9180               154.2220
 Red. masses --      3.3341                 1.3561                 2.2783
 Frc consts  --      0.0071                 0.0148                 0.0319
 IR Inten    --      0.7421                 0.5761                 0.1518

                      4                      5                      6
                      A                      A                      A
 Frequencies --    172.9750               236.9669               259.9426
 Red. masses --      2.5772                 1.1181                 2.9245
 Frc consts  --      0.0454                 0.0370                 0.1164
 IR Inten    --      0.4785                 2.6582                 1.4235

                      7                      8                      9
                      A                      A                      A
 Frequencies --    285.9639               354.3216               372.3641
 Red. masses --      3.2966                 1.4280                 1.9815
 Frc consts  --      0.1588                 0.1056                 0.1619
 IR Inten    --      1.9399                82.8345                36.0610

                     10                     11                     12
                      A                      A                      A
 Frequencies --    450.9931               515.7509               612.6229
 Red. masses --      3.3973                 3.5957                 3.8501
 Frc consts  --      0.4071                 0.5635                 0.8513
 IR Inten    --      6.2216                 5.8593                 3.4825

                     13                     14                     15
                      A                      A                      A
 Frequencies --    623.0985               682.8863               734.1589
 Red. masses --      4.2918                 2.3098                 3.0096
 Frc consts  --      0.9817                 0.6346                 0.9557
 IR Inten    --      7.2479                 1.5115                 9.1684

                     16                     17                     18
                      A                      A                      A
 Frequencies --    753.2374               791.8309               890.7447
 Red. masses --      1.6510                 1.3744                 3.8211
 Frc consts  --      0.5519                 0.5077                 1.7863
 IR Inten    --      8.5213                25.7683                21.9314

                     19                     20                     21
                      A                      A                      A
 Frequencies --    919.4294              1013.0092              1013.2568
 Red. masses --      2.4066                 1.9920                 1.5170
 Frc consts  --      1.1986                 1.2044                 0.9177
 IR Inten    --     11.8379                38.6483                 6.7222

                     22                     23                     24
                      A                      A                      A
 Frequencies --   1062.7044              1078.0885              1086.3897
 Red. masses --      1.4710                 1.6707                 2.5556
 Frc consts  --      0.9788                 1.1441                 1.7771
 IR Inten    --      2.6644                17.4843                30.5708

                     25                     26                     27
                      A                      A                      A
 Frequencies --   1110.7933              1171.8204              1190.7488
 Red. masses --      3.4016                 3.1420                 5.4199
 Frc consts  --      2.4729                 2.5420                 4.5277
 IR Inten    --     40.0373                10.6833                 8.6111

                     28                     29                     30
                      A                      A                      A
 Frequencies --   1245.3757              1284.8248              1308.5344
 Red. masses --      1.2744                 1.2451                 1.8448
 Frc consts  --      1.1645                 1.2110                 1.8611
 IR Inten    --      4.8400                48.0823                13.4350

                     31                     32                     33
                      A                      A                      A
 Frequencies --   1349.7267              1393.3147              1410.6439
 Red. masses --      2.0402                 1.2558                 1.8285
 Frc consts  --      2.1898                 1.4364                 2.1438
 IR Inten    --      8.5926                 7.9027                26.6257

                     34                     35                     36
                      A                      A                      A
 Frequencies --   1417.0898              1425.8093              1482.2056
 Red. masses --      1.4356                 1.5130                 1.0437
 Frc consts  --      1.6985                 1.8123                 1.3510
 IR Inten    --     11.6411                 5.0490                 7.3128

                     37                     38                     39
                      A                      A                      A
 Frequencies --   1482.9451              1494.3020              1498.8104
 Red. masses --      1.0515                 1.0668                 1.0863
 Frc consts  --      1.3625                 1.4034                 1.4377
 IR Inten    --      3.0198                 4.0031                 2.8163

                     40                     41                     42
                      A                      A                      A
 Frequencies --   1575.9107              1648.0570              2946.7133
 Red. masses --      5.0844                 6.3456                 1.0818
 Frc consts  --      7.4397                10.1546                 5.5345
 IR Inten    --     14.8998                 0.9770                51.4569

                     43                     44                     45
                      A                      A                      A
 Frequencies --   3026.4090              3045.2612              3074.6004
 Red. masses --      1.0376                 1.0338                 1.0996
 Frc consts  --      5.5992                 5.6485                 6.1246
 IR Inten    --     28.8925                16.4547                19.1238

                     46                     47                     48
                      A                      A                      A
 Frequencies --   3109.5230              3123.4208              3126.2122
 Red. masses --      1.0991                 1.1024                 1.1023
 Frc consts  --      6.2617                 6.3363                 6.3475
 IR Inten    --     20.5973                25.2107                19.9567

                     49                     50                     51
                      A                      A                      A
 Frequencies --   3267.9981              3284.8465              3808.2686
 Red. masses --      1.0969                 1.0982                 1.0659
 Frc consts  --      6.9023                 6.9818                 9.1077
 IR Inten    --      1.0722                 0.0397                13.4417

 - Thermochemistry -
 -------------------
 Temperature   298.150 Kelvin.  Pressure   1.00000 Atm.
 Atom     1 has atomic number  6 and mass  12.00000

 Molecular mass:   126.06808 amu.
 Principal axes and moments of inertia in atomic units:
                           1         2         3
     Eigenvalues --   736.915191351.247991839.20262
           X            0.99963  -0.02216   0.01598
           Y            0.02211   0.99975   0.00335
           Z           -0.01605  -0.00300   0.99987
 This molecule is an asymmetric top.
 Rotational symmetry number  1.
 Warning -- assumption of classical behavior for rotation
           may cause significant error
 Rotational temperatures (Kelvin)      0.11754     0.06410     0.04709
 Rotational constants (GHZ):           2.44905     1.33561     0.98126
 Zero-point vibrational energy     416091.2 (Joules/Mol)
                                   99.44818 (Kcal/Mol)
 Warning -- explicit consideration of  12 degrees of freedom as
           vibrations may cause significant error
 Vibrational temperatures:     86.28   195.56   221.89   248.87   340.94
          (Kelvin)            374.00   411.44   509.79   535.75   648.88
                              742.05   881.43   896.50   982.52  1056.29
                             1083.74  1139.27  1281.58  1322.85  1457.49
                             1457.85  1528.99  1551.13  1563.07  1598.18
                             1685.99  1713.22  1791.82  1848.57  1882.69
                             1941.95  2004.67  2029.60  2038.87  2051.42
                             2132.56  2133.62  2149.96  2156.45  2267.38
                             2371.18  4239.66  4354.32  4381.45  4423.66
                             4473.90  4493.90  4497.92  4701.91  4726.16
                             5479.24

 Zero-point correction=                           0.158481 (Hartree/Particle)
 Thermal correction to Energy=                    0.167735
 Thermal correction to Enthalpy=                  0.168679
 Thermal correction to Gibbs Free Energy=         0.124344
 Sum of electronic and zero-point Energies=           -423.059202
 Sum of electronic and thermal Energies=              -423.049948
 Sum of electronic and thermal Enthalpies=            -423.049004
 Sum of electronic and thermal Free Energies=         -423.093339

                     E (Thermal)             CV                S
                      KCal/Mol        Cal/Mol-Kelvin    Cal/Mol-Kelvin
 Total                  105.255             34.282             93.309
 Electronic               0.000              0.000              0.000
 Translational            0.889              2.981             40.409
 Rotational               0.889              2.981             28.995
 Vibrational            103.478             28.321             23.906
 Vibration     1          0.597              1.973              4.458
 Vibration     2          0.614              1.917              2.861
 Vibration     3          0.620              1.898              2.619
 Vibration     4          0.626              1.876              2.403
 Vibration     5          0.656              1.784              1.826
 Vibration     6          0.668              1.746              1.662
 Vibration     7          0.684              1.700              1.498
 Vibration     8          0.730              1.566              1.147
 Vibration     9          0.744              1.529              1.070
 Vibration    10          0.810              1.359              0.793
 Vibration    11          0.871              1.215              0.620
 Vibration    12          0.972              1.005              0.428

 Normal termination of Gaussian 09 at Mon Jan 27 11:03:33 2020.
