 Gaussian 09, Revision D.01,
 Gaussian 09:  ES64L-G09RevD.01 24-Apr-2013

 -----------------------------
 # b3lyp 6-31G(2df,p) opt Freq
 -----------------------------

 -----
 titel
 -----
 Symbolic Z-matrix:
 Charge =  0 Multiplicity = 1

 SCF Done:  E(RB3LYP) =  -423.159624104     A.U. after   14 cycles
 Optimization completed.
    -- Stationary point found.
 Normal termination of Gaussian 09 at Tue Jan 28 13:34:27 2020.

 ----------------------------------------------------------------------
 #N Geom=AllCheck Guess=TCheck SCRF=Check GenChk RB3LYP/6-31G(2df,p) Fr
 eq
 ----------------------------------------------------------------------

 Structure from the checkpoint file:  "/scratch/puck/g09_4a7503c6-07d5-4d40-b2cf-c3fd3de6e1c8/Gau-94058.chk"
 -----
 titel
 -----
 Charge =  0 Multiplicity = 1

                         Standard orientation:
 ---------------------------------------------------------------------
 Center     Atomic      Atomic             Coordinates (Angstroms)
 Number     Number       Type             X           Y           Z
 ---------------------------------------------------------------------
      1          6           0        3.132528   -0.699337   -0.147028
      2          6           0        2.010194   -0.163368    0.745726
      3          6           0        1.006816    0.674036   -0.025468
      4          8           0        0.297319   -0.127917   -1.027430
      5          6           0       -0.933179    0.056574   -0.334840
      6          6           0       -1.322299    1.508759   -0.263336
      7          6           0       -0.300143    0.993230    0.702909
      8          6           0       -1.846647   -1.079354   -0.132754
      9          8           0       -2.909293   -0.998936    0.437961
     10          1           0        3.823991   -1.325097    0.424052
     11          1           0        2.717829   -1.301185   -0.960299
     12          1           0        3.709859    0.117983   -0.592783
     13          1           0        1.478535   -0.993279    1.226770
     14          1           0        2.422846    0.459317    1.550857
     15          1           0        1.498205    1.531106   -0.505079
     16          1           0       -1.028440    2.150901   -1.088666
     17          1           0       -2.307096    1.684249    0.156126
     18          1           0       -0.443277    0.985847    1.775480
     19          1           0       -1.460278   -2.038262   -0.541945
 ---------------------------------------------------------------------

 SCF Done:  E(RB3LYP) =  -423.159624104     A.U. after    1 cycles

 The electronic state is 1-A.
 Alpha  occ. eigenvalues --  -19.15220 -19.13750 -10.27272 -10.25503 -10.25113
 Alpha  occ. eigenvalues --  -10.21730 -10.20684 -10.19362 -10.18035  -1.06829
 Alpha  occ. eigenvalues --   -1.04266  -0.85014  -0.79297  -0.71309  -0.66762
 Alpha  occ. eigenvalues --   -0.61478  -0.58424  -0.54386  -0.52265  -0.49624
 Alpha  occ. eigenvalues --   -0.47570  -0.44754  -0.43162  -0.42718  -0.40677
 Alpha  occ. eigenvalues --   -0.39430  -0.38251  -0.36245  -0.36118  -0.34942
 Alpha  occ. eigenvalues --   -0.32702  -0.29697  -0.25677  -0.24592
 Alpha virt. eigenvalues --   -0.03581   0.07714   0.09996   0.11438   0.11602
 Alpha virt. eigenvalues --    0.12275   0.12919   0.14464   0.15455   0.15466
 Alpha virt. eigenvalues --    0.17000   0.17929   0.18358   0.20082   0.21763

 Mulliken charges:
               1
     1  C   -0.386486
     2  C   -0.188229
     3  C    0.124358
     4  O   -0.333043
     5  C    0.348099
     6  C   -0.341507
     7  C   -0.165159
     8  C    0.070778
     9  O   -0.271163
    10  H    0.116753
    11  H    0.139019
    12  H    0.116358
    13  H    0.103287
    14  H    0.100757
    15  H    0.085037
    16  H    0.125378
    17  H    0.148747
    18  H    0.120060
    19  H    0.086955
 Sum of Mulliken charges =   0.00000

 Dipole moment (field-independent basis, Debye):
    X=              2.3848    Y=              1.3458    Z=              0.5634  Tot=              2.7957
 Quadrupole moment (field-independent basis, Debye-Ang):
   XX=            -60.0268   YY=            -51.4932   ZZ=            -53.9552
   XY=             -2.7848   XZ=              3.4477   YZ=              0.3753

  Exact polarizability:  94.168   1.737  76.628  -1.068   0.685  62.697
 Approx polarizability: 126.997   7.813 114.105  -4.285   4.264 100.517

                      1                      2                      3
                      A                      A                      A
 Frequencies --     76.0541               103.0634               156.6552
 Red. masses --      4.5306                 2.6812                 2.0838
 Frc consts  --      0.0154                 0.0168                 0.0301
 IR Inten    --      1.1341                 1.8485                 6.8153

                      4                      5                      6
                      A                      A                      A
 Frequencies --    184.3153               209.0594               232.0775
 Red. masses --      2.5799                 3.9582                 1.2610
 Frc consts  --      0.0516                 0.1019                 0.0400
 IR Inten    --      1.2756                 8.8305                 0.9756

                      7                      8                      9
                      A                      A                      A
 Frequencies --    321.9001               374.3320               429.9114
 Red. masses --      2.3435                 3.5671                 3.7199
 Frc consts  --      0.1431                 0.2945                 0.4051
 IR Inten    --      3.0376                 2.4141                 2.1546

                     10                     11                     12
                      A                      A                      A
 Frequencies --    477.6926               546.6839               713.0623
 Red. masses --      2.6193                 3.9667                 3.1106
 Frc consts  --      0.3521                 0.6985                 0.9319
 IR Inten    --      0.6031                 5.1727                10.5622

                     13                     14                     15
                      A                      A                      A
 Frequencies --    753.6685               790.7678               832.0982
 Red. masses --      1.8696                 2.9003                 2.8913
 Frc consts  --      0.6257                 1.0685                 1.1795
 IR Inten    --      0.6134                 2.7119                 1.8042

                     16                     17                     18
                      A                      A                      A
 Frequencies --    870.9248               897.7167               946.0115
 Red. masses --      1.6344                 2.3484                 1.5920
 Frc consts  --      0.7304                 1.1151                 0.8394
 IR Inten    --      7.6886                54.3554                25.9198

                     19                     20                     21
                      A                      A                      A
 Frequencies --    962.9780               986.6865              1024.1116
 Red. masses --      2.1176                 1.7124                 2.0291
 Frc consts  --      1.1570                 0.9822                 1.2539
 IR Inten    --     21.7406                12.2605                13.2436

                     22                     23                     24
                      A                      A                      A
 Frequencies --   1043.8677              1063.2944              1065.6954
 Red. masses --      1.9950                 1.9115                 1.4822
 Frc consts  --      1.2808                 1.2733                 0.9918
 IR Inten    --     27.5339                31.5792                 6.0605

                     25                     26                     27
                      A                      A                      A
 Frequencies --   1084.5168              1104.8732              1167.7236
 Red. masses --      1.7886                 1.8922                 2.5148
 Frc consts  --      1.2394                 1.3610                 2.0204
 IR Inten    --      9.0783                14.0580                32.9981

                     28                     29                     30
                      A                      A                      A
 Frequencies --   1188.6650              1259.0019              1279.0392
 Red. masses --      2.0527                 1.5116                 1.3495
 Frc consts  --      1.7088                 1.4116                 1.3008
 IR Inten    --     26.3156                14.9503                 5.3567

                     31                     32                     33
                      A                      A                      A
 Frequencies --   1295.5452              1342.4766              1368.7186
 Red. masses --      1.5474                 1.3814                 2.1850
 Frc consts  --      1.5303                 1.4668                 2.4117
 IR Inten    --     23.1832                 5.3638                21.2143

                     34                     35                     36
                      A                      A                      A
 Frequencies --   1404.5919              1410.8911              1419.4128
 Red. masses --      1.6273                 1.2593                 1.4665
 Frc consts  --      1.8916                 1.4770                 1.7408
 IR Inten    --      6.6181                 8.2606                12.1505

                     37                     38                     39
                      A                      A                      A
 Frequencies --   1465.3313              1475.5697              1498.4763
 Red. masses --      1.3787                 1.0778                 1.0434
 Frc consts  --      1.7442                 1.3826                 1.3804
 IR Inten    --     11.1665                 1.0338                 5.0579

                     40                     41                     42
                      A                      A                      A
 Frequencies --   1509.6824              1801.9697              2900.6640
 Red. masses --      1.0581                10.1022                 1.0833
 Frc consts  --      1.4209                19.3269                 5.3703
 IR Inten    --      4.7058               176.5867                94.8925

                     43                     44                     45
                      A                      A                      A
 Frequencies --   3018.5596              3021.6293              3039.5578
 Red. masses --      1.0837                 1.0609                 1.0376
 Frc consts  --      5.8177                 5.7067                 5.6481
 IR Inten    --     31.1922                22.3003                24.7090

                     46                     47                     48
                      A                      A                      A
 Frequencies --   3063.4455              3107.3326              3122.9581
 Red. masses --      1.0996                 1.1004                 1.0547
 Frc consts  --      6.0801                 6.2602                 6.0603
 IR Inten    --     27.7059                33.3740                 8.2671

                     49                     50                     51
                      A                      A                      A
 Frequencies --   3123.1601              3204.7744              3226.6875
 Red. masses --      1.1019                 1.0947                 1.1150
 Frc consts  --      6.3323                 6.6246                 6.8400
 IR Inten    --     20.4425                 3.6892                 1.9136

 - Thermochemistry -
 -------------------
 Temperature   298.150 Kelvin.  Pressure   1.00000 Atm.
 Atom     1 has atomic number  6 and mass  12.00000

 Molecular mass:   126.06808 amu.
 Principal axes and moments of inertia in atomic units:
                           1         2         3
     Eigenvalues --   521.506281745.611201941.90974
           X            0.99959  -0.02800   0.00621
           Y            0.02800   0.99961   0.00121
           Z           -0.00624  -0.00103   0.99998
 This molecule is an asymmetric top.
 Rotational symmetry number  1.
 Warning -- assumption of classical behavior for rotation
           may cause significant error
 Rotational temperatures (Kelvin)      0.16608     0.04962     0.04460
 Rotational constants (GHZ):           3.46063     1.03387     0.92936
 Zero-point vibrational energy     412519.5 (Joules/Mol)
                                   98.59454 (Kcal/Mol)
 Warning -- explicit consideration of  11 degrees of freedom as
           vibrations may cause significant error
 Vibrational temperatures:    109.42   148.29   225.39   265.19   300.79
          (Kelvin)            333.91   463.14   538.58   618.55   687.29
                              786.56  1025.94  1084.36  1137.74  1197.20
                             1253.06  1291.61  1361.10  1385.51  1419.62
                             1473.47  1501.89  1529.84  1533.30  1560.38
                             1589.66  1680.09  1710.22  1811.42  1840.25
                             1864.00  1931.52  1969.28  2020.89  2029.96
                             2042.22  2108.28  2123.01  2155.97  2172.09
                             2592.63  4173.40  4343.03  4347.45  4373.24
                             4407.61  4470.75  4493.23  4493.53  4610.95
                             4642.48

 Zero-point correction=                           0.157120 (Hartree/Particle)
 Thermal correction to Energy=                    0.166083
 Thermal correction to Enthalpy=                  0.167027
 Thermal correction to Gibbs Free Energy=         0.123147
 Sum of electronic and zero-point Energies=           -423.002504
 Sum of electronic and thermal Energies=              -422.993541
 Sum of electronic and thermal Enthalpies=            -422.992597
 Sum of electronic and thermal Free Energies=         -423.036477

                     E (Thermal)             CV                S
                      KCal/Mol        Cal/Mol-Kelvin    Cal/Mol-Kelvin
 Total                  104.218             33.038             92.353
 Electronic               0.000              0.000              0.000
 Translational            0.889              2.981             40.409
 Rotational               0.889              2.981             28.960
 Vibrational            102.441             27.076             22.985
 Vibration     1          0.599              1.965              3.990
 Vibration     2          0.605              1.947              3.396
 Vibration     3          0.620              1.895              2.590
 Vibration     4          0.631              1.861              2.284
 Vibration     5          0.642              1.827              2.052
 Vibration     6          0.653              1.792              1.863
 Vibration     7          0.707              1.632              1.300
 Vibration     8          0.745              1.525              1.062
 Vibration     9          0.791              1.405              0.859
 Vibration    10          0.834              1.300              0.716
 Vibration    11          0.902              1.147              0.551

 Optimization completed.
    -- Stationary point found.
 Normal termination of Gaussian 09 at Tue Jan 28 14:54:54 2020.
