 Gaussian 09, Revision D.01,
 Gaussian 09:  ES64L-G09RevD.01 24-Apr-2013

 -----------------------------
 # b3lyp 6-31G(2df,p) opt Freq
 -----------------------------

 -----
 titel
 -----
 Symbolic Z-matrix:
 Charge =  0 Multiplicity = 1

 SCF Done:  E(RB3LYP) =  -423.165471554     A.U. after   13 cycles
 Optimization completed.
    -- Stationary point found.
 Normal termination of Gaussian 09 at Tue Jan 28 12:12:12 2020.

 ----------------------------------------------------------------------
 #N Geom=AllCheck Guess=TCheck SCRF=Check GenChk RB3LYP/6-31G(2df,p) Fr
 eq
 ----------------------------------------------------------------------

 Structure from the checkpoint file:  "/scratch/puck/g09_e0c4973c-adeb-40d5-a7d5-d2a2fe446a1e/Gau-54397.chk"
 -----
 titel
 -----
 Charge =  0 Multiplicity = 1

                         Standard orientation:
 ---------------------------------------------------------------------
 Center     Atomic      Atomic             Coordinates (Angstroms)
 Number     Number       Type             X           Y           Z
 ---------------------------------------------------------------------
      1          6           0       -2.396933   -0.517051   -0.537494
      2          8           0       -1.706576    0.562103    0.062167
      3          6           0       -0.343087    0.335778    0.296636
      4          6           0        0.406570    1.635228    0.645775
      5          8           0        1.429497    1.346943   -0.330516
      6          6           0        0.686553    0.233252   -0.878323
      7          6           0        1.432021   -1.097454   -0.737899
      8          6           0        0.953360   -1.616578    0.601838
      9          6           0        0.000160   -0.861085    1.148828
     10          1           0       -2.376280   -1.420874    0.085521
     11          1           0       -3.432716   -0.195161   -0.666256
     12          1           0       -1.980392   -0.768954   -1.524032
     13          1           0       -0.173482    2.530308    0.388760
     14          1           0        0.814932    1.727484    1.657693
     15          1           0        0.318240    0.451537   -1.886459
     16          1           0        1.211073   -1.800735   -1.551907
     17          1           0        2.513360   -0.918530   -0.753492
     18          1           0        1.369178   -2.510336    1.055494
     19          1           0       -0.479144   -1.039652    2.105293
 ---------------------------------------------------------------------

 SCF Done:  E(RB3LYP) =  -423.165471554     A.U. after    1 cycles

 The electronic state is 1-A.
 Alpha  occ. eigenvalues --  -19.14659 -19.13025 -10.23915 -10.22771 -10.22638
 Alpha  occ. eigenvalues --  -10.22291 -10.19284 -10.18794 -10.18320  -1.04994
 Alpha  occ. eigenvalues --   -1.02391  -0.82949  -0.74476  -0.70529  -0.66206
 Alpha  occ. eigenvalues --   -0.65267  -0.56144  -0.53394  -0.52296  -0.49060
 Alpha  occ. eigenvalues --   -0.46332  -0.44921  -0.44290  -0.42627  -0.40818
 Alpha  occ. eigenvalues --   -0.39089  -0.38167  -0.36185  -0.34638  -0.32133
 Alpha  occ. eigenvalues --   -0.30388  -0.25918  -0.24927  -0.24680
 Alpha virt. eigenvalues --    0.00778   0.08183   0.09436   0.12656   0.13143
 Alpha virt. eigenvalues --    0.13756   0.14288   0.15257   0.15962   0.16164
 Alpha virt. eigenvalues --    0.16469   0.17373   0.19652   0.20881   0.21209

 Mulliken charges:
               1
     1  C   -0.255423
     2  O   -0.287801
     3  C    0.338758
     4  C   -0.123155
     5  O   -0.295707
     6  C    0.062195
     7  C   -0.282355
     8  C   -0.054312
     9  C   -0.168102
    10  H    0.114789
    11  H    0.129497
    12  H    0.107553
    13  H    0.105062
    14  H    0.102788
    15  H    0.075165
    16  H    0.104025
    17  H    0.126724
    18  H    0.100455
    19  H    0.099844
 Sum of Mulliken charges =   0.00000

 Dipole moment (field-independent basis, Debye):
    X=             -0.7985    Y=             -1.9752    Z=              0.0336  Tot=              2.1307
 Quadrupole moment (field-independent basis, Debye-Ang):
   XX=            -54.5834   YY=            -53.2442   ZZ=            -50.6945
   XY=             -1.4782   XZ=              1.3160   YZ=              1.2298

  Exact polarizability:  79.323  -6.630  77.666  -2.882   2.750  70.865
 Approx polarizability: 115.489 -13.246 113.060  -9.642   7.479 106.780

                      1                      2                      3
                      A                      A                      A
 Frequencies --    103.7289               128.6637               169.4681
 Red. masses --      2.5677                 3.1514                 1.2802
 Frc consts  --      0.0163                 0.0307                 0.0217
 IR Inten    --      1.4122                 1.8728                 0.2787

                      4                      5                      6
                      A                      A                      A
 Frequencies --    205.8895               259.4534               349.5025
 Red. masses --      2.4208                 2.3275                 3.5903
 Frc consts  --      0.0605                 0.0923                 0.2584
 IR Inten    --      2.6940                 3.6490                 5.2189

                      7                      8                      9
                      A                      A                      A
 Frequencies --    400.9330               439.8278               491.4423
 Red. masses --      3.1741                 2.3665                 2.8954
 Frc consts  --      0.3006                 0.2697                 0.4120
 IR Inten    --      0.9550                 3.0908                 0.7716

                     10                     11                     12
                      A                      A                      A
 Frequencies --    606.5573               685.1938               756.1102
 Red. masses --      4.7074                 3.2550                 2.9437
 Frc consts  --      1.0204                 0.9004                 0.9916
 IR Inten    --      7.7866                 3.8586                10.9186

                     13                     14                     15
                      A                      A                      A
 Frequencies --    763.9993               858.4555               865.7487
 Red. masses --      1.9269                 2.5683                 2.6567
 Frc consts  --      0.6627                 1.1151                 1.1732
 IR Inten    --     13.8727                10.8758                11.4877

                     16                     17                     18
                      A                      A                      A
 Frequencies --    926.9960               941.5164               980.6099
 Red. masses --      2.0514                 2.1857                 1.2888
 Frc consts  --      1.0386                 1.1416                 0.7302
 IR Inten    --      5.3628                 4.9560                 0.2096

                     19                     20                     21
                      A                      A                      A
 Frequencies --   1007.4045              1016.7632              1048.6619
 Red. masses --      4.9305                 2.0495                 3.2786
 Frc consts  --      2.9482                 1.2484                 2.1243
 IR Inten    --     34.8948                 5.1338                47.8759

                     22                     23                     24
                      A                      A                      A
 Frequencies --   1058.1499              1084.4679              1141.3002
 Red. masses --      1.8891                 3.9711                 1.4860
 Frc consts  --      1.2462                 2.7517                 1.1404
 IR Inten    --     10.5377                25.0489                 3.0406

                     25                     26                     27
                      A                      A                      A
 Frequencies --   1147.1689              1171.0418              1181.3680
 Red. masses --      1.5899                 1.3390                 1.2850
 Frc consts  --      1.2327                 1.0819                 1.0566
 IR Inten    --     10.8958                 8.8029                 2.0546

                     28                     29                     30
                      A                      A                      A
 Frequencies --   1197.7446              1208.6481              1237.2910
 Red. masses --      1.6330                 2.5323                 1.8164
 Frc consts  --      1.3803                 2.1795                 1.6384
 IR Inten    --     46.9792                78.0341                 7.9462

                     31                     32                     33
                      A                      A                      A
 Frequencies --   1263.0652              1309.1874              1327.4197
 Red. masses --      2.0986                 1.4821                 1.5232
 Frc consts  --      1.9726                 1.4967                 1.5813
 IR Inten    --     62.2217                10.7934                 0.6094

                     34                     35                     36
                      A                      A                      A
 Frequencies --   1355.3136              1384.5809              1463.9450
 Red. masses --      1.4782                 1.7777                 1.0962
 Frc consts  --      1.5998                 2.0079                 1.3842
 IR Inten    --      4.0673                23.5285                 5.8406

                     37                     38                     39
                      A                      A                      A
 Frequencies --   1478.8556              1486.5952              1507.5877
 Red. masses --      1.1506                 1.0533                 1.0550
 Frc consts  --      1.4826                 1.3714                 1.4128
 IR Inten    --      1.3566                 5.7462                 9.6355

                     40                     41                     42
                      A                      A                      A
 Frequencies --   1513.7813              1674.2243              2989.9616
 Red. masses --      1.1060                 6.4877                 1.0385
 Frc consts  --      1.4933                10.7143                 5.4702
 IR Inten    --      0.7810                 5.9106                38.1800

                     43                     44                     45
                      A                      A                      A
 Frequencies --   3018.3501              3019.7805              3045.4247
 Red. masses --      1.0647                 1.0571                 1.0969
 Frc consts  --      5.7151                 5.6795                 5.9940
 IR Inten    --      7.3774                85.8681                22.1128

                     46                     47                     48
                      A                      A                      A
 Frequencies --   3052.0458              3066.9000              3078.1771
 Red. masses --      1.0882                 1.0968                 1.1099
 Frc consts  --      5.9721                 6.0784                 6.1959
 IR Inten    --     63.5632                13.8658                36.3705

                     49                     50                     51
                      A                      A                      A
 Frequencies --   3121.0372              3178.5993              3203.2784
 Red. masses --      1.0983                 1.0846                 1.1034
 Frc consts  --      6.3033                 6.4565                 6.6710
 IR Inten    --     28.3744                 6.4785                16.2091

 - Thermochemistry -
 -------------------
 Temperature   298.150 Kelvin.  Pressure   1.00000 Atm.
 Atom     1 has atomic number  6 and mass  12.00000

 Molecular mass:   126.06808 amu.
 Principal axes and moments of inertia in atomic units:
                           1         2         3
     Eigenvalues --   767.808711036.092821339.20533
           X            0.99984  -0.00997   0.01514
           Y            0.00946   0.99940   0.03328
           Z           -0.01546  -0.03313   0.99933
 This molecule is an asymmetric top.
 Rotational symmetry number  1.
 Warning -- assumption of classical behavior for rotation
           may cause significant error
 Rotational temperatures (Kelvin)      0.11281     0.08360     0.06468
 Rotational constants (GHZ):           2.35051     1.74187     1.34762
 Zero-point vibrational energy     418526.8 (Joules/Mol)
                                  100.03030 (Kcal/Mol)
 Warning -- explicit consideration of  10 degrees of freedom as
           vibrations may cause significant error
 Vibrational temperatures:    149.24   185.12   243.83   296.23   373.30
          (Kelvin)            502.86   576.85   632.81   707.08   872.70
                              985.84  1087.87  1099.22  1235.12  1245.62
                             1333.74  1354.63  1410.88  1449.43  1462.89
                             1508.79  1522.44  1560.31  1642.07  1650.52
                             1684.87  1699.72  1723.29  1738.97  1780.18
                             1817.27  1883.63  1909.86  1949.99  1992.10
                             2106.29  2127.74  2138.88  2169.08  2177.99
                             2408.83  4301.88  4342.73  4344.79  4381.68
                             4391.21  4412.58  4428.80  4490.47  4573.29
                             4608.80

 Zero-point correction=                           0.159408 (Hartree/Particle)
 Thermal correction to Energy=                    0.167536
 Thermal correction to Enthalpy=                  0.168480
 Thermal correction to Gibbs Free Energy=         0.126739
 Sum of electronic and zero-point Energies=           -423.006063
 Sum of electronic and thermal Energies=              -422.997936
 Sum of electronic and thermal Enthalpies=            -422.996992
 Sum of electronic and thermal Free Energies=         -423.038732

                     E (Thermal)             CV                S
                      KCal/Mol        Cal/Mol-Kelvin    Cal/Mol-Kelvin
 Total                  105.130             31.013             87.851
 Electronic               0.000              0.000              0.000
 Translational            0.889              2.981             40.409
 Rotational               0.889              2.981             28.457
 Vibrational            103.353             25.051             18.986
 Vibration     1          0.605              1.946              3.383
 Vibration     2          0.611              1.925              2.966
 Vibration     3          0.625              1.880              2.441
 Vibration     4          0.640              1.831              2.080
 Vibration     5          0.668              1.747              1.665
 Vibration     6          0.727              1.576              1.168
 Vibration     7          0.767              1.468              0.959
 Vibration     8          0.800              1.383              0.827
 Vibration     9          0.847              1.269              0.680
 Vibration    10          0.965              1.018              0.439

 Normal termination of Gaussian 09 at Tue Jan 28 13:00:52 2020.
