 Gaussian 09, Revision D.01,
 Gaussian 09:  ES64L-G09RevD.01 24-Apr-2013

 -----------------------------
 # b3lyp 6-31G(2df,p) opt Freq
 -----------------------------

 -----
 titel
 -----
 Symbolic Z-matrix:
 Charge =  0 Multiplicity = 1

 SCF Done:  E(RB3LYP) =  -423.230278475     A.U. after   14 cycles
 Optimization completed.
    -- Stationary point found.
 Normal termination of Gaussian 09 at Mon Jan 27 12:57:05 2020.

 ----------------------------------------------------------------------
 #N Geom=AllCheck Guess=TCheck SCRF=Check GenChk RB3LYP/6-31G(2df,p) Fr
 eq
 ----------------------------------------------------------------------

 Structure from the checkpoint file:  "/scratch/puck/g09_78400781-e7ca-4488-9b21-73e72438cf1e/Gau-73218.chk"
 -----
 titel
 -----
 Charge =  0 Multiplicity = 1

                         Standard orientation:
 ---------------------------------------------------------------------
 Center     Atomic      Atomic             Coordinates (Angstroms)
 Number     Number       Type             X           Y           Z
 ---------------------------------------------------------------------
      1          8           0        2.564898   -0.098684   -0.472636
      2          6           0        1.465576   -0.033570    0.021987
      3          6           0        0.696176   -1.296734    0.425803
      4          6           0       -0.834585   -1.134502    0.360722
      5          6           0       -1.298486   -0.697502   -1.038018
      6          8           0       -1.119397    0.726004   -1.080809
      7          6           0       -0.744957    1.190687    0.225279
      8          6           0       -1.251647    0.101444    1.176202
      9          6           0        0.783526    1.308501    0.298820
     10          1           0        1.055946   -2.117829   -0.200921
     11          1           0        0.992135   -1.534608    1.457508
     12          1           0       -1.327798   -2.054750    0.683161
     13          1           0       -0.718111   -1.157341   -1.846315
     14          1           0       -2.358792   -0.936235   -1.199079
     15          1           0       -1.218020    2.164773    0.378195
     16          1           0       -0.798112    0.145488    2.169868
     17          1           0       -2.338752    0.157275    1.285734
     18          1           0        1.164953    2.034668   -0.423305
     19          1           0        1.088930    1.650071    1.297941
 ---------------------------------------------------------------------

 SCF Done:  E(RB3LYP) =  -423.230278475     A.U. after    1 cycles

 The electronic state is 1-A.
 Alpha  occ. eigenvalues --  -19.13813 -19.12624 -10.26893 -10.24000 -10.23064
 Alpha  occ. eigenvalues --  -10.20431 -10.19467 -10.19398 -10.18844  -1.04015
 Alpha  occ. eigenvalues --   -1.03313  -0.82749  -0.77751  -0.73038  -0.68518
 Alpha  occ. eigenvalues --   -0.60027  -0.58188  -0.54098  -0.50517  -0.47861
 Alpha  occ. eigenvalues --   -0.46509  -0.44036  -0.43603  -0.42123  -0.41453
 Alpha  occ. eigenvalues --   -0.40785  -0.39759  -0.36068  -0.34332  -0.34034
 Alpha  occ. eigenvalues --   -0.33316  -0.31180  -0.25530  -0.23781
 Alpha virt. eigenvalues --   -0.01500   0.07456   0.10401   0.11934   0.12005
 Alpha virt. eigenvalues --    0.13823   0.14874   0.15512   0.15946   0.16443
 Alpha virt. eigenvalues --    0.16808   0.17902   0.18939   0.20387   0.21853

 Mulliken charges:
               1
     1  O   -0.306704
     2  C    0.398700
     3  C   -0.315748
     4  C   -0.047529
     5  C   -0.075541
     6  O   -0.278788
     7  C    0.099700
     8  C   -0.234497
     9  C   -0.310922
    10  H    0.125368
    11  H    0.123044
    12  H    0.077304
    13  H    0.109519
    14  H    0.097734
    15  H    0.081806
    16  H    0.099827
    17  H    0.106954
    18  H    0.132082
    19  H    0.117689
 Sum of Mulliken charges =   0.00000

 Dipole moment (field-independent basis, Debye):
    X=             -2.3738    Y=             -0.7643    Z=              2.3740  Tot=              3.4431
 Quadrupole moment (field-independent basis, Debye-Ang):
   XX=            -61.3605   YY=            -50.1324   ZZ=            -53.1702
   XY=              1.9488   XZ=              1.3411   YZ=              2.1597

  Exact polarizability:  78.994   1.429  75.037  -2.366   2.788  67.136
 Approx polarizability: 114.009   0.564 106.991  -6.186   2.828 104.690

                      1                      2                      3
                      A                      A                      A
 Frequencies --     74.6689               134.1846               323.2672
 Red. masses --      4.8223                 3.2387                 2.1867
 Frc consts  --      0.0158                 0.0344                 0.1346
 IR Inten    --      3.3917                 3.2972                 2.1221

                      4                      5                      6
                      A                      A                      A
 Frequencies --    343.5408               386.4174               443.5279
 Red. masses --      2.2391                 2.5945                 3.4250
 Frc consts  --      0.1557                 0.2283                 0.3970
 IR Inten    --      0.4713                 1.7137                 7.8462

                      7                      8                      9
                      A                      A                      A
 Frequencies --    473.9341               505.8854               591.1732
 Red. masses --      2.3397                 4.0117                 3.4907
 Frc consts  --      0.3096                 0.6049                 0.7188
 IR Inten    --      3.5505                 1.6965                 1.5950

                     10                     11                     12
                      A                      A                      A
 Frequencies --    717.9559               725.5187               819.5191
 Red. masses --      4.1212                 3.5731                 2.4988
 Frc consts  --      1.2516                 1.1081                 0.9888
 IR Inten    --      0.8678                 0.8664                10.5680

                     13                     14                     15
                      A                      A                      A
 Frequencies --    847.0709               848.5466               882.4216
 Red. masses --      3.2652                 2.2216                 2.6695
 Frc consts  --      1.3804                 0.9425                 1.2247
 IR Inten    --      2.2895                 0.9328                 8.2349

                     16                     17                     18
                      A                      A                      A
 Frequencies --    899.3215               934.9462               962.0427
 Red. masses --      2.3472                 1.7478                 2.7066
 Frc consts  --      1.1185                 0.9002                 1.4759
 IR Inten    --      6.3368                 9.7888                 9.5822

                     19                     20                     21
                      A                      A                      A
 Frequencies --   1003.5721              1023.7389              1045.7446
 Red. masses --      2.3984                 1.4978                 2.9035
 Frc consts  --      1.4232                 0.9249                 1.8708
 IR Inten    --     17.3909                10.2141                20.0218

                     22                     23                     24
                      A                      A                      A
 Frequencies --   1074.0695              1085.9501              1108.7310
 Red. masses --      1.4302                 1.4560                 2.5720
 Frc consts  --      0.9721                 1.0117                 1.8628
 IR Inten    --     10.1346                14.2778                59.1074

                     25                     26                     27
                      A                      A                      A
 Frequencies --   1176.1741              1192.5256              1212.7183
 Red. masses --      1.1459                 1.3987                 1.5389
 Frc consts  --      0.9340                 1.1719                 1.3335
 IR Inten    --      5.4806                 7.8112                15.1714

                     28                     29                     30
                      A                      A                      A
 Frequencies --   1228.8323              1258.4172              1304.9710
 Red. masses --      1.4514                 1.7364                 1.5711
 Frc consts  --      1.2913                 1.6201                 1.5763
 IR Inten    --     30.7810                 3.5282                 5.0215

                     31                     32                     33
                      A                      A                      A
 Frequencies --   1309.5576              1323.9256              1338.4733
 Red. masses --      1.8817                 1.4392                 1.5340
 Frc consts  --      1.9013                 1.4862                 1.6192
 IR Inten    --      1.5781                 2.9069                 2.8457

                     34                     35                     36
                      A                      A                      A
 Frequencies --   1368.2963              1377.2877              1394.3026
 Red. masses --      1.4676                 1.4230                 1.4068
 Frc consts  --      1.6189                 1.5904                 1.6114
 IR Inten    --      7.4780                13.1654                 1.3612

                     37                     38                     39
                      A                      A                      A
 Frequencies --   1444.6483              1455.4173              1492.8105
 Red. masses --      1.0862                 1.0838                 1.1036
 Frc consts  --      1.3356                 1.3527                 1.4490
 IR Inten    --      6.8852                 5.5048                 5.8705

                     40                     41                     42
                      A                      A                      A
 Frequencies --   1531.0672              1819.4293              3005.3862
 Red. masses --      1.0922                11.9490                 1.0637
 Frc consts  --      1.5084                23.3052                 5.6606
 IR Inten    --      0.2086               178.2862                70.8153

                     43                     44                     45
                      A                      A                      A
 Frequencies --   3018.0645              3023.1973              3054.8075
 Red. masses --      1.0670                 1.0675                 1.0637
 Frc consts  --      5.7263                 5.7487                 5.8483
 IR Inten    --      7.0053                13.0819                 8.0591

                     46                     47                     48
                      A                      A                      A
 Frequencies --   3055.8635              3071.3928              3082.5348
 Red. masses --      1.1012                 1.0853                 1.0870
 Frc consts  --      6.0585                 6.0321                 6.0857
 IR Inten    --     32.9125                51.9077                34.2843

                     49                     50                     51
                      A                      A                      A
 Frequencies --   3093.0243              3105.2278              3108.4515
 Red. masses --      1.0935                 1.0961                 1.1038
 Frc consts  --      6.1638                 6.2270                 6.2838
 IR Inten    --     15.1578                10.6577                21.9379

 - Thermochemistry -
 -------------------
 Temperature   298.150 Kelvin.  Pressure   1.00000 Atm.
 Atom     1 has atomic number  8 and mass  15.99491

 Molecular mass:   126.06808 amu.
 Principal axes and moments of inertia in atomic units:
                           1         2         3
     Eigenvalues --   663.490201111.823461254.56086
           X            0.99970   0.02447   0.00166
           Y           -0.02453   0.99759   0.06496
           Z           -0.00007  -0.06498   0.99789
 This molecule is an asymmetric top.
 Rotational symmetry number  1.
 Warning -- assumption of classical behavior for rotation
           may cause significant error
 Rotational temperatures (Kelvin)      0.13054     0.07790     0.06904
 Rotational constants (GHZ):           2.72007     1.62323     1.43854
 Zero-point vibrational energy     425287.7 (Joules/Mol)
                                  101.64620 (Kcal/Mol)
 Warning -- explicit consideration of   9 degrees of freedom as
           vibrations may cause significant error
 Vibrational temperatures:    107.43   193.06   465.11   494.28   555.97
          (Kelvin)            638.14   681.88   727.86   850.57  1032.98
                             1043.86  1179.10  1218.74  1220.87  1269.61
                             1293.92  1345.18  1384.16  1443.91  1472.93
                             1504.59  1545.34  1562.44  1595.21  1692.25
                             1715.78  1744.83  1768.01  1810.58  1877.56
                             1884.16  1904.83  1925.76  1968.67  1981.61
                             2006.09  2078.52  2094.02  2147.82  2202.86
                             2617.75  4324.08  4342.32  4349.70  4395.18
                             4396.70  4419.04  4435.07  4450.17  4467.72
                             4472.36

 Zero-point correction=                           0.161984 (Hartree/Particle)
 Thermal correction to Energy=                    0.169215
 Thermal correction to Enthalpy=                  0.170159
 Thermal correction to Gibbs Free Energy=         0.130119
 Sum of electronic and zero-point Energies=           -423.068295
 Sum of electronic and thermal Energies=              -423.061064
 Sum of electronic and thermal Enthalpies=            -423.060120
 Sum of electronic and thermal Free Energies=         -423.100159

                     E (Thermal)             CV                S
                      KCal/Mol        Cal/Mol-Kelvin    Cal/Mol-Kelvin
 Total                  106.184             28.930             84.271
 Electronic               0.000              0.000              0.000
 Translational            0.889              2.981             40.409
 Rotational               0.889              2.981             28.317
 Vibrational            104.406             22.968             15.545
 Vibration     1          0.599              1.966              4.026
 Vibration     2          0.613              1.919              2.885
 Vibration     3          0.708              1.629              1.294
 Vibration     4          0.722              1.588              1.196
 Vibration     5          0.755              1.499              1.014
 Vibration     6          0.803              1.375              0.816
 Vibration     7          0.831              1.308              0.727
 Vibration     8          0.861              1.237              0.644
 Vibration     9          0.949              1.051              0.465

 Optimization completed.
    -- Stationary point found.
 Normal termination of Gaussian 09 at Mon Jan 27 13:44:31 2020.
