 Gaussian 09, Revision D.01,
 Gaussian 09:  ES64L-G09RevD.01 24-Apr-2013

 -----------------------------
 # b3lyp 6-31G(2df,p) opt Freq
 -----------------------------

 -----
 titel
 -----
 Symbolic Z-matrix:
 Charge =  0 Multiplicity = 1

 SCF Done:  E(RB3LYP) =  -423.203246531     A.U. after   14 cycles
 Optimization completed.
    -- Stationary point found.
 Normal termination of Gaussian 09 at Mon Jan 27 22:02:39 2020.

 ----------------------------------------------------------------------
 #N Geom=AllCheck Guess=TCheck SCRF=Check GenChk RB3LYP/6-31G(2df,p) Fr
 eq
 ----------------------------------------------------------------------

 Structure from the checkpoint file:  "/scratch/puck/g09_266fc8b7-8ec3-4362-93fd-065efea40780/Gau-62659.chk"
 -----
 titel
 -----
 Charge =  0 Multiplicity = 1

                         Standard orientation:
 ---------------------------------------------------------------------
 Center     Atomic      Atomic             Coordinates (Angstroms)
 Number     Number       Type             X           Y           Z
 ---------------------------------------------------------------------
      1          6           0       -2.605686   -1.336018   -0.093801
      2          6           0       -1.374511   -0.485344    0.034843
      3          6           0       -0.206157   -0.939436    0.493380
      4          6           0        1.007644   -0.050953    0.648732
      5          6           0        0.564884    1.420080    0.622772
      6          8           0       -0.306034    1.667550   -0.465543
      7          6           0       -1.526976    0.963908   -0.359970
      8          6           0        1.978217   -0.352333   -0.487393
      9          8           0        2.980323   -1.010014   -0.375168
     10          1           0       -3.437905   -0.920662    0.488947
     11          1           0       -2.947465   -1.384267   -1.135552
     12          1           0       -2.424693   -2.356003    0.253857
     13          1           0       -0.087562   -1.986421    0.759531
     14          1           0        1.526138   -0.277852    1.586931
     15          1           0        0.078611    1.667832    1.579819
     16          1           0        1.415874    2.095084    0.490346
     17          1           0       -2.201254    1.466350    0.358812
     18          1           0       -2.005709    1.039578   -1.343646
     19          1           0        1.665166    0.076650   -1.464742
 ---------------------------------------------------------------------

 SCF Done:  E(RB3LYP) =  -423.203246531     A.U. after    1 cycles

 The electronic state is 1-A.
 Alpha  occ. eigenvalues --  -19.15144 -19.13575 -10.26596 -10.24065 -10.24061
 Alpha  occ. eigenvalues --  -10.20236 -10.20050 -10.19340 -10.19173  -1.04787
 Alpha  occ. eigenvalues --   -1.04187  -0.82685  -0.79363  -0.70997  -0.66707
 Alpha  occ. eigenvalues --   -0.64429  -0.58360  -0.52251  -0.50450  -0.49158
 Alpha  occ. eigenvalues --   -0.47708  -0.44537  -0.43720  -0.42300  -0.41475
 Alpha  occ. eigenvalues --   -0.40310  -0.39966  -0.38638  -0.37493  -0.35075
 Alpha  occ. eigenvalues --   -0.31721  -0.27315  -0.25999  -0.23424
 Alpha virt. eigenvalues --   -0.02716   0.02655   0.08461   0.09976   0.11441
 Alpha virt. eigenvalues --    0.12824   0.13920   0.15007   0.15358   0.15997
 Alpha virt. eigenvalues --    0.16986   0.17568   0.19066   0.19362   0.22849

 Mulliken charges:
               1
     1  C   -0.477745
     2  C    0.288110
     3  C   -0.189309
     4  C   -0.119522
     5  C   -0.121402
     6  O   -0.245444
     7  C   -0.150056
     8  C    0.157779
     9  O   -0.254250
    10  H    0.129103
    11  H    0.130937
    12  H    0.130510
    13  H    0.098202
    14  H    0.095518
    15  H    0.099927
    16  H    0.116759
    17  H    0.101013
    18  H    0.119943
    19  H    0.089927
 Sum of Mulliken charges =   0.00000

 Dipole moment (field-independent basis, Debye):
    X=             -3.1101    Y=              0.4693    Z=              0.9816  Tot=              3.2949
 Quadrupole moment (field-independent basis, Debye-Ang):
   XX=            -58.6988   YY=            -55.1619   ZZ=            -52.4939
   XY=              5.4614   XZ=              2.1880   YZ=              1.0511

  Exact polarizability: 103.903  -3.266  73.100   5.476  -1.541  63.243
 Approx polarizability: 150.123 -14.756 105.934  11.310  -6.138  98.410

                      1                      2                      3
                      A                      A                      A
 Frequencies --     67.7800               103.8291               145.6996
 Red. masses --      5.5799                 3.1449                 1.8913
 Frc consts  --      0.0151                 0.0200                 0.0237
 IR Inten    --      4.8806                 1.2415                 0.8657

                      4                      5                      6
                      A                      A                      A
 Frequencies --    181.7248               232.5909               317.5178
 Red. masses --      1.2220                 3.1868                 2.5292
 Frc consts  --      0.0238                 0.1016                 0.1502
 IR Inten    --      0.3904                 7.2917                 2.0744

                      7                      8                      9
                      A                      A                      A
 Frequencies --    337.5236               360.7223               427.0303
 Red. masses --      2.1382                 2.7617                 4.4867
 Frc consts  --      0.1435                 0.2117                 0.4820
 IR Inten    --      2.1113                 1.2640                15.1129

                     10                     11                     12
                      A                      A                      A
 Frequencies --    472.8085               486.7205               550.7033
 Red. masses --      2.1472                 5.1618                 5.1113
 Frc consts  --      0.2828                 0.7205                 0.9133
 IR Inten    --      2.5141                 2.0474                 4.8019

                     13                     14                     15
                      A                      A                      A
 Frequencies --    750.7894               830.5607               869.3058
 Red. masses --      3.9659                 1.9678                 1.8202
 Frc consts  --      1.3171                 0.7998                 0.8104
 IR Inten    --      4.7008                14.3749                 8.1627

                     16                     17                     18
                      A                      A                      A
 Frequencies --    902.5655               929.4388               958.8295
 Red. masses --      2.6003                 2.2130                 2.1394
 Frc consts  --      1.2481                 1.1264                 1.1588
 IR Inten    --      4.2577                 5.4430                30.4768

                     19                     20                     21
                      A                      A                      A
 Frequencies --   1000.7544              1005.1972              1044.0627
 Red. masses --      2.2022                 1.6320                 1.7788
 Frc consts  --      1.2995                 0.9716                 1.1424
 IR Inten    --     15.5363                 8.1677                 8.4350

                     22                     23                     24
                      A                      A                      A
 Frequencies --   1087.0234              1089.3303              1139.9756
 Red. masses --      1.7887                 2.1000                 1.8593
 Frc consts  --      1.2453                 1.4682                 1.4236
 IR Inten    --      0.1757                 7.7198                26.6568

                     25                     26                     27
                      A                      A                      A
 Frequencies --   1144.1807              1187.7950              1239.5318
 Red. masses --      5.6070                 2.5881                 1.1999
 Frc consts  --      4.3248                 2.1513                 1.0862
 IR Inten    --     80.1985                 3.7799                 4.3296

                     28                     29                     30
                      A                      A                      A
 Frequencies --   1274.1188              1302.9156              1325.9255
 Red. masses --      1.2896                 1.8525                 1.2110
 Frc consts  --      1.2335                 1.8529                 1.2544
 IR Inten    --      2.8086                 6.0887                 3.0534

                     31                     32                     33
                      A                      A                      A
 Frequencies --   1345.4183              1391.9922              1408.7355
 Red. masses --      1.3083                 1.4810                 1.2765
 Frc consts  --      1.3953                 1.6907                 1.4926
 IR Inten    --      3.0698                 4.7024                 2.0642

                     34                     35                     36
                      A                      A                      A
 Frequencies --   1412.3444              1422.4260              1478.2924
 Red. masses --      1.2846                 1.3027                 1.0457
 Frc consts  --      1.5097                 1.5529                 1.3464
 IR Inten    --      0.1939                 9.2553                 7.0430

                     37                     38                     39
                      A                      A                      A
 Frequencies --   1482.6048              1489.0255              1499.5909
 Red. masses --      1.0762                 1.0661                 1.0958
 Frc consts  --      1.3938                 1.3926                 1.4518
 IR Inten    --      0.3726                 5.4812                 4.3999

                     40                     41                     42
                      A                      A                      A
 Frequencies --   1730.5022              1826.4990              2894.8783
 Red. masses --      7.0660                10.1317                 1.0833
 Frc consts  --     12.4672                19.9147                 5.3490
 IR Inten    --      0.3129               239.5133                65.5513

                     43                     44                     45
                      A                      A                      A
 Frequencies --   2933.3193              2979.4995              3017.8062
 Red. masses --      1.0722                 1.0694                 1.0387
 Frc consts  --      5.4357                 5.5935                 5.5736
 IR Inten    --     58.9316                52.1306                30.2196

                     46                     47                     48
                      A                      A                      A
 Frequencies --   3050.8875              3054.2066              3064.7671
 Red. masses --      1.0870                 1.0841                 1.0985
 Frc consts  --      5.9611                 5.9583                 6.0790
 IR Inten    --     29.9922                16.1884                21.0580

                     49                     50                     51
                      A                      A                      A
 Frequencies --   3082.1946              3117.8435              3161.8361
 Red. masses --      1.0945                 1.0988                 1.0902
 Frc consts  --      6.1262                 6.2932                 6.4216
 IR Inten    --     27.5457                15.4192                14.2883

 - Thermochemistry -
 -------------------
 Temperature   298.150 Kelvin.  Pressure   1.00000 Atm.
 Atom     1 has atomic number  6 and mass  12.00000

 Molecular mass:   126.06808 amu.
 Principal axes and moments of inertia in atomic units:
                           1         2         3
     Eigenvalues --   676.138331486.471891916.97384
           X            0.99887   0.04640   0.01058
           Y           -0.04651   0.99886   0.01112
           Z           -0.01005  -0.01160   0.99988
 This molecule is an asymmetric top.
 Rotational symmetry number  1.
 Warning -- assumption of classical behavior for rotation
           may cause significant error
 Rotational temperatures (Kelvin)      0.12810     0.05827     0.04518
 Rotational constants (GHZ):           2.66919     1.21411     0.94145
 Zero-point vibrational energy     416370.0 (Joules/Mol)
                                   99.51481 (Kcal/Mol)
 Warning -- explicit consideration of  12 degrees of freedom as
           vibrations may cause significant error
 Vibrational temperatures:     97.52   149.39   209.63   261.46   334.65
          (Kelvin)            456.84   485.62   519.00   614.40   680.27
                              700.28   792.34  1080.22  1194.99  1250.74
                             1298.59  1337.25  1379.54  1439.86  1446.25
                             1502.17  1563.98  1567.30  1640.17  1646.22
                             1708.97  1783.41  1833.17  1874.60  1907.71
                             1935.75  2002.76  2026.85  2032.05  2046.55
                             2126.93  2133.13  2142.37  2157.57  2489.80
                             2627.92  4165.08  4220.39  4286.83  4341.94
                             4389.54  4394.32  4409.51  4434.59  4485.88
                             4549.17

 Zero-point correction=                           0.158587 (Hartree/Particle)
 Thermal correction to Energy=                    0.167468
 Thermal correction to Enthalpy=                  0.168412
 Thermal correction to Gibbs Free Energy=         0.124595
 Sum of electronic and zero-point Energies=           -423.044660
 Sum of electronic and thermal Energies=              -423.035778
 Sum of electronic and thermal Enthalpies=            -423.034834
 Sum of electronic and thermal Free Energies=         -423.078652

                     E (Thermal)             CV                S
                      KCal/Mol        Cal/Mol-Kelvin    Cal/Mol-Kelvin
 Total                  105.088             32.534             92.222
 Electronic               0.000              0.000              0.000
 Translational            0.889              2.981             40.409
 Rotational               0.889              2.981             29.045
 Vibrational            103.310             26.572             22.768
 Vibration     1          0.598              1.970              4.217
 Vibration     2          0.605              1.946              3.381
 Vibration     3          0.617              1.907              2.728
 Vibration     4          0.630              1.865              2.311
 Vibration     5          0.653              1.791              1.859
 Vibration     6          0.704              1.640              1.323
 Vibration     7          0.718              1.601              1.224
 Vibration     8          0.735              1.553              1.119
 Vibration     9          0.789              1.411              0.868
 Vibration    10          0.830              1.310              0.730
 Vibration    11          0.843              1.279              0.692
 Vibration    12          0.906              1.138              0.543

 Normal termination of Gaussian 09 at Mon Jan 27 22:42:41 2020.
