 Gaussian 09, Revision D.01,
 Gaussian 09:  ES64L-G09RevD.01 24-Apr-2013

 -----------------------------
 # b3lyp 6-31G(2df,p) opt Freq
 -----------------------------

 -----
 titel
 -----
 Symbolic Z-matrix:
 Charge =  0 Multiplicity = 1

 SCF Done:  E(RB3LYP) =  -423.156667471     A.U. after   14 cycles
 Optimization completed.
    -- Stationary point found.
 Normal termination of Gaussian 09 at Mon Jan 27 14:25:09 2020.

 ----------------------------------------------------------------------
 #N Geom=AllCheck Guess=TCheck SCRF=Check GenChk RB3LYP/6-31G(2df,p) Fr
 eq
 ----------------------------------------------------------------------

 Structure from the checkpoint file:  "/scratch/puck/g09_cba94b93-2acc-46a9-8bca-40cd01a86a71/Gau-54643.chk"
 -----
 titel
 -----
 Charge =  0 Multiplicity = 1

                         Standard orientation:
 ---------------------------------------------------------------------
 Center     Atomic      Atomic             Coordinates (Angstroms)
 Number     Number       Type             X           Y           Z
 ---------------------------------------------------------------------
      1          6           0        1.338953   -1.257110   -1.095976
      2          6           0        1.013240   -0.303897    0.059013
      3          8           0        1.120157   -1.093992    1.248396
      4          6           0       -0.359455    0.371094   -0.060105
      5          6           0       -1.537057   -0.623487   -0.096069
      6          6           0       -2.829872    0.046284   -0.032610
      7          6           0       -3.883119    0.622690    0.022784
      8          6           0        2.131164    0.745685    0.114562
      9          8           0        2.020563    1.905512   -0.182345
     10          1           0        0.676666   -2.125667   -1.062206
     11          1           0        1.224830   -0.753899   -2.059713
     12          1           0        2.366659   -1.622288   -1.008680
     13          1           0        0.881300   -0.540136    2.000825
     14          1           0       -0.489252    1.049862    0.791515
     15          1           0       -0.370597    1.009014   -0.947978
     16          1           0       -1.490794   -1.229713   -1.008672
     17          1           0       -1.438910   -1.325296    0.740730
     18          1           0       -4.819649    1.120493    0.069866
     19          1           0        3.090861    0.317911    0.486325
 ---------------------------------------------------------------------

 SCF Done:  E(RB3LYP) =  -423.156667471     A.U. after    1 cycles

 The electronic state is 1-A.
 Alpha  occ. eigenvalues --  -19.15900 -19.15195 -10.27460 -10.25628 -10.21191
 Alpha  occ. eigenvalues --  -10.19675 -10.19342 -10.18118 -10.16991  -1.06088
 Alpha  occ. eigenvalues --   -1.03805  -0.81842  -0.77520  -0.72123  -0.67540
 Alpha  occ. eigenvalues --   -0.63813  -0.57177  -0.52810  -0.51831  -0.48485
 Alpha  occ. eigenvalues --   -0.47790  -0.45165  -0.44025  -0.42964  -0.40224
 Alpha  occ. eigenvalues --   -0.39873  -0.38837  -0.38019  -0.35908  -0.34385
 Alpha  occ. eigenvalues --   -0.31015  -0.26688  -0.26342  -0.25033
 Alpha virt. eigenvalues --   -0.03507   0.05348   0.05741   0.06509   0.10897
 Alpha virt. eigenvalues --    0.12227   0.12787   0.13521   0.13726   0.15651
 Alpha virt. eigenvalues --    0.16057   0.17348   0.18778   0.19596   0.21643

 Mulliken charges:
               1
     1  C   -0.417887
     2  C    0.242840
     3  O   -0.457148
     4  C   -0.213199
     5  C   -0.377424
     6  C    0.287279
     7  C   -0.426630
     8  C    0.125751
     9  O   -0.249087
    10  H    0.139821
    11  H    0.133040
    12  H    0.129560
    13  H    0.287402
    14  H    0.109215
    15  H    0.131022
    16  H    0.133410
    17  H    0.138335
    18  H    0.194412
    19  H    0.089286
 Sum of Mulliken charges =   0.00000

 Dipole moment (field-independent basis, Debye):
    X=             -0.0083    Y=             -1.2973    Z=              0.3796  Tot=              1.3517
 Quadrupole moment (field-independent basis, Debye-Ang):
   XX=            -53.4509   YY=            -59.8406   ZZ=            -49.9686
   XY=             -4.6766   XZ=             -0.0755   YZ=              3.0571

  Exact polarizability: 100.693  -9.316  72.817  -0.541   0.729  61.175
 Approx polarizability: 131.705 -19.737 118.195  -0.668  -3.136  92.942

                      1                      2                      3
                      A                      A                      A
 Frequencies --     48.8922                62.6300               103.4775
 Red. masses --      3.3344                 3.5272                 4.6385
 Frc consts  --      0.0047                 0.0082                 0.0293
 IR Inten    --      5.4037                 1.4172                 0.2751

                      4                      5                      6
                      A                      A                      A
 Frequencies --    113.5210               207.4323               228.3380
 Red. masses --      2.2868                 2.1854                 1.4416
 Frc consts  --      0.0174                 0.0554                 0.0443
 IR Inten    --      0.5173                 0.3488                 2.8514

                      7                      8                      9
                      A                      A                      A
 Frequencies --    259.0475               322.8261               341.3523
 Red. masses --      5.2128                 2.2887                 2.7756
 Frc consts  --      0.2061                 0.1405                 0.1906
 IR Inten    --      9.0718                 3.4851                 7.0152

                     10                     11                     12
                      A                      A                      A
 Frequencies --    365.9169               367.2824               416.0104
 Red. masses --      2.1747                 1.3566                 2.2425
 Frc consts  --      0.1716                 0.1078                 0.2287
 IR Inten    --     39.8050                66.1814                 4.7586

                     13                     14                     15
                      A                      A                      A
 Frequencies --    464.3998               515.9914               618.8144
 Red. masses --      4.8093                 4.5935                 1.2037
 Frc consts  --      0.6111                 0.7206                 0.2716
 IR Inten    --      4.0354                30.9758                41.8140

                     16                     17                     18
                      A                      A                      A
 Frequencies --    626.1616               639.4173               764.1179
 Red. masses --      3.9039                 1.2841                 1.2368
 Frc consts  --      0.9018                 0.3093                 0.4255
 IR Inten    --     16.9309                34.5403                 0.3642

                     19                     20                     21
                      A                      A                      A
 Frequencies --    783.3847               903.7546               956.8090
 Red. masses --      3.7656                 1.8500                 2.2936
 Frc consts  --      1.3615                 0.8903                 1.2372
 IR Inten    --      2.0332                13.0806                 3.6859

                     22                     23                     24
                      A                      A                      A
 Frequencies --    960.3569               980.9735              1019.8702
 Red. masses --      2.8356                 2.0666                 2.1153
 Frc consts  --      1.5408                 1.1717                 1.2963
 IR Inten    --     23.3718                14.2323                 4.6453

                     25                     26                     27
                      A                      A                      A
 Frequencies --   1047.0306              1105.9194              1153.2665
 Red. masses --      2.6654                 1.9626                 1.6867
 Frc consts  --      1.7216                 1.4143                 1.3217
 IR Inten    --      0.3165                31.0103                 1.8693

                     28                     29                     30
                      A                      A                      A
 Frequencies --   1212.4429              1227.5407              1301.0105
 Red. masses --      1.7101                 1.9320                 1.2846
 Frc consts  --      1.4811                 1.7153                 1.2811
 IR Inten    --     16.2942                23.4876                 9.0562

                     31                     32                     33
                      A                      A                      A
 Frequencies --   1304.1218              1362.8103              1382.9652
 Red. masses --      1.3881                 1.3796                 1.5060
 Frc consts  --      1.3910                 1.5096                 1.6970
 IR Inten    --      4.9556                23.3220                 2.3974

                     34                     35                     36
                      A                      A                      A
 Frequencies --   1401.6908              1406.2659              1470.6116
 Red. masses --      1.3603                 1.2276                 1.0717
 Frc consts  --      1.5747                 1.4303                 1.3655
 IR Inten    --     28.0923                10.6023                 1.5808

                     37                     38                     39
                      A                      A                      A
 Frequencies --   1483.9000              1490.2142              1502.4991
 Red. masses --      1.0692                 1.0921                 1.0537
 Frc consts  --      1.3871                 1.4289                 1.4015
 IR Inten    --      2.0296                 3.5640                 3.5579

                     40                     41                     42
                      A                      A                      A
 Frequencies --   1835.1278              2240.3989              2875.0763
 Red. masses --     11.0371                 5.9316                 1.0838
 Frc consts  --     21.8996                17.5417                 5.2784
 IR Inten    --    136.3819                 4.2182               113.5355

                     43                     44                     45
                      A                      A                      A
 Frequencies --   3030.5765              3042.8639              3046.9096
 Red. masses --      1.0595                 1.0664                 1.0360
 Frc consts  --      5.7332                 5.8174                 5.6665
 IR Inten    --      3.7060                23.6918                 6.5024

                     46                     47                     48
                      A                      A                      A
 Frequencies --   3063.8808              3103.2121              3117.9564
 Red. masses --      1.0976                 1.0967                 1.1009
 Frc consts  --      6.0707                 6.2226                 6.3056
 IR Inten    --      7.4684                13.1648                18.8691

                     49                     50                     51
                      A                      A                      A
 Frequencies --   3133.0176              3507.6708              3793.0930
 Red. masses --      1.1027                 1.1622                 1.0663
 Frc consts  --      6.3772                 8.4249                 9.0388
 IR Inten    --     10.5661                69.6996                17.7925

 - Thermochemistry -
 -------------------
 Temperature   298.150 Kelvin.  Pressure   1.00000 Atm.
 Atom     1 has atomic number  6 and mass  12.00000

 Molecular mass:   126.06808 amu.
 Principal axes and moments of inertia in atomic units:
                           1         2         3
     Eigenvalues --   655.542112073.737662345.51034
           X            0.99978  -0.02013  -0.00587
           Y            0.02046   0.99780   0.06304
           Z            0.00459  -0.06314   0.99799
 This molecule is an asymmetric top.
 Rotational symmetry number  1.
 Warning -- assumption of classical behavior for rotation
           may cause significant error
 Rotational temperatures (Kelvin)      0.13213     0.04177     0.03693
 Rotational constants (GHZ):           2.75305     0.87028     0.76945
 Zero-point vibrational energy     405012.8 (Joules/Mol)
                                   96.80038 (Kcal/Mol)
 Warning -- explicit consideration of  15 degrees of freedom as
           vibrations may cause significant error
 Vibrational temperatures:     70.34    90.11   148.88   163.33   298.45
          (Kelvin)            328.53   372.71   464.47   491.13   526.47
                              528.44   598.55   668.17   742.40   890.33
                              900.91   919.98  1099.39  1127.11  1300.30
                             1376.63  1381.74  1411.40  1467.36  1506.44
                             1591.17  1659.29  1744.43  1766.16  1871.86
                             1876.34  1960.78  1989.78  2016.72  2023.30
                             2115.88  2135.00  2144.08  2161.76  2640.34
                             3223.43  4136.59  4360.32  4378.00  4383.82
                             4408.24  4464.82  4486.04  4507.71  5046.75
                             5457.41

 Zero-point correction=                           0.154261 (Hartree/Particle)
 Thermal correction to Energy=                    0.164929
 Thermal correction to Enthalpy=                  0.165874
 Thermal correction to Gibbs Free Energy=         0.117865
 Sum of electronic and zero-point Energies=           -423.002406
 Sum of electronic and thermal Energies=              -422.991738
 Sum of electronic and thermal Enthalpies=            -422.990794
 Sum of electronic and thermal Free Energies=         -423.038803

                     E (Thermal)             CV                S
                      KCal/Mol        Cal/Mol-Kelvin    Cal/Mol-Kelvin
 Total                  103.495             38.165            101.043
 Electronic               0.000              0.000              0.000
 Translational            0.889              2.981             40.409
 Rotational               0.889              2.981             29.546
 Vibrational            101.717             32.203             31.089
 Vibration     1          0.595              1.978              4.862
 Vibration     2          0.597              1.972              4.373
 Vibration     3          0.605              1.946              3.388
 Vibration     4          0.607              1.938              3.208
 Vibration     5          0.641              1.829              2.066
 Vibration     6          0.651              1.798              1.892
 Vibration     7          0.668              1.747              1.668
 Vibration     8          0.708              1.630              1.296
 Vibration     9          0.721              1.593              1.206
 Vibration    10          0.739              1.542              1.097
 Vibration    11          0.740              1.540              1.091
 Vibration    12          0.779              1.435              0.906
 Vibration    13          0.822              1.329              0.753
 Vibration    14          0.871              1.215              0.619
 Vibration    15          0.979              0.992              0.418

 Optimization completed.
    -- Stationary point found.
 Normal termination of Gaussian 09 at Mon Jan 27 15:00:30 2020.
