 Gaussian 09, Revision D.01,
 Gaussian 09:  ES64L-G09RevD.01 24-Apr-2013

 -----------------------------
 # b3lyp 6-31G(2df,p) opt Freq
 -----------------------------

 -----
 titel
 -----
 Symbolic Z-matrix:
 Charge =  0 Multiplicity = 1

 SCF Done:  E(RB3LYP) =  -423.220809903     A.U. after   14 cycles
 Optimization completed.
    -- Stationary point found.
 Normal termination of Gaussian 09 at Mon Jan 27 10:17:58 2020.

 ----------------------------------------------------------------------
 #N Geom=AllCheck Guess=TCheck SCRF=Check GenChk RB3LYP/6-31G(2df,p) Fr
 eq
 ----------------------------------------------------------------------

 Structure from the checkpoint file:  "/scratch/puck/g09_d47e64b9-6daf-47a5-a96e-7c9a9f2dab57/Gau-66857.chk"
 -----
 titel
 -----
 Charge =  0 Multiplicity = 1

                         Standard orientation:
 ---------------------------------------------------------------------
 Center     Atomic      Atomic             Coordinates (Angstroms)
 Number     Number       Type             X           Y           Z
 ---------------------------------------------------------------------
      1          6           0        3.185939   -0.481250   -0.118545
      2          6           0        1.755375   -0.016987   -0.361331
      3          8           0        1.731656    1.381173   -0.120967
      4          6           0        0.750418   -0.762695    0.547956
      5          6           0       -0.675082   -0.463870    0.237012
      6          6           0       -1.730683   -1.217495   -0.172549
      7          6           0       -2.845317   -0.326991   -0.326233
      8          6           0       -2.389187    0.907036   -0.001820
      9          8           0       -1.071008    0.846664    0.346159
     10          1           0        3.302836   -1.540630   -0.365799
     11          1           0        3.874590    0.099549   -0.737699
     12          1           0        3.463192   -0.331402    0.929934
     13          1           0        1.482697   -0.229001   -1.409435
     14          1           0        0.812093    1.669530   -0.141156
     15          1           0        0.894436   -1.842893    0.444305
     16          1           0        0.981656   -0.497429    1.588118
     17          1           0       -1.718898   -2.282566   -0.344159
     18          1           0       -3.848029   -0.579478   -0.633244
     19          1           0       -2.838534    1.885132    0.040665
 ---------------------------------------------------------------------

 SCF Done:  E(RB3LYP) =  -423.220809903     A.U. after    1 cycles

 The electronic state is 1-A.
 Alpha  occ. eigenvalues --  -19.20858 -19.12135 -10.23549 -10.23117 -10.23081
 Alpha  occ. eigenvalues --  -10.19291 -10.18474 -10.18162 -10.17037  -1.10859
 Alpha  occ. eigenvalues --   -1.00705  -0.80214  -0.78985  -0.74334  -0.68190
 Alpha  occ. eigenvalues --   -0.60066  -0.58849  -0.55436  -0.52437  -0.50808
 Alpha  occ. eigenvalues --   -0.46183  -0.45112  -0.42624  -0.41688  -0.40255
 Alpha  occ. eigenvalues --   -0.38751  -0.38022  -0.37631  -0.36827  -0.35596
 Alpha  occ. eigenvalues --   -0.31609  -0.27942  -0.26037  -0.22165
 Alpha virt. eigenvalues --    0.01179   0.07129   0.09036   0.11546   0.12913
 Alpha virt. eigenvalues --    0.13951   0.14826   0.14978   0.15746   0.16899
 Alpha virt. eigenvalues --    0.18006   0.18667   0.19941   0.20007   0.23031

 Mulliken charges:
               1
     1  C   -0.384097
     2  C    0.148581
     3  O   -0.442671
     4  C   -0.329339
     5  C    0.359565
     6  C   -0.268278
     7  C   -0.170111
     8  C   -0.022659
     9  O   -0.192677
    10  H    0.108395
    11  H    0.125706
    12  H    0.120578
    13  H    0.064968
    14  H    0.290199
    15  H    0.112357
    16  H    0.120222
    17  H    0.108996
    18  H    0.114205
    19  H    0.136060
 Sum of Mulliken charges =   0.00000

 Dipole moment (field-independent basis, Debye):
    X=             -1.4420    Y=             -1.3218    Z=             -0.2505  Tot=              1.9721
 Quadrupole moment (field-independent basis, Debye-Ang):
   XX=            -51.5803   YY=            -51.4073   ZZ=            -54.7007
   XY=             -4.8610   XZ=              1.1485   YZ=              0.2321

  Exact polarizability: 104.269  -3.337  78.702   6.275   2.821  53.744
 Approx polarizability: 135.577  -0.318 130.207  12.376   8.314  84.410

                      1                      2                      3
                      A                      A                      A
 Frequencies --     51.4827                94.7750               131.7908
 Red. masses --      4.4992                 3.2374                 4.4870
 Frc consts  --      0.0070                 0.0171                 0.0459
 IR Inten    --      0.3489                 0.2759                 0.3289

                      4                      5                      6
                      A                      A                      A
 Frequencies --    227.0332               296.9104               308.9278
 Red. masses --      1.0655                 3.4373                 2.7429
 Frc consts  --      0.0324                 0.1785                 0.1542
 IR Inten    --      0.4497                 0.3612                 5.1717

                      7                      8                      9
                      A                      A                      A
 Frequencies --    326.4735               428.6097               462.7891
 Red. masses --      4.3201                 1.0628                 2.4374
 Frc consts  --      0.2713                 0.1150                 0.3076
 IR Inten    --      2.1880                95.3266                11.8008

                     10                     11                     12
                      A                      A                      A
 Frequencies --    467.8848               613.6535               654.8161
 Red. masses --      2.4226                 3.5700                 4.0945
 Frc consts  --      0.3125                 0.7921                 1.0344
 IR Inten    --      5.3050                 5.7004                 1.1195

                     13                     14                     15
                      A                      A                      A
 Frequencies --    735.0752               753.0641               806.8973
 Red. masses --      1.4893                 2.9658                 1.2720
 Frc consts  --      0.4741                 0.9910                 0.4879
 IR Inten    --     24.1251                11.1569                22.4523

                     16                     17                     18
                      A                      A                      A
 Frequencies --    839.8683               852.4124               899.2846
 Red. masses --      2.4796                 1.3040                 2.7477
 Frc consts  --      1.0305                 0.5582                 1.3092
 IR Inten    --      7.0750                 0.4066                 3.0695

                     19                     20                     21
                      A                      A                      A
 Frequencies --    905.2616               940.2545               955.6015
 Red. masses --      2.4704                 2.7220                 2.2264
 Frc consts  --      1.1928                 1.4178                 1.1979
 IR Inten    --      2.0965                 3.5367                25.8824

                     22                     23                     24
                      A                      A                      A
 Frequencies --   1031.7752              1055.4933              1086.8676
 Red. masses --      1.4791                 2.1215                 1.8640
 Frc consts  --      0.9277                 1.3926                 1.2973
 IR Inten    --     10.2585                38.3174                 9.9054

                     25                     26                     27
                      A                      A                      A
 Frequencies --   1115.1920              1146.5272              1180.1222
 Red. masses --      2.5504                 2.3396                 1.8443
 Frc consts  --      1.8688                 1.8120                 1.5133
 IR Inten    --      4.5780                18.6852                17.1374

                     28                     29                     30
                      A                      A                      A
 Frequencies --   1206.1472              1234.6502              1275.1373
 Red. masses --      2.0512                 2.1781                 1.4083
 Frc consts  --      1.7582                 1.9562                 1.3491
 IR Inten    --     30.4229                 1.6730                 4.4445

                     31                     32                     33
                      A                      A                      A
 Frequencies --   1306.9726              1314.8728              1379.9739
 Red. masses --      1.2142                 1.3180                 1.2431
 Frc consts  --      1.2220                 1.3426                 1.3948
 IR Inten    --     16.0713                61.8363                19.1991

                     34                     35                     36
                      A                      A                      A
 Frequencies --   1402.5635              1412.6362              1451.3267
 Red. masses --      1.2378                 2.4990                 1.5183
 Frc consts  --      1.4346                 2.9382                 1.8842
 IR Inten    --      6.2926                 0.1452                38.1446

                     37                     38                     39
                      A                      A                      A
 Frequencies --   1457.1842              1484.9543              1500.0340
 Red. masses --      1.1322                 1.0617                 1.0507
 Frc consts  --      1.4165                 1.3793                 1.3930
 IR Inten    --     18.6202                 4.0686                 1.6177

                     40                     41                     42
                      A                      A                      A
 Frequencies --   1545.3271              1641.1682              2951.7497
 Red. masses --      4.8372                 6.3286                 1.0823
 Frc consts  --      6.8058                10.0431                 5.5558
 IR Inten    --     16.8814                11.1735                46.9750

                     43                     44                     45
                      A                      A                      A
 Frequencies --   3023.1876              3040.9821              3087.0116
 Red. masses --      1.0638                 1.0355                 1.0974
 Frc consts  --      5.7285                 5.6421                 6.1618
 IR Inten    --     21.9534                22.2762                 9.6440

                     46                     47                     48
                      A                      A                      A
 Frequencies --   3113.6840              3122.7811              3251.8424
 Red. masses --      1.1015                 1.1017                 1.0906
 Frc consts  --      6.2922                 6.3301                 6.7948
 IR Inten    --     29.9368                20.7157                 4.0408

                     49                     50                     51
                      A                      A                      A
 Frequencies --   3263.2270              3288.5290              3799.3768
 Red. masses --      1.0961                 1.1061                 1.0656
 Frc consts  --      6.8772                 7.0480                 9.0626
 IR Inten    --      0.6045                 0.6888                71.3541

 - Thermochemistry -
 -------------------
 Temperature   298.150 Kelvin.  Pressure   1.00000 Atm.
 Atom     1 has atomic number  6 and mass  12.00000

 Molecular mass:   126.06808 amu.
 Principal axes and moments of inertia in atomic units:
                           1         2         3
     Eigenvalues --   421.081601871.992452174.29328
           X            0.99987  -0.01549   0.00362
           Y            0.01549   0.99988  -0.00135
           Z           -0.00360   0.00140   0.99999
 This molecule is an asymmetric top.
 Rotational symmetry number  1.
 Rotational temperatures (Kelvin)      0.20569     0.04627     0.03984
 Rotational constants (GHZ):           4.28597     0.96408     0.83004
 Zero-point vibrational energy     418239.4 (Joules/Mol)
                                   99.96161 (Kcal/Mol)
 Warning -- explicit consideration of  11 degrees of freedom as
           vibrations may cause significant error
 Vibrational temperatures:     74.07   136.36   189.62   326.65   427.19
          (Kelvin)            444.48   469.72   616.67   665.85   673.18
                              882.91   942.13  1057.61  1083.49  1160.94
                             1208.38  1226.43  1293.87  1302.47  1352.81
                             1374.90  1484.49  1518.62  1563.76  1604.51
                             1649.59  1697.93  1735.37  1776.38  1834.64
                             1880.44  1891.81  1985.47  2017.97  2032.47
                             2088.13  2096.56  2136.52  2158.21  2223.38
                             2361.27  4246.90  4349.69  4375.29  4441.52
                             4479.89  4492.98  4678.67  4695.05  4731.45
                             5466.45

 Zero-point correction=                           0.159299 (Hartree/Particle)
 Thermal correction to Energy=                    0.168059
 Thermal correction to Enthalpy=                  0.169003
 Thermal correction to Gibbs Free Energy=         0.125317
 Sum of electronic and zero-point Energies=           -423.061511
 Sum of electronic and thermal Energies=              -423.052751
 Sum of electronic and thermal Enthalpies=            -423.051807
 Sum of electronic and thermal Free Energies=         -423.095493

                     E (Thermal)             CV                S
                      KCal/Mol        Cal/Mol-Kelvin    Cal/Mol-Kelvin
 Total                  105.459             32.987             91.945
 Electronic               0.000              0.000              0.000
 Translational            0.889              2.981             40.409
 Rotational               0.889              2.981             28.929
 Vibrational            103.681             27.026             22.608
 Vibration     1          0.596              1.977              4.760
 Vibration     2          0.603              1.953              3.559
 Vibration     3          0.612              1.922              2.920
 Vibration     4          0.651              1.800              1.902
 Vibration     5          0.691              1.679              1.434
 Vibration     6          0.698              1.657              1.368
 Vibration     7          0.710              1.623              1.277
 Vibration     8          0.790              1.408              0.863
 Vibration     9          0.820              1.333              0.758
 Vibration    10          0.825              1.321              0.744
 Vibration    11          0.973              1.003              0.427

 Optimization completed.
    -- Stationary point found.
 Normal termination of Gaussian 09 at Mon Jan 27 10:54:21 2020.
