 Gaussian 09, Revision D.01,
 Gaussian 09:  ES64L-G09RevD.01 24-Apr-2013

 -----------------------------
 # b3lyp 6-31G(2df,p) opt Freq
 -----------------------------

 -----
 titel
 -----
 Symbolic Z-matrix:
 Charge =  0 Multiplicity = 1

 SCF Done:  E(RB3LYP) =  -423.220410430     A.U. after   14 cycles
 Optimization completed.
    -- Stationary point found.
 Normal termination of Gaussian 09 at Tue Jan 28 03:55:18 2020.

 ----------------------------------------------------------------------
 #N Geom=AllCheck Guess=TCheck SCRF=Check GenChk RB3LYP/6-31G(2df,p) Fr
 eq
 ----------------------------------------------------------------------

 Structure from the checkpoint file:  "/scratch/puck/g09_3994a7f7-16cd-46e4-88a0-34185de919fc/Gau-196288.chk"
 -----
 titel
 -----
 Charge =  0 Multiplicity = 1

                         Standard orientation:
 ---------------------------------------------------------------------
 Center     Atomic      Atomic             Coordinates (Angstroms)
 Number     Number       Type             X           Y           Z
 ---------------------------------------------------------------------
      1          6           0        2.880654    0.308917    0.235366
      2          6           0        1.426075    0.019070   -0.011897
      3          6           0        0.993587   -1.145310   -0.499241
      4          6           0       -0.449732   -1.488419   -0.760245
      5          6           0       -1.426053   -0.537200   -0.064413
      6          8           0       -1.450685   -0.891392    1.319805
      7          6           0       -0.936363    0.906901   -0.196152
      8          8           0       -1.621096    1.783438   -0.669246
      9          6           0        0.466730    1.139102    0.337201
     10          1           0        3.059730    0.558043    1.289523
     11          1           0        3.511541   -0.545149   -0.024181
     12          1           0        3.217849    1.174368   -0.349466
     13          1           0        1.720322   -1.918260   -0.739107
     14          1           0       -0.652214   -1.482293   -1.840427
     15          1           0       -0.671362   -2.505142   -0.413295
     16          1           0       -2.425531   -0.607463   -0.511233
     17          1           0       -2.137937   -0.367180    1.744897
     18          1           0        0.819561    2.106208   -0.036782
     19          1           0        0.402908    1.232135    1.431886
 ---------------------------------------------------------------------

 SCF Done:  E(RB3LYP) =  -423.220410430     A.U. after    1 cycles

 The electronic state is 1-A.
 Alpha  occ. eigenvalues --  -19.15107 -19.13245 -10.26548 -10.23937 -10.19468
 Alpha  occ. eigenvalues --  -10.19333 -10.19185 -10.18334 -10.18056  -1.04622
 Alpha  occ. eigenvalues --   -1.02620  -0.83414  -0.76688  -0.72907  -0.68440
 Alpha  occ. eigenvalues --   -0.62432  -0.56280  -0.53293  -0.50512  -0.47146
 Alpha  occ. eigenvalues --   -0.45106  -0.44550  -0.42240  -0.41340  -0.40556
 Alpha  occ. eigenvalues --   -0.40102  -0.38475  -0.37902  -0.35779  -0.34893
 Alpha  occ. eigenvalues --   -0.32446  -0.30058  -0.24268  -0.23267
 Alpha virt. eigenvalues --   -0.01989   0.02311   0.07033   0.10430   0.11303
 Alpha virt. eigenvalues --    0.13865   0.14386   0.16003   0.16879   0.16991
 Alpha virt. eigenvalues --    0.17369   0.18698   0.19197   0.20914   0.22485

 Mulliken charges:
               1
     1  C   -0.473973
     2  C    0.316535
     3  C   -0.139779
     4  C   -0.272602
     5  C    0.016541
     6  O   -0.432201
     7  C    0.357228
     8  O   -0.317860
     9  C   -0.383746
    10  H    0.124714
    11  H    0.122660
    12  H    0.125213
    13  H    0.081726
    14  H    0.119673
    15  H    0.121301
    16  H    0.083174
    17  H    0.292278
    18  H    0.123944
    19  H    0.135174
 Sum of Mulliken charges =   0.00000

 Dipole moment (field-independent basis, Debye):
    X=              0.8483    Y=             -1.0027    Z=              0.7160  Tot=              1.4959
 Quadrupole moment (field-independent basis, Debye-Ang):
   XX=            -50.7320   YY=            -56.9424   ZZ=            -52.6055
   XY=              3.8447   XZ=             -3.0538   YZ=              5.1980

  Exact polarizability:  87.705   3.041  83.561   4.398   6.159  63.215
 Approx polarizability: 114.749   2.065 132.160   9.137   7.823 100.846

                      1                      2                      3
                      A                      A                      A
 Frequencies --     74.8599                85.8950               183.8292
 Red. masses --      3.5305                 4.0726                 1.2055
 Frc consts  --      0.0117                 0.0177                 0.0240
 IR Inten    --      3.1488                 3.2718                 0.3542

                      4                      5                      6
                      A                      A                      A
 Frequencies --    224.3959               257.7797               310.6884
 Red. masses --      3.2882                 2.3584                 2.8173
 Frc consts  --      0.0976                 0.0923                 0.1602
 IR Inten    --      2.9728                 0.3710                 1.6434

                      7                      8                      9
                      A                      A                      A
 Frequencies --    333.3921               358.0110               419.5159
 Red. masses --      1.9044                 1.3027                 2.1612
 Frc consts  --      0.1247                 0.0984                 0.2241
 IR Inten    --     26.9525                79.4615                 3.9919

                     10                     11                     12
                      A                      A                      A
 Frequencies --    466.3076               494.0836               525.6815
 Red. masses --      4.0425                 3.7545                 5.2414
 Frc consts  --      0.5179                 0.5400                 0.8534
 IR Inten    --      4.9786                 9.7908                 8.6967

                     13                     14                     15
                      A                      A                      A
 Frequencies --    622.6891               680.9235               796.2264
 Red. masses --      3.3272                 4.5732                 1.4682
 Frc consts  --      0.7601                 1.2493                 0.5484
 IR Inten    --      5.8736                 1.3603                 3.2001

                     16                     17                     18
                      A                      A                      A
 Frequencies --    832.6290               897.8726               913.3933
 Red. masses --      2.5426                 2.3636                 2.8430
 Frc consts  --      1.0386                 1.1227                 1.3975
 IR Inten    --      1.5141                 1.2430                31.8854

                     19                     20                     21
                      A                      A                      A
 Frequencies --    942.5889               962.9116              1017.6626
 Red. masses --      2.6209                 1.8093                 1.6412
 Frc consts  --      1.3720                 0.9884                 1.0014
 IR Inten    --      5.7458                 3.0734                 7.4538

                     22                     23                     24
                      A                      A                      A
 Frequencies --   1061.7652              1068.1627              1087.8080
 Red. masses --      1.7362                 2.0410                 2.1765
 Frc consts  --      1.1532                 1.3720                 1.5175
 IR Inten    --     12.8422                 5.6346                15.1457

                     25                     26                     27
                      A                      A                      A
 Frequencies --   1155.8876              1176.9049              1209.8959
 Red. masses --      2.0999                 1.6781                 1.2636
 Frc consts  --      1.6530                 1.3694                 1.0898
 IR Inten    --     15.1286                11.3167                 9.7575

                     28                     29                     30
                      A                      A                      A
 Frequencies --   1220.1703              1256.9772              1309.1364
 Red. masses --      1.2588                 1.7038                 1.6124
 Frc consts  --      1.1042                 1.5861                 1.6281
 IR Inten    --     22.8711                14.7400                28.1876

                     31                     32                     33
                      A                      A                      A
 Frequencies --   1338.9651              1367.4942              1376.7482
 Red. masses --      1.4905                 1.7944                 1.6557
 Frc consts  --      1.5744                 1.9770                 1.8490
 IR Inten    --     18.9777                 0.9849                10.7690

                     34                     35                     36
                      A                      A                      A
 Frequencies --   1407.0473              1415.1460              1439.6976
 Red. masses --      1.3744                 1.2687                 1.0872
 Frc consts  --      1.6032                 1.4970                 1.3278
 IR Inten    --     11.2843                 1.5017                 6.0311

                     37                     38                     39
                      A                      A                      A
 Frequencies --   1464.1398              1478.4345              1491.2146
 Red. masses --      1.0926                 1.0446                 1.0582
 Frc consts  --      1.3800                 1.3453                 1.3865
 IR Inten    --      3.1347                 6.5212                 5.5601

                     40                     41                     42
                      A                      A                      A
 Frequencies --   1746.8031              1821.1947              3003.6070
 Red. masses --      6.9541                11.6040                 1.0658
 Frc consts  --     12.5020                22.6762                 5.6654
 IR Inten    --      1.6341               179.7879                 9.2662

                     43                     44                     45
                      A                      A                      A
 Frequencies --   3010.9796              3015.1283              3034.0010
 Red. masses --      1.0656                 1.0392                 1.0841
 Frc consts  --      5.6917                 5.5664                 5.8799
 IR Inten    --     13.8038                34.9466                55.3952

                     46                     47                     48
                      A                      A                      A
 Frequencies --   3052.5672              3060.6596              3072.2048
 Red. masses --      1.0966                 1.0986                 1.0919
 Frc consts  --      6.0206                 6.0634                 6.0718
 IR Inten    --     13.6486                18.0414                13.5978

                     49                     50                     51
                      A                      A                      A
 Frequencies --   3112.8999              3150.3691              3810.7984
 Red. masses --      1.0990                 1.0892                 1.0665
 Frc consts  --      6.2743                 6.3689                 9.1251
 IR Inten    --     18.5203                22.3874                28.4195

 - Thermochemistry -
 -------------------
 Temperature   298.150 Kelvin.  Pressure   1.00000 Atm.
 Atom     1 has atomic number  6 and mass  12.00000

 Molecular mass:   126.06808 amu.
 Principal axes and moments of inertia in atomic units:
                           1         2         3
     Eigenvalues --   768.274031276.236641627.76941
           X            0.99872   0.05014   0.00630
           Y           -0.05045   0.99632   0.06929
           Z           -0.00280  -0.06952   0.99758
 This molecule is an asymmetric top.
 Rotational symmetry number  1.
 Warning -- assumption of classical behavior for rotation
           may cause significant error
 Rotational temperatures (Kelvin)      0.11274     0.06787     0.05321
 Rotational constants (GHZ):           2.34909     1.41411     1.10872
 Zero-point vibrational energy     416409.0 (Joules/Mol)
                                   99.52413 (Kcal/Mol)
 Warning -- explicit consideration of  12 degrees of freedom as
           vibrations may cause significant error
 Vibrational temperatures:    107.71   123.58   264.49   322.86   370.89
          (Kelvin)            447.01   479.68   515.10   603.59   670.91
                              710.88   756.34   895.91   979.70  1145.59
                             1197.97  1291.84  1314.17  1356.17  1385.41
                             1464.19  1527.64  1536.85  1565.11  1663.06
                             1693.30  1740.77  1755.55  1808.51  1883.55
                             1926.47  1967.52  1980.83  2024.42  2036.08
                             2071.40  2106.57  2127.13  2145.52  2513.26
                             2620.29  4321.52  4332.12  4338.09  4365.25
                             4391.96  4403.60  4420.21  4478.76  4532.67
                             5482.88

 Zero-point correction=                           0.158602 (Hartree/Particle)
 Thermal correction to Energy=                    0.167570
 Thermal correction to Enthalpy=                  0.168514
 Thermal correction to Gibbs Free Energy=         0.124852
 Sum of electronic and zero-point Energies=           -423.061809
 Sum of electronic and thermal Energies=              -423.052840
 Sum of electronic and thermal Enthalpies=            -423.051896
 Sum of electronic and thermal Free Energies=         -423.095558

                     E (Thermal)             CV                S
                      KCal/Mol        Cal/Mol-Kelvin    Cal/Mol-Kelvin
 Total                  105.152             33.676             91.895
 Electronic               0.000              0.000              0.000
 Translational            0.889              2.981             40.409
 Rotational               0.889              2.981             28.858
 Vibrational            103.374             27.714             22.628
 Vibration     1          0.599              1.966              4.021
 Vibration     2          0.601              1.959              3.751
 Vibration     3          0.631              1.862              2.289
 Vibration     4          0.649              1.804              1.923
 Vibration     5          0.667              1.750              1.677
 Vibration     6          0.700              1.653              1.359
 Vibration     7          0.715              1.609              1.244
 Vibration     8          0.733              1.559              1.131
 Vibration     9          0.782              1.428              0.894
 Vibration    10          0.824              1.325              0.748
 Vibration    11          0.850              1.263              0.673
 Vibration    12          0.881              1.193              0.597

 Optimization completed.
    -- Stationary point found.
 Normal termination of Gaussian 09 at Tue Jan 28 04:40:44 2020.
