 Gaussian 09, Revision D.01,
 Gaussian 09:  ES64L-G09RevD.01 24-Apr-2013

 -----------------------------
 # b3lyp 6-31G(2df,p) opt Freq
 -----------------------------

 -----
 titel
 -----
 Symbolic Z-matrix:
 Charge =  0 Multiplicity = 1

 SCF Done:  E(RB3LYP) =  -423.157954028     A.U. after   13 cycles
 Optimization completed.
    -- Stationary point found.
 Normal termination of Gaussian 09 at Mon Jan 27 17:39:53 2020.

 ----------------------------------------------------------------------
 #N Geom=AllCheck Guess=TCheck SCRF=Check GenChk RB3LYP/6-31G(2df,p) Fr
 eq
 ----------------------------------------------------------------------

 Structure from the checkpoint file:  "/scratch/puck/g09_bddfb311-4d76-4554-9baa-2a9527c21118/Gau-169460.chk"
 -----
 titel
 -----
 Charge =  0 Multiplicity = 1

                         Standard orientation:
 ---------------------------------------------------------------------
 Center     Atomic      Atomic             Coordinates (Angstroms)
 Number     Number       Type             X           Y           Z
 ---------------------------------------------------------------------
      1          8           0        1.589634    1.428938   -0.601729
      2          6           0        1.139181    0.292614    0.047556
      3          6           0        2.005103   -0.915496    0.264949
      4          6           0        0.753628   -1.037098   -0.578195
      5          6           0       -0.472541   -1.134401    0.333618
      6          6           0       -1.812052   -0.853538   -0.350961
      7          8           0       -1.833426    0.538840   -0.624358
      8          6           0       -1.232232    1.178508    0.493107
      9          6           0       -0.092019    0.265912    0.961003
     10          1           0        2.269307    1.840790   -0.056813
     11          1           0        2.928582   -0.902619   -0.305935
     12          1           0        2.074478   -1.405549    1.234585
     13          1           0        0.791056   -1.343192   -1.616897
     14          1           0       -0.507561   -2.001994    0.998519
     15          1           0       -1.941758   -1.381897   -1.300435
     16          1           0       -2.641557   -1.135422    0.319724
     17          1           0       -0.883087    2.160973    0.164816
     18          1           0       -1.963665    1.312613    1.306831
     19          1           0        0.090132    0.335066    2.037842
 ---------------------------------------------------------------------

 SCF Done:  E(RB3LYP) =  -423.157954028     A.U. after    1 cycles

 The electronic state is 1-A.
 Alpha  occ. eigenvalues --  -19.14897 -19.12997 -10.23787 -10.22106 -10.21875
 Alpha  occ. eigenvalues --  -10.19133 -10.18849 -10.18763 -10.18621  -1.03671
 Alpha  occ. eigenvalues --   -1.02739  -0.88719  -0.74956  -0.73494  -0.62058
 Alpha  occ. eigenvalues --   -0.61695  -0.58592  -0.54034  -0.50891  -0.49146
 Alpha  occ. eigenvalues --   -0.48641  -0.44699  -0.43789  -0.42197  -0.39784
 Alpha  occ. eigenvalues --   -0.39067  -0.36058  -0.34365  -0.32723  -0.31519
 Alpha  occ. eigenvalues --   -0.30711  -0.25833  -0.25488  -0.24530
 Alpha virt. eigenvalues --    0.07563   0.09758   0.11395   0.11810   0.12004
 Alpha virt. eigenvalues --    0.13420   0.15211   0.15530   0.16053   0.16462
 Alpha virt. eigenvalues --    0.17833   0.18989   0.20113   0.21259   0.22418

 Mulliken charges:
               1
     1  O   -0.462497
     2  C    0.425744
     3  C   -0.368204
     4  C   -0.098712
     5  C   -0.033029
     6  C   -0.099327
     7  O   -0.245926
     8  C   -0.089388
     9  C   -0.140917
    10  H    0.285784
    11  H    0.113285
    12  H    0.100473
    13  H    0.094474
    14  H    0.068589
    15  H    0.106439
    16  H    0.083262
    17  H    0.116559
    18  H    0.081100
    19  H    0.062290
 Sum of Mulliken charges =   0.00000

 Dipole moment (field-independent basis, Debye):
    X=              1.4178    Y=             -0.6959    Z=              1.9685  Tot=              2.5238
 Quadrupole moment (field-independent basis, Debye-Ang):
   XX=            -51.3635   YY=            -51.4679   ZZ=            -53.6694
   XY=              3.7601   XZ=             -0.4044   YZ=              3.6144

  Exact polarizability:  82.445   1.250  75.153  -0.665   2.849  66.204
 Approx polarizability: 108.792   3.803 112.609   1.335   2.852 104.384

                      1                      2                      3
                      A                      A                      A
 Frequencies --    124.4041               179.8218               259.3176
 Red. masses --      3.6775                 5.2010                 1.4931
 Frc consts  --      0.0335                 0.0991                 0.0592
 IR Inten    --      0.6875                 0.4735                21.2655

                      4                      5                      6
                      A                      A                      A
 Frequencies --    282.1227               325.0045               386.3677
 Red. masses --      1.7760                 2.0243                 2.4148
 Frc consts  --      0.0833                 0.1260                 0.2124
 IR Inten    --     77.5532                 0.9188                 7.9992

                      7                      8                      9
                      A                      A                      A
 Frequencies --    427.0736               476.0696               546.4525
 Red. masses --      2.5470                 3.5019                 4.0889
 Frc consts  --      0.2737                 0.4676                 0.7194
 IR Inten    --      3.0877                10.1488                 0.3513

                     10                     11                     12
                      A                      A                      A
 Frequencies --    687.5437               734.0637               810.6963
 Red. masses --      3.2585                 5.0845                 2.4970
 Frc consts  --      0.9076                 1.6142                 0.9669
 IR Inten    --      3.0562                12.3473                10.3165

                     13                     14                     15
                      A                      A                      A
 Frequencies --    841.1604               844.9181               874.0116
 Red. masses --      2.0953                 2.3160                 3.6136
 Frc consts  --      0.8735                 0.9742                 1.6264
 IR Inten    --      2.2997                 0.4189                 2.2487

                     16                     17                     18
                      A                      A                      A
 Frequencies --    924.8629               936.6465               955.7049
 Red. masses --      2.9076                 1.9210                 2.3033
 Frc consts  --      1.4653                 0.9929                 1.2395
 IR Inten    --     16.1609                10.8620                13.9919

                     19                     20                     21
                      A                      A                      A
 Frequencies --    988.2267              1009.7450              1031.3719
 Red. masses --      1.7336                 1.3844                 1.8771
 Frc consts  --      0.9975                 0.8316                 1.1764
 IR Inten    --      5.0894                 0.7731                14.7784

                     22                     23                     24
                      A                      A                      A
 Frequencies --   1044.8675              1057.1525              1083.4900
 Red. masses --      1.5578                 1.6784                 1.7887
 Frc consts  --      1.0020                 1.1051                 1.2372
 IR Inten    --      1.7827                14.4153                22.7985

                     25                     26                     27
                      A                      A                      A
 Frequencies --   1109.3953              1128.3129              1175.4961
 Red. masses --      1.7742                 4.3768                 2.0842
 Frc consts  --      1.2866                 3.2830                 1.6968
 IR Inten    --     15.3150                34.8989                10.1511

                     28                     29                     30
                      A                      A                      A
 Frequencies --   1206.7513              1220.4117              1244.1062
 Red. masses --      1.1876                 1.4565                 1.7598
 Frc consts  --      1.0189                 1.2781                 1.6048
 IR Inten    --     13.2536                 4.2070                42.1899

                     31                     32                     33
                      A                      A                      A
 Frequencies --   1275.0298              1276.7342              1294.4005
 Red. masses --      1.3435                 1.8058                 1.2691
 Frc consts  --      1.2869                 1.7343                 1.2528
 IR Inten    --      3.0030                51.0829                24.1089

                     34                     35                     36
                      A                      A                      A
 Frequencies --   1328.2270              1335.7344              1354.1877
 Red. masses --      2.0001                 1.9842                 1.2675
 Frc consts  --      2.0790                 2.0859                 1.3695
 IR Inten    --     22.5666                 3.0150                 0.7570

                     37                     38                     39
                      A                      A                      A
 Frequencies --   1391.8111              1410.7657              1493.2997
 Red. masses --      1.8459                 1.5114                 1.3237
 Frc consts  --      2.1068                 1.7723                 1.7391
 IR Inten    --     22.7999                10.5210                 9.7126

                     40                     41                     42
                      A                      A                      A
 Frequencies --   1498.2736              1511.3901              2958.1982
 Red. masses --      1.1696                 1.1050                 1.0708
 Frc consts  --      1.5469                 1.4871                 5.5208
 IR Inten    --      5.4069                 2.9224                56.7777

                     43                     44                     45
                      A                      A                      A
 Frequencies --   2969.6123              3056.3083              3071.4638
 Red. masses --      1.0718                 1.0855                 1.0879
 Frc consts  --      5.5690                 5.9742                 6.0471
 IR Inten    --     92.1512                42.3043                58.7598

                     46                     47                     48
                      A                      A                      A
 Frequencies --   3079.6022              3096.1122              3096.8768
 Red. masses --      1.0915                 1.0584                 1.0908
 Frc consts  --      6.0990                 5.9779                 6.1637
 IR Inten    --     25.9317                26.7379                12.9119

                     49                     50                     51
                      A                      A                      A
 Frequencies --   3183.7917              3197.4726              3792.9418
 Red. masses --      1.0957                 1.1094                 1.0662
 Frc consts  --      6.5440                 6.6825                 9.0371
 IR Inten    --      7.0361                13.7769                23.6336

 - Thermochemistry -
 -------------------
 Temperature   298.150 Kelvin.  Pressure   1.00000 Atm.
 Atom     1 has atomic number  8 and mass  15.99491

 Molecular mass:   126.06808 amu.
 Principal axes and moments of inertia in atomic units:
                           1         2         3
     Eigenvalues --   612.369591094.094411373.80998
           X            0.99999  -0.00118  -0.00511
           Y            0.00136   0.99940   0.03470
           Z            0.00506  -0.03470   0.99938
 This molecule is an asymmetric top.
 Rotational symmetry number  1.
 Warning -- assumption of classical behavior for rotation
           may cause significant error
 Rotational temperatures (Kelvin)      0.14144     0.07916     0.06305
 Rotational constants (GHZ):           2.94714     1.64953     1.31368
 Zero-point vibrational energy     422208.8 (Joules/Mol)
                                  100.91033 (Kcal/Mol)
 Warning -- explicit consideration of   9 degrees of freedom as
           vibrations may cause significant error
 Vibrational temperatures:    178.99   258.72   373.10   405.91   467.61
          (Kelvin)            555.90   614.46   684.96   786.22   989.22
                             1056.15  1166.41  1210.24  1215.65  1257.51
                             1330.67  1347.62  1375.04  1421.84  1452.80
                             1483.91  1503.33  1521.00  1558.90  1596.17
                             1623.39  1691.27  1736.24  1755.90  1789.99
                             1834.48  1836.93  1862.35  1911.02  1921.82
                             1948.37  2002.50  2029.77  2148.52  2155.68
                             2174.55  4256.18  4272.60  4397.34  4419.15
                             4430.86  4454.61  4455.71  4580.76  4600.44
                             5457.19

 Zero-point correction=                           0.160811 (Hartree/Particle)
 Thermal correction to Energy=                    0.168297
 Thermal correction to Enthalpy=                  0.169242
 Thermal correction to Gibbs Free Energy=         0.129163
 Sum of electronic and zero-point Energies=           -422.997143
 Sum of electronic and thermal Energies=              -422.989657
 Sum of electronic and thermal Enthalpies=            -422.988712
 Sum of electronic and thermal Free Energies=         -423.028791

                     E (Thermal)             CV                S
                      KCal/Mol        Cal/Mol-Kelvin    Cal/Mol-Kelvin
 Total                  105.608             30.161             84.352
 Electronic               0.000              0.000              0.000
 Translational            0.889              2.981             40.409
 Rotational               0.889              2.981             28.311
 Vibrational            103.831             24.199             15.632
 Vibration     1          0.610              1.929              3.031
 Vibration     2          0.629              1.867              2.330
 Vibration     3          0.668              1.747              1.666
 Vibration     4          0.681              1.707              1.521
 Vibration     5          0.709              1.625              1.285
 Vibration     6          0.755              1.499              1.014
 Vibration     7          0.789              1.411              0.868
 Vibration     8          0.833              1.303              0.721
 Vibration     9          0.902              1.147              0.552

 Optimization completed.
    -- Stationary point found.
 Normal termination of Gaussian 09 at Mon Jan 27 18:24:36 2020.
