 Gaussian 09, Revision D.01,
 Gaussian 09:  ES64L-G09RevD.01 24-Apr-2013

 -----------------------------
 # b3lyp 6-31G(2df,p) opt Freq
 -----------------------------

 -----
 titel
 -----
 Symbolic Z-matrix:
 Charge =  0 Multiplicity = 1

 SCF Done:  E(RB3LYP) =  -423.114031833     A.U. after   12 cycles
 Optimization completed.
    -- Stationary point found.
 Normal termination of Gaussian 09 at Mon Jan 27 23:44:16 2020.

 ----------------------------------------------------------------------
 #N Geom=AllCheck Guess=TCheck SCRF=Check GenChk RB3LYP/6-31G(2df,p) Fr
 eq
 ----------------------------------------------------------------------

 Structure from the checkpoint file:  "/scratch/puck/g09_ff899322-eda8-4deb-8182-8dad41be9d82/Gau-185980.chk"
 -----
 titel
 -----
 Charge =  0 Multiplicity = 1

                         Standard orientation:
 ---------------------------------------------------------------------
 Center     Atomic      Atomic             Coordinates (Angstroms)
 Number     Number       Type             X           Y           Z
 ---------------------------------------------------------------------
      1          8           0       -2.191168   -1.111032    0.293927
      2          6           0       -1.160575   -0.506403   -0.462811
      3          6           0       -1.030022    1.049920   -0.328366
      4          6           0       -0.284064    1.332243    1.044958
      5          6           0        0.823819    0.531862    0.315647
      6          6           0        2.146032   -0.254616    0.300185
      7          8           0        1.436338   -1.357705   -0.360262
      8          6           0        0.194490   -0.839620    0.200708
      9          6           0        0.356164    1.221539   -0.991835
     10          1           0       -3.035798   -0.821339   -0.064627
     11          1           0       -1.221269   -0.790338   -1.522125
     12          1           0       -1.893564    1.648913   -0.624287
     13          1           0       -0.096941    2.401250    1.169250
     14          1           0       -0.698684    0.901838    1.959374
     15          1           0        2.963770    0.131918   -0.314751
     16          1           0        2.522597   -0.565502    1.283254
     17          1           0       -0.005153   -1.338421    1.158712
     18          1           0        0.682988    2.263004   -1.046418
     19          1           0        0.545627    0.709018   -1.938616
 ---------------------------------------------------------------------

 SCF Done:  E(RB3LYP) =  -423.114031833     A.U. after    1 cycles

 The electronic state is 1-A.
 Alpha  occ. eigenvalues --  -19.13992 -19.13286 -10.23646 -10.23310 -10.21966
 Alpha  occ. eigenvalues --  -10.19927 -10.19526 -10.19465 -10.18473  -1.03448
 Alpha  occ. eigenvalues --   -1.02026  -0.88158  -0.72151  -0.69483  -0.67100
 Alpha  occ. eigenvalues --   -0.64293  -0.56791  -0.53738  -0.51158  -0.49429
 Alpha  occ. eigenvalues --   -0.47454  -0.45590  -0.41787  -0.41082  -0.39213
 Alpha  occ. eigenvalues --   -0.37630  -0.37323  -0.34600  -0.32791  -0.31394
 Alpha  occ. eigenvalues --   -0.30416  -0.27312  -0.26679  -0.24577
 Alpha virt. eigenvalues --    0.07061   0.08185   0.10768   0.11073   0.12663
 Alpha virt. eigenvalues --    0.13131   0.14032   0.14276   0.15470   0.16597
 Alpha virt. eigenvalues --    0.16771   0.18655   0.19476   0.21409   0.22231

 Mulliken charges:
               1
     1  O   -0.445029
     2  C    0.065707
     3  C   -0.071021
     4  C   -0.335625
     5  C    0.277541
     6  C   -0.223901
     7  O   -0.320593
     8  C    0.161123
     9  C   -0.247808
    10  H    0.283233
    11  H    0.083672
    12  H    0.059796
    13  H    0.101611
    14  H    0.109641
    15  H    0.109866
    16  H    0.104842
    17  H    0.085878
    18  H    0.096137
    19  H    0.104931
 Sum of Mulliken charges =   0.00000

 Dipole moment (field-independent basis, Debye):
    X=             -1.0202    Y=              2.3655    Z=             -0.2064  Tot=              2.5844
 Quadrupole moment (field-independent basis, Debye-Ang):
   XX=            -48.1645   YY=            -57.1437   ZZ=            -52.8373
   XY=              1.1904   XZ=              3.7798   YZ=             -0.4780

  Exact polarizability:  85.242  -0.917  71.648   0.287  -1.657  68.265
 Approx polarizability: 119.122  -1.313 107.425  -1.908  -1.248 105.695

                      1                      2                      3
                      A                      A                      A
 Frequencies --    161.7539               270.9993               284.5943
 Red. masses --      3.4990                 1.7080                 1.9671
 Frc consts  --      0.0539                 0.0739                 0.0939
 IR Inten    --      2.6504                39.2899                37.1177

                      4                      5                      6
                      A                      A                      A
 Frequencies --    297.0881               330.3256               404.7611
 Red. masses --      2.5364                 3.6034                 2.5160
 Frc consts  --      0.1319                 0.2317                 0.2429
 IR Inten    --     35.0651                 2.6226                 6.0203

                      7                      8                      9
                      A                      A                      A
 Frequencies --    492.8678               522.0106               573.7159
 Red. masses --      2.0241                 3.8458                 4.1905
 Frc consts  --      0.2897                 0.6174                 0.8127
 IR Inten    --      0.9294                 2.7763                 2.3496

                     10                     11                     12
                      A                      A                      A
 Frequencies --    628.1442               760.3223               805.1577
 Red. masses --      3.2478                 3.7909                 3.2883
 Frc consts  --      0.7550                 1.2912                 1.2560
 IR Inten    --      5.2385                 4.2876                 2.3653

                     13                     14                     15
                      A                      A                      A
 Frequencies --    839.2649               882.6589               892.1751
 Red. masses --      2.7613                 2.5806                 2.0086
 Frc consts  --      1.1459                 1.1845                 0.9420
 IR Inten    --      7.7079                29.6071                 5.8440

                     16                     17                     18
                      A                      A                      A
 Frequencies --    920.2576               952.4029               961.8327
 Red. masses --      3.7595                 2.8337                 2.3657
 Frc consts  --      1.8759                 1.5144                 1.2895
 IR Inten    --     30.7758                 9.2877                35.7146

                     19                     20                     21
                      A                      A                      A
 Frequencies --    990.3643              1000.9727              1045.2488
 Red. masses --      2.3119                 1.8133                 1.2636
 Frc consts  --      1.3360                 1.0704                 0.8134
 IR Inten    --     14.6098                20.1035                12.0736

                     22                     23                     24
                      A                      A                      A
 Frequencies --   1060.9900              1069.1098              1079.4319
 Red. masses --      1.7250                 2.2207                 1.3590
 Frc consts  --      1.1441                 1.4955                 0.9330
 IR Inten    --      5.2494                14.0104                 4.4923

                     25                     26                     27
                      A                      A                      A
 Frequencies --   1124.4205              1140.8679              1160.1995
 Red. masses --      2.8342                 1.2969                 1.7528
 Frc consts  --      2.1112                 0.9946                 1.3901
 IR Inten    --     40.3944                 2.3983                23.9522

                     28                     29                     30
                      A                      A                      A
 Frequencies --   1188.6319              1199.1334              1221.4836
 Red. masses --      1.4493                 1.6706                 1.3858
 Frc consts  --      1.2065                 1.4154                 1.2182
 IR Inten    --      3.9985                 3.4874                 9.6492

                     31                     32                     33
                      A                      A                      A
 Frequencies --   1235.0458              1257.0106              1270.3627
 Red. masses --      1.9252                 1.7238                 1.6540
 Frc consts  --      1.7302                 1.6048                 1.5726
 IR Inten    --     14.2666                12.0608                 3.9375

                     34                     35                     36
                      A                      A                      A
 Frequencies --   1302.6570              1322.7754              1342.6315
 Red. masses --      2.0799                 1.3989                 1.7862
 Frc consts  --      2.0795                 1.4422                 1.8971
 IR Inten    --      8.1428                15.1656                19.5025

                     37                     38                     39
                      A                      A                      A
 Frequencies --   1365.1024              1426.3547              1485.8954
 Red. masses --      1.1993                 1.4537                 1.0959
 Frc consts  --      1.3168                 1.7426                 1.4256
 IR Inten    --      9.0518                 2.1344                 1.5617

                     40                     41                     42
                      A                      A                      A
 Frequencies --   1508.7505              1519.1203              3011.4760
 Red. masses --      1.1115                 1.1325                 1.0819
 Frc consts  --      1.4907                 1.5398                 5.7807
 IR Inten    --      1.2800                 1.4614                29.0511

                     43                     44                     45
                      A                      A                      A
 Frequencies --   3015.6128              3021.4866              3056.6130
 Red. masses --      1.0766                 1.0697                 1.0558
 Frc consts  --      5.7683                 5.7535                 5.8116
 IR Inten    --     36.1289                75.3339                36.2007

                     46                     47                     48
                      A                      A                      A
 Frequencies --   3064.4703              3091.4752              3097.6307
 Red. masses --      1.0563                 1.1058                 1.0896
 Frc consts  --      5.8442                 6.2268                 6.1602
 IR Inten    --     29.5355                36.1541                50.4617

                     49                     50                     51
                      A                      A                      A
 Frequencies --   3116.5433              3127.9106              3821.8567
 Red. masses --      1.1096                 1.1106                 1.0661
 Frc consts  --      6.3500                 6.4019                 9.1752
 IR Inten    --     25.5790                28.1091                24.3128

 - Thermochemistry -
 -------------------
 Temperature   298.150 Kelvin.  Pressure   1.00000 Atm.
 Atom     1 has atomic number  8 and mass  15.99491

 Molecular mass:   126.06808 amu.
 Principal axes and moments of inertia in atomic units:
                           1         2         3
     Eigenvalues --   666.531291024.684321327.48474
           X            0.99992   0.00400   0.01216
           Y           -0.00382   0.99989  -0.01465
           Z           -0.01222   0.01460   0.99982
 This molecule is an asymmetric top.
 Rotational symmetry number  1.
 Warning -- assumption of classical behavior for rotation
           may cause significant error
 Rotational temperatures (Kelvin)      0.12995     0.08453     0.06525
 Rotational constants (GHZ):           2.70766     1.76127     1.35952
 Zero-point vibrational energy     423011.3 (Joules/Mol)
                                  101.10213 (Kcal/Mol)
 Warning -- explicit consideration of   9 degrees of freedom as
           vibrations may cause significant error
 Vibrational temperatures:    232.73   389.91   409.47   427.44   475.26
          (Kelvin)            582.36   709.13   751.06   825.45   903.76
                             1093.93  1158.44  1207.51  1269.95  1283.64
                             1324.04  1370.29  1383.86  1424.91  1440.17
                             1503.88  1526.53  1538.21  1553.06  1617.79
                             1641.45  1669.27  1710.17  1725.28  1757.44
                             1776.95  1808.56  1827.77  1874.23  1903.18
                             1931.74  1964.08  2052.20  2137.87  2170.75
                             2185.67  4332.84  4338.79  4347.24  4397.78
                             4409.08  4447.94  4456.79  4484.01  4500.36
                             5498.79

 Zero-point correction=                           0.161116 (Hartree/Particle)
 Thermal correction to Energy=                    0.168230
 Thermal correction to Enthalpy=                  0.169174
 Thermal correction to Gibbs Free Energy=         0.130012
 Sum of electronic and zero-point Energies=           -422.952915
 Sum of electronic and thermal Energies=              -422.945802
 Sum of electronic and thermal Enthalpies=            -422.944858
 Sum of electronic and thermal Free Energies=         -422.984020

                     E (Thermal)             CV                S
                      KCal/Mol        Cal/Mol-Kelvin    Cal/Mol-Kelvin
 Total                  105.566             29.602             82.423
 Electronic               0.000              0.000              0.000
 Translational            0.889              2.981             40.409
 Rotational               0.889              2.981             28.296
 Vibrational            103.788             23.641             13.718
 Vibration     1          0.622              1.889              2.529
 Vibration     2          0.675              1.727              1.590
 Vibration     3          0.683              1.702              1.506
 Vibration     4          0.691              1.679              1.433
 Vibration     5          0.713              1.615              1.258
 Vibration     6          0.770              1.460              0.945
 Vibration     7          0.849              1.266              0.676
 Vibration     8          0.877              1.201              0.605
 Vibration     9          0.930              1.088              0.497

 Optimization completed.
    -- Stationary point found.
 Normal termination of Gaussian 09 at Tue Jan 28 00:31:15 2020.
