 Gaussian 09, Revision D.01,
 Gaussian 09:  ES64L-G09RevD.01 24-Apr-2013

 -----------------------------
 # b3lyp 6-31G(2df,p) opt Freq
 -----------------------------

 -----
 titel
 -----
 Symbolic Z-matrix:
 Charge =  0 Multiplicity = 1

 SCF Done:  E(RB3LYP) =  -423.194819944     A.U. after   14 cycles
 Optimization completed.
    -- Stationary point found.
 Normal termination of Gaussian 09 at Tue Jan 28 03:13:16 2020.

 ----------------------------------------------------------------------
 #N Geom=AllCheck Guess=TCheck SCRF=Check GenChk RB3LYP/6-31G(2df,p) Fr
 eq
 ----------------------------------------------------------------------

 Structure from the checkpoint file:  "/scratch/puck/g09_4e0adcaf-075a-4053-875d-0a7b05d8ce97/Gau-45098.chk"
 -----
 titel
 -----
 Charge =  0 Multiplicity = 1

                         Standard orientation:
 ---------------------------------------------------------------------
 Center     Atomic      Atomic             Coordinates (Angstroms)
 Number     Number       Type             X           Y           Z
 ---------------------------------------------------------------------
      1          6           0        2.728243    0.000000    0.597136
      2          6           0        1.437389    0.000001   -0.223295
      3          6           0        0.598980   -1.286442    0.001076
      4          6           0       -0.851705   -1.034849   -0.457783
      5          8           0       -0.867682    0.000003   -1.487925
      6          6           0       -0.851708    1.034851   -0.457781
      7          6           0        0.598979    1.286442    0.001083
      8          6           0       -1.482731    0.000000    0.483086
      9          8           0       -2.183591   -0.000004    1.447790
     10          1           0        3.335537    0.884587    0.378113
     11          1           0        2.514562   -0.000017    1.672195
     12          1           0        3.335551   -0.884572    0.378090
     13          1           0        1.704334    0.000003   -1.284366
     14          1           0        1.043359   -2.116936   -0.557073
     15          1           0        0.592873   -1.581633    1.058417
     16          1           0       -1.408476   -1.929852   -0.743397
     17          1           0       -1.408473    1.929857   -0.743394
     18          1           0        1.043357    2.116938   -0.557062
     19          1           0        0.592870    1.581626    1.058426
 ---------------------------------------------------------------------

 SCF Done:  E(RB3LYP) =  -423.194819944     A.U. after    1 cycles

 The electronic state is 1-A.
 Alpha  occ. eigenvalues --  -19.14960 -19.14908 -10.27467 -10.24447 -10.24446
 Alpha  occ. eigenvalues --  -10.20031 -10.19625 -10.19624 -10.18259  -1.06960
 Alpha  occ. eigenvalues --   -1.04318  -0.82117  -0.76000  -0.73306  -0.67403
 Alpha  occ. eigenvalues --   -0.63151  -0.58410  -0.52846  -0.49528  -0.48310
 Alpha  occ. eigenvalues --   -0.46692  -0.45433  -0.43265  -0.41181  -0.40980
 Alpha  occ. eigenvalues --   -0.39413  -0.38149  -0.38016  -0.36054  -0.34125
 Alpha  occ. eigenvalues --   -0.33038  -0.32237  -0.26274  -0.24768
 Alpha virt. eigenvalues --   -0.02071   0.06267   0.10002   0.11192   0.12088
 Alpha virt. eigenvalues --    0.12399   0.14134   0.14549   0.15174   0.16826
 Alpha virt. eigenvalues --    0.16928   0.18290   0.19197   0.20119   0.22359

 Mulliken charges:
               1
     1  C   -0.413264
     2  C    0.067137
     3  C   -0.250247
     4  C   -0.045285
     5  O   -0.292615
     6  C   -0.045286
     7  C   -0.250247
     8  C    0.428536
     9  O   -0.305355
    10  H    0.115999
    11  H    0.117893
    12  H    0.115999
    13  H    0.097176
    14  H    0.111434
    15  H    0.114912
    16  H    0.103433
    17  H    0.103433
    18  H    0.111434
    19  H    0.114912
 Sum of Mulliken charges =   0.00000

 Dipole moment (field-independent basis, Debye):
    X=              2.2460    Y=              0.0000    Z=             -0.5006  Tot=              2.3011
 Quadrupole moment (field-independent basis, Debye-Ang):
   XX=            -57.0155   YY=            -48.8305   ZZ=            -59.2055
   XY=              0.0000   XZ=              3.1916   YZ=              0.0000

  Exact polarizability:  81.055   0.000  75.704  -2.148   0.000  66.749
 Approx polarizability: 107.067   0.000 109.914  -8.531   0.000 113.386

                      1                      2                      3
                      A                      A                      A
 Frequencies --     81.9413               169.2367               216.4013
 Red. masses --      4.2269                 3.6412                 1.7727
 Frc consts  --      0.0167                 0.0614                 0.0489
 IR Inten    --      1.2836                 5.1711                 0.2480

                      4                      5                      6
                      A                      A                      A
 Frequencies --    255.7875               301.7474               396.4935
 Red. masses --      1.2261                 2.4199                 3.8416
 Frc consts  --      0.0473                 0.1298                 0.3558
 IR Inten    --      0.0612                 0.1068                 5.7350

                      7                      8                      9
                      A                      A                      A
 Frequencies --    415.8092               449.7048               501.6431
 Red. masses --      2.1570                 3.6710                 6.1326
 Frc consts  --      0.2197                 0.4374                 0.9092
 IR Inten    --      0.1782                 5.8143                 3.9484

                     10                     11                     12
                      A                      A                      A
 Frequencies --    529.9466               701.3142               758.2195
 Red. masses --      5.8993                 3.2925                 2.9160
 Frc consts  --      0.9762                 0.9541                 0.9877
 IR Inten    --      0.0313                 0.3799                 1.2954

                     13                     14                     15
                      A                      A                      A
 Frequencies --    781.8039               859.5504               865.2692
 Red. masses --      4.6101                 1.9224                 4.4687
 Frc consts  --      1.6602                 0.8368                 1.9712
 IR Inten    --      2.0352                25.1296                17.5796

                     16                     17                     18
                      A                      A                      A
 Frequencies --    880.2402               930.1912               937.9668
 Red. masses --      2.0595                 1.4339                 2.6460
 Frc consts  --      0.9402                 0.7310                 1.3715
 IR Inten    --      0.0789                 1.2327                32.7634

                     19                     20                     21
                      A                      A                      A
 Frequencies --    998.5977               999.6230              1030.9434
 Red. masses --      2.7593                 2.1985                 3.0079
 Frc consts  --      1.6212                 1.2943                 1.8836
 IR Inten    --     17.2242                 7.5784                 7.4813

                     22                     23                     24
                      A                      A                      A
 Frequencies --   1053.5393              1089.9157              1102.9679
 Red. masses --      1.9120                 1.6279                 1.4384
 Frc consts  --      1.2504                 1.1394                 1.0310
 IR Inten    --     12.4240                 0.8692                 9.0150

                     25                     26                     27
                      A                      A                      A
 Frequencies --   1118.7435              1159.9639              1225.2540
 Red. masses --      2.9677                 1.9906                 1.6274
 Frc consts  --      2.1884                 1.5781                 1.4394
 IR Inten    --      1.5662                 3.1851                 0.2719

                     28                     29                     30
                      A                      A                      A
 Frequencies --   1251.2755              1258.5544              1277.9671
 Red. masses --      1.4223                 1.5163                 1.5144
 Frc consts  --      1.3120                 1.4151                 1.4573
 IR Inten    --      0.5018                 2.4623                 3.1967

                     31                     32                     33
                      A                      A                      A
 Frequencies --   1313.0517              1322.2694              1329.8832
 Red. masses --      1.4502                 1.3905                 1.2943
 Frc consts  --      1.4731                 1.4324                 1.3486
 IR Inten    --      5.2027                 0.1394                 1.3301

                     34                     35                     36
                      A                      A                      A
 Frequencies --   1379.9839              1383.4460              1416.1816
 Red. masses --      1.5659                 1.2332                 1.2325
 Frc consts  --      1.7570                 1.3907                 1.4564
 IR Inten    --      1.0273                 4.2993                 0.9726

                     37                     38                     39
                      A                      A                      A
 Frequencies --   1485.6221              1492.7439              1499.4812
 Red. masses --      1.0826                 1.0727                 1.0550
 Frc consts  --      1.4078                 1.4083                 1.3976
 IR Inten    --      0.9936                 1.5503                 8.7498

                     40                     41                     42
                      A                      A                      A
 Frequencies --   1500.3172              1920.9065              3024.9532
 Red. masses --      1.0538                12.3463                 1.0425
 Frc consts  --      1.3975                26.8411                 5.6204
 IR Inten    --      2.1771               282.2350                 7.0194

                     43                     44                     45
                      A                      A                      A
 Frequencies --   3026.5357              3030.0337              3050.1358
 Red. masses --      1.0614                 1.0561                 1.0845
 Frc consts  --      5.7280                 5.7127                 5.9444
 IR Inten    --     27.9459                31.2800                 4.4158

                     46                     47                     48
                      A                      A                      A
 Frequencies --   3072.6739              3077.5147              3096.8158
 Red. masses --      1.1012                 1.1001                 1.0988
 Frc consts  --      6.1256                 6.1390                 6.2086
 IR Inten    --      5.6553                16.0203                53.0874

                     49                     50                     51
                      A                      A                      A
 Frequencies --   3097.2182              3099.3484              3100.6904
 Red. masses --      1.0868                 1.1015                 1.0932
 Frc consts  --      6.1425                 6.2339                 6.1926
 IR Inten    --     43.0726                25.6762                17.1505

 - Thermochemistry -
 -------------------
 Temperature   298.150 Kelvin.  Pressure   1.00000 Atm.
 Atom     1 has atomic number  6 and mass  12.00000

 Molecular mass:   126.06808 amu.
 Principal axes and moments of inertia in atomic units:
                           1         2         3
     Eigenvalues --   638.380771361.468301367.20095
           X            0.99945   0.03321   0.00000
           Y            0.00000  -0.00001   1.00000
           Z           -0.03321   0.99945   0.00001
 This molecule is an asymmetric top.
 Rotational symmetry number  1.
 Warning -- assumption of classical behavior for rotation
           may cause significant error
 Rotational temperatures (Kelvin)      0.13568     0.06362     0.06335
 Rotational constants (GHZ):           2.82706     1.32558     1.32003
 Zero-point vibrational energy     420609.5 (Joules/Mol)
                                  100.52808 (Kcal/Mol)
 Warning -- explicit consideration of  10 degrees of freedom as
           vibrations may cause significant error
 Vibrational temperatures:    117.90   243.49   311.35   368.02   434.15
          (Kelvin)            570.46   598.26   647.02   721.75   762.47
                             1009.03  1090.91  1124.84  1236.70  1244.93
                             1266.47  1338.34  1349.52  1436.76  1438.23
                             1483.30  1515.81  1568.14  1586.92  1609.62
                             1668.93  1762.87  1800.30  1810.78  1838.71
                             1889.19  1902.45  1913.40  1985.49  1990.47
                             2037.57  2137.48  2147.72  2157.42  2158.62
                             2763.75  4352.23  4354.50  4359.54  4388.46
                             4420.89  4427.85  4455.62  4456.20  4459.27
                             4461.20

 Zero-point correction=                           0.160202 (Hartree/Particle)
 Thermal correction to Energy=                    0.168067
 Thermal correction to Enthalpy=                  0.169011
 Thermal correction to Gibbs Free Energy=         0.127841
 Sum of electronic and zero-point Energies=           -423.034618
 Sum of electronic and thermal Energies=              -423.026753
 Sum of electronic and thermal Enthalpies=            -423.025809
 Sum of electronic and thermal Free Energies=         -423.066979

                     E (Thermal)             CV                S
                      KCal/Mol        Cal/Mol-Kelvin    Cal/Mol-Kelvin
 Total                  105.464             30.762             86.651
 Electronic               0.000              0.000              0.000
 Translational            0.889              2.981             40.409
 Rotational               0.889              2.981             28.565
 Vibrational            103.686             24.801             17.677
 Vibration     1          0.600              1.962              3.844
 Vibration     2          0.625              1.880              2.444
 Vibration     3          0.645              1.816              1.989
 Vibration     4          0.666              1.753              1.690
 Vibration     5          0.694              1.670              1.407
 Vibration     6          0.763              1.478              0.976
 Vibration     7          0.779              1.436              0.906
 Vibration     8          0.809              1.362              0.797
 Vibration     9          0.857              1.246              0.654
 Vibration    10          0.885              1.184              0.587

 Optimization completed.
    -- Stationary point found.
 Normal termination of Gaussian 09 at Tue Jan 28 05:11:32 2020.
