 Gaussian 09, Revision D.01,
 Gaussian 09:  ES64L-G09RevD.01 24-Apr-2013

 -----------------------------
 # b3lyp 6-31G(2df,p) opt Freq
 -----------------------------

 -----
 titel
 -----
 Symbolic Z-matrix:
 Charge =  0 Multiplicity = 1

 SCF Done:  E(RB3LYP) =  -423.179286786     A.U. after   13 cycles
 Optimization completed.
    -- Stationary point found.
 Normal termination of Gaussian 09 at Tue Jan 28 00:05:58 2020.

 ----------------------------------------------------------------------
 #N Geom=AllCheck Guess=TCheck SCRF=Check GenChk RB3LYP/6-31G(2df,p) Fr
 eq
 ----------------------------------------------------------------------

 Structure from the checkpoint file:  "/scratch/puck/g09_342a1fbf-4125-40f1-90c0-ec2a31abdd8f/Gau-59309.chk"
 -----
 titel
 -----
 Charge =  0 Multiplicity = 1

                         Standard orientation:
 ---------------------------------------------------------------------
 Center     Atomic      Atomic             Coordinates (Angstroms)
 Number     Number       Type             X           Y           Z
 ---------------------------------------------------------------------
      1          8           0        2.317508   -0.432411   -0.386693
      2          6           0        1.047305    0.135716   -0.621585
      3          6           0        0.906442    1.567493   -0.143145
      4          6           0       -0.218084    1.784656    0.539727
      5          6           0       -1.036848    0.534988    0.668210
      6          6           0       -2.078581    0.199005   -0.459907
      7          6           0       -1.300165   -1.109643   -0.775813
      8          6           0       -0.129292   -0.607067    0.108554
      9          8           0        0.460660   -1.513933    1.014567
     10          1           0        2.271002   -0.838499    0.488187
     11          1           0        0.897297    0.089527   -1.709075
     12          1           0        1.659767    2.309030   -0.384907
     13          1           0       -0.533523    2.744192    0.936676
     14          1           0       -1.437803    0.360010    1.672923
     15          1           0       -3.114082    0.074959   -0.137388
     16          1           0       -2.051281    0.927346   -1.272879
     17          1           0       -1.776416   -1.989360   -0.330676
     18          1           0       -1.075715   -1.332782   -1.822148
     19          1           0       -0.209250   -1.804567    1.640049
 ---------------------------------------------------------------------

 SCF Done:  E(RB3LYP) =  -423.179286786     A.U. after    1 cycles

 The electronic state is 1-A.
 Alpha  occ. eigenvalues --  -19.15249 -19.11843 -10.23693 -10.22700 -10.18932
 Alpha  occ. eigenvalues --  -10.18713 -10.18279 -10.18212 -10.17531  -1.04081
 Alpha  occ. eigenvalues --   -0.99885  -0.85863  -0.77505  -0.69931  -0.65268
 Alpha  occ. eigenvalues --   -0.62306  -0.56976  -0.54747  -0.51896  -0.49146
 Alpha  occ. eigenvalues --   -0.45581  -0.43814  -0.42103  -0.41326  -0.40367
 Alpha  occ. eigenvalues --   -0.38564  -0.36202  -0.35114  -0.33645  -0.32166
 Alpha  occ. eigenvalues --   -0.29562  -0.26648  -0.25317  -0.24590
 Alpha virt. eigenvalues --    0.01470   0.06367   0.08175   0.10482   0.12951
 Alpha virt. eigenvalues --    0.14139   0.14868   0.15691   0.16563   0.17465
 Alpha virt. eigenvalues --    0.17807   0.19017   0.20827   0.21638   0.23750

 Mulliken charges:
               1
     1  O   -0.438156
     2  C    0.071116
     3  C   -0.108619
     4  C   -0.089895
     5  C   -0.110828
     6  C   -0.232927
     7  C   -0.289931
     8  C    0.354948
     9  O   -0.487159
    10  H    0.290466
    11  H    0.086036
    12  H    0.100121
    13  H    0.096102
    14  H    0.062056
    15  H    0.102001
    16  H    0.109876
    17  H    0.093543
    18  H    0.106813
    19  H    0.284436
 Sum of Mulliken charges =   0.00000

 Dipole moment (field-independent basis, Debye):
    X=             -2.6854    Y=              0.1011    Z=              1.2801  Tot=              2.9767
 Quadrupole moment (field-independent basis, Debye-Ang):
   XX=            -57.0272   YY=            -51.6506   ZZ=            -50.3714
   XY=              2.6629   XZ=              0.1505   YZ=             -2.4382

  Exact polarizability:  84.271   1.883  75.960  -5.028   1.165  66.032
 Approx polarizability: 126.227  -1.793 106.425 -13.543   0.564 104.546

                      1                      2                      3
                      A                      A                      A
 Frequencies --     61.6694               190.6786               204.6317
 Red. masses --      3.4863                 2.3271                 1.1135
 Frc consts  --      0.0078                 0.0499                 0.0275
 IR Inten    --      0.7021                 5.5690                77.0144

                      4                      5                      6
                      A                      A                      A
 Frequencies --    284.5000               311.1378               334.4274
 Red. masses --      2.5612                 2.1068                 3.0863
 Frc consts  --      0.1221                 0.1202                 0.2034
 IR Inten    --     10.4142                 8.9858                33.1636

                      7                      8                      9
                      A                      A                      A
 Frequencies --    365.5516               418.2736               447.4081
 Red. masses --      1.9740                 3.6120                 2.7086
 Frc consts  --      0.1554                 0.3723                 0.3195
 IR Inten    --     61.4424                 4.3078                 8.7476

                     10                     11                     12
                      A                      A                      A
 Frequencies --    555.3955               618.9065               680.8905
 Red. masses --      4.0305                 3.8139                 2.3451
 Frc consts  --      0.7325                 0.8607                 0.6406
 IR Inten    --      1.5178                 2.0640                 2.5863

                     13                     14                     15
                      A                      A                      A
 Frequencies --    730.2047               743.2628               818.0833
 Red. masses --      3.3086                 1.7995                 1.6407
 Frc consts  --      1.0394                 0.5857                 0.6470
 IR Inten    --      2.0128                 2.7929                18.0874

                     16                     17                     18
                      A                      A                      A
 Frequencies --    833.4120               843.7883               915.3051
 Red. masses --      2.3871                 1.9886                 2.2406
 Frc consts  --      0.9769                 0.8342                 1.1060
 IR Inten    --     27.8546                22.9550                 2.7010

                     19                     20                     21
                      A                      A                      A
 Frequencies --    942.9677               978.5919              1015.1382
 Red. masses --      2.7435                 1.3460                 2.3014
 Frc consts  --      1.4373                 0.7594                 1.3973
 IR Inten    --      1.5734                 0.8936                10.7673

                     22                     23                     24
                      A                      A                      A
 Frequencies --   1037.4420              1064.2739              1082.6535
 Red. masses --      2.1261                 2.9000                 1.9335
 Frc consts  --      1.3482                 1.9353                 1.3353
 IR Inten    --      0.1699                 9.1495                16.0834

                     25                     26                     27
                      A                      A                      A
 Frequencies --   1088.5502              1113.7200              1137.5976
 Red. masses --      1.7436                 1.6337                 1.9647
 Frc consts  --      1.2173                 1.1939                 1.4980
 IR Inten    --     54.3640                50.2097                80.3548

                     28                     29                     30
                      A                      A                      A
 Frequencies --   1157.1009              1198.1156              1232.3050
 Red. masses --      2.4159                 1.3670                 1.2299
 Frc consts  --      1.9058                 1.1562                 1.1004
 IR Inten    --     23.4081                15.5931                 4.4700

                     31                     32                     33
                      A                      A                      A
 Frequencies --   1256.2943              1260.8477              1287.3786
 Red. masses --      1.4648                 1.3827                 1.7081
 Frc consts  --      1.3621                 1.2951                 1.6679
 IR Inten    --     13.0033                 6.2206                34.7756

                     34                     35                     36
                      A                      A                      A
 Frequencies --   1298.9255              1327.5722              1347.2617
 Red. masses --      1.4725                 1.4634                 1.7593
 Frc consts  --      1.4638                 1.5196                 1.8815
 IR Inten    --     20.2516                22.6028                 2.8998

                     37                     38                     39
                      A                      A                      A
 Frequencies --   1385.5190              1441.3910              1477.5540
 Red. masses --      1.8281                 1.1909                 1.0889
 Frc consts  --      2.0676                 1.4578                 1.4006
 IR Inten    --      9.9394                83.6249                 1.8618

                     40                     41                     42
                      A                      A                      A
 Frequencies --   1493.9407              1672.1438              3006.3725
 Red. masses --      1.1201                 6.5035                 1.0835
 Frc consts  --      1.4729                10.7138                 5.7697
 IR Inten    --      3.8077                 2.3491                32.1139

                     43                     44                     45
                      A                      A                      A
 Frequencies --   3039.0451              3048.5728              3072.4957
 Red. masses --      1.0839                 1.0609                 1.0594
 Frc consts  --      5.8983                 5.8092                 5.8922
 IR Inten    --     33.9640                33.1648                35.0370

                     46                     47                     48
                      A                      A                      A
 Frequencies --   3099.2619              3128.2876              3176.3967
 Red. masses --      1.1066                 1.1084                 1.0859
 Frc consts  --      6.2628                 6.3910                 6.4553
 IR Inten    --     12.9705                33.0258                11.2560

                     49                     50                     51
                      A                      A                      A
 Frequencies --   3206.4933              3774.7883              3835.0806
 Red. masses --      1.1026                 1.0648                 1.0663
 Frc consts  --      6.6790                 8.9396                 9.2402
 IR Inten    --     18.5195                51.7714                24.7040

 - Thermochemistry -
 -------------------
 Temperature   298.150 Kelvin.  Pressure   1.00000 Atm.
 Atom     1 has atomic number  8 and mass  15.99491

 Molecular mass:   126.06808 amu.
 Principal axes and moments of inertia in atomic units:
                           1         2         3
     Eigenvalues --   755.717461017.539921363.79609
           X            0.99903   0.04329   0.00777
           Y           -0.04335   0.99904   0.00686
           Z           -0.00747  -0.00719   0.99995
 This molecule is an asymmetric top.
 Rotational symmetry number  1.
 Warning -- assumption of classical behavior for rotation
           may cause significant error
 Rotational temperatures (Kelvin)      0.11461     0.08512     0.06351
 Rotational constants (GHZ):           2.38812     1.77363     1.32332
 Zero-point vibrational energy     418941.8 (Joules/Mol)
                                  100.12950 (Kcal/Mol)
 Warning -- explicit consideration of  11 degrees of freedom as
           vibrations may cause significant error
 Vibrational temperatures:     88.73   274.34   294.42   409.33   447.66
          (Kelvin)            481.17   525.95   601.80   643.72   799.09
                              890.47   979.65  1050.60  1069.39  1177.04
                             1199.09  1214.02  1316.92  1356.72  1407.97
                             1460.56  1492.65  1531.25  1557.70  1566.18
                             1602.39  1636.75  1664.81  1723.82  1773.01
                             1807.53  1814.08  1852.25  1868.86  1910.08
                             1938.41  1993.45  2073.84  2125.87  2149.44
                             2405.84  4325.49  4372.50  4386.21  4420.63
                             4459.14  4500.90  4570.12  4613.42  5431.07
                             5517.82

 Zero-point correction=                           0.159567 (Hartree/Particle)
 Thermal correction to Energy=                    0.167807
 Thermal correction to Enthalpy=                  0.168751
 Thermal correction to Gibbs Free Energy=         0.126929
 Sum of electronic and zero-point Energies=           -423.019720
 Sum of electronic and thermal Energies=              -423.011480
 Sum of electronic and thermal Enthalpies=            -423.010536
 Sum of electronic and thermal Free Energies=         -423.052358

                     E (Thermal)             CV                S
                      KCal/Mol        Cal/Mol-Kelvin    Cal/Mol-Kelvin
 Total                  105.301             32.599             88.023
 Electronic               0.000              0.000              0.000
 Translational            0.889              2.981             40.409
 Rotational               0.889              2.981             28.441
 Vibrational            103.523             26.638             19.174
 Vibration     1          0.597              1.973              4.403
 Vibration     2          0.634              1.853              2.221
 Vibration     3          0.640              1.833              2.091
 Vibration     4          0.683              1.702              1.506
 Vibration     5          0.700              1.652              1.356
 Vibration     6          0.716              1.607              1.239
 Vibration     7          0.739              1.543              1.098
 Vibration     8          0.781              1.431              0.898
 Vibration     9          0.807              1.367              0.804
 Vibration    10          0.911              1.128              0.533
 Vibration    11          0.979              0.992              0.418

 Optimization completed.
    -- Stationary point found.
 Normal termination of Gaussian 09 at Tue Jan 28 00:54:53 2020.
