 Gaussian 09, Revision D.01,
 Gaussian 09:  ES64L-G09RevD.01 24-Apr-2013

 -----------------------------
 # b3lyp 6-31G(2df,p) opt Freq
 -----------------------------

 -----
 titel
 -----
 Symbolic Z-matrix:
 Charge =  0 Multiplicity = 1

 SCF Done:  E(RB3LYP) =  -423.116589212     A.U. after   14 cycles
 Optimization completed.
    -- Stationary point found.
 Normal termination of Gaussian 09 at Mon Jan 27 16:24:56 2020.

 ----------------------------------------------------------------------
 #N Geom=AllCheck Guess=TCheck SCRF=Check GenChk RB3LYP/6-31G(2df,p) Fr
 eq
 ----------------------------------------------------------------------

 Structure from the checkpoint file:  "/scratch/puck/g09_0bb3ce42-c086-4d37-a46b-869f85b527d2/Gau-76333.chk"
 -----
 titel
 -----
 Charge =  0 Multiplicity = 1

                         Standard orientation:
 ---------------------------------------------------------------------
 Center     Atomic      Atomic             Coordinates (Angstroms)
 Number     Number       Type             X           Y           Z
 ---------------------------------------------------------------------
      1          6           0       -1.870515    1.400999    0.292027
      2          6           0       -1.096474    0.147825   -0.054258
      3          6           0       -1.661303   -0.835137   -0.995117
      4          8           0       -1.676832   -1.078406    0.415853
      5          6           0        0.381207    0.222636    0.129156
      6          6           0        1.071279   -0.099641    1.444380
      7          6           0        1.436748   -0.853076    0.203795
      8          8           0        2.367553   -0.108807   -0.589384
      9          6           0        1.381048    0.940084   -0.779996
     10          1           0       -1.686535    1.686113    1.332883
     11          1           0       -1.560960    2.237173   -0.344746
     12          1           0       -2.943482    1.241775    0.160366
     13          1           0       -2.636336   -0.651633   -1.444857
     14          1           0       -0.994678   -1.475207   -1.570524
     15          1           0        1.789044    0.586759    1.885574
     16          1           0        0.442849   -0.644898    2.141393
     17          1           0        1.401261   -1.929173    0.081171
     18          1           0        1.748712    1.923652   -0.464396
     19          1           0        1.062423    0.981001   -1.828538
 ---------------------------------------------------------------------

 SCF Done:  E(RB3LYP) =  -423.116589212     A.U. after    1 cycles

 The electronic state is 1-A.
 Alpha  occ. eigenvalues --  -19.15298 -19.13858 -10.25039 -10.23983 -10.23831
 Alpha  occ. eigenvalues --  -10.23433 -10.20360 -10.18939 -10.18673  -1.07336
 Alpha  occ. eigenvalues --   -1.05167  -0.83893  -0.75499  -0.70193  -0.66478
 Alpha  occ. eigenvalues --   -0.62545  -0.59292  -0.54340  -0.52221  -0.48645
 Alpha  occ. eigenvalues --   -0.47682  -0.46412  -0.43027  -0.41101  -0.40633
 Alpha  occ. eigenvalues --   -0.40279  -0.38534  -0.37740  -0.34805  -0.32969
 Alpha  occ. eigenvalues --   -0.30582  -0.27150  -0.26603  -0.23669
 Alpha virt. eigenvalues --    0.07284   0.09104   0.09758   0.10759   0.11466
 Alpha virt. eigenvalues --    0.12350   0.12668   0.14025   0.15078   0.15942
 Alpha virt. eigenvalues --    0.16474   0.18317   0.19091   0.19504   0.21170

 Mulliken charges:
               1
     1  C   -0.472391
     2  C    0.287537
     3  C   -0.224300
     4  O   -0.276579
     5  C    0.231236
     6  C   -0.346654
     7  C    0.046445
     8  O   -0.286698
     9  C   -0.137430
    10  H    0.132004
    11  H    0.123002
    12  H    0.127757
    13  H    0.112302
    14  H    0.114141
    15  H    0.112589
    16  H    0.132219
    17  H    0.113586
    18  H    0.104961
    19  H    0.106272
 Sum of Mulliken charges =   0.00000

 Dipole moment (field-independent basis, Debye):
    X=             -1.2274    Y=              1.2945    Z=             -0.6879  Tot=              1.9119
 Quadrupole moment (field-independent basis, Debye-Ang):
   XX=            -59.2706   YY=            -51.4405   ZZ=            -51.6692
   XY=             -1.3288   XZ=              4.1244   YZ=              1.0264

  Exact polarizability:  77.699   0.481  72.839   3.721   1.634  72.553
 Approx polarizability: 105.952   0.905 109.598   2.143   0.124 111.341

                      1                      2                      3
                      A                      A                      A
 Frequencies --     54.9091               145.0521               169.3918
 Red. masses --      3.3571                 3.7151                 2.6752
 Frc consts  --      0.0060                 0.0461                 0.0452
 IR Inten    --      0.9981                 0.9112                 3.7475

                      4                      5                      6
                      A                      A                      A
 Frequencies --    204.5731               298.1899               301.9917
 Red. masses --      1.1872                 3.1294                 2.3391
 Frc consts  --      0.0293                 0.1639                 0.1257
 IR Inten    --      0.5794                 1.2038                 3.0341

                      7                      8                      9
                      A                      A                      A
 Frequencies --    360.1091               440.2096               482.9819
 Red. masses --      2.5348                 2.5563                 2.7576
 Frc consts  --      0.1937                 0.2919                 0.3790
 IR Inten    --      2.6161                 2.0349                 3.8750

                     10                     11                     12
                      A                      A                      A
 Frequencies --    499.9433               553.9555               758.5245
 Red. masses --      3.3422                 3.2456                 3.0857
 Frc consts  --      0.4922                 0.5868                 1.0460
 IR Inten    --      9.6907                 2.2750                 8.0800

                     13                     14                     15
                      A                      A                      A
 Frequencies --    795.8471               851.6624               872.6137
 Red. masses --      3.1531                 2.6859                 3.3196
 Frc consts  --      1.1767                 1.1478                 1.4893
 IR Inten    --      7.3023                26.0888                 8.9004

                     16                     17                     18
                      A                      A                      A
 Frequencies --    906.1604               920.5082               932.0858
 Red. masses --      1.8986                 1.6611                 2.0591
 Frc consts  --      0.9185                 0.8293                 1.0540
 IR Inten    --      7.9603                 4.7579                15.4280

                     19                     20                     21
                      A                      A                      A
 Frequencies --    985.6034               999.7289              1020.1979
 Red. masses --      2.9795                 1.5600                 1.8904
 Frc consts  --      1.7053                 0.9186                 1.1592
 IR Inten    --     28.7140                 7.9884                11.9182

                     22                     23                     24
                      A                      A                      A
 Frequencies --   1026.8098              1062.8857              1079.0311
 Red. masses --      1.7747                 1.8118                 1.7504
 Frc consts  --      1.1024                 1.2060                 1.2007
 IR Inten    --     14.0706                10.8699                13.9711

                     25                     26                     27
                      A                      A                      A
 Frequencies --   1087.4083              1117.1849              1134.5366
 Red. masses --      1.9453                 2.3689                 1.3526
 Frc consts  --      1.3553                 1.7420                 1.0258
 IR Inten    --      1.0212                16.2524                 4.1470

                     28                     29                     30
                      A                      A                      A
 Frequencies --   1157.6407              1163.5819              1183.6352
 Red. masses --      1.3021                 1.3650                 1.9110
 Frc consts  --      1.0282                 1.0888                 1.5774
 IR Inten    --      2.6779                 5.5677                26.8542

                     31                     32                     33
                      A                      A                      A
 Frequencies --   1225.5020              1291.0882              1326.3482
 Red. masses --      1.7518                 2.0733                 1.8590
 Frc consts  --      1.5501                 2.0362                 1.9268
 IR Inten    --      1.7669                 6.1662                10.0367

                     34                     35                     36
                      A                      A                      A
 Frequencies --   1371.1048              1412.4102              1427.9977
 Red. masses --      2.1734                 1.3641                 1.6913
 Frc consts  --      2.4073                 1.6033                 2.0321
 IR Inten    --      6.3379                 9.3314                12.1500

                     37                     38                     39
                      A                      A                      A
 Frequencies --   1479.2609              1482.8698              1500.1528
 Red. masses --      1.2625                 1.2149                 1.2586
 Frc consts  --      1.6277                 1.5739                 1.6688
 IR Inten    --      3.8281                11.2045                 1.3615

                     40                     41                     42
                      A                      A                      A
 Frequencies --   1516.2934              1526.1473              3017.8266
 Red. masses --      1.1147                 1.3721                 1.0543
 Frc consts  --      1.5099                 1.8829                 5.6571
 IR Inten    --      0.5091                 3.9971                59.2680

                     43                     44                     45
                      A                      A                      A
 Frequencies --   3035.9779              3067.4699              3083.0643
 Red. masses --      1.0359                 1.1114                 1.0505
 Frc consts  --      5.6257                 6.1614                 5.8831
 IR Inten    --     16.3343                34.3500                24.5805

                     46                     47                     48
                      A                      A                      A
 Frequencies --   3100.6824              3115.2552              3124.8628
 Red. masses --      1.1002                 1.0542                 1.1017
 Frc consts  --      6.2323                 6.0280                 6.3381
 IR Inten    --     15.7905                10.8101                17.9808

                     49                     50                     51
                      A                      A                      A
 Frequencies --   3171.5882              3185.9603              3215.5931
 Red. masses --      1.1194                 1.0946                 1.1151
 Frc consts  --      6.6345                 6.5463                 6.7932
 IR Inten    --     22.2985                12.4129                 5.5712

 - Thermochemistry -
 -------------------
 Temperature   298.150 Kelvin.  Pressure   1.00000 Atm.
 Atom     1 has atomic number  6 and mass  12.00000

 Molecular mass:   126.06808 amu.
 Principal axes and moments of inertia in atomic units:
                           1         2         3
     Eigenvalues --   587.970101398.022651469.04655
           X            0.99961  -0.02117   0.01794
           Y            0.01954   0.99608   0.08632
           Z           -0.01970  -0.08594   0.99611
 This molecule is an asymmetric top.
 Rotational symmetry number  1.
 Warning -- assumption of classical behavior for rotation
           may cause significant error
 Rotational temperatures (Kelvin)      0.14731     0.06195     0.05896
 Rotational constants (GHZ):           3.06944     1.29092     1.22851
 Zero-point vibrational energy     414173.5 (Joules/Mol)
                                   98.98985 (Kcal/Mol)
 Warning -- explicit consideration of  11 degrees of freedom as
           vibrations may cause significant error
 Vibrational temperatures:     79.00   208.70   243.72   294.33   429.03
          (Kelvin)            434.50   518.12   633.36   694.90   719.31
                              797.02  1091.35  1145.05  1225.35  1255.49
                             1303.76  1324.40  1341.06  1418.06  1438.39
                             1467.84  1477.35  1529.25  1552.48  1564.54
                             1607.38  1632.34  1665.58  1674.13  1702.98
                             1763.22  1857.59  1908.32  1972.71  2032.14
                             2054.57  2128.32  2133.52  2158.38  2181.61
                             2195.78  4341.97  4368.09  4413.40  4435.84
                             4461.18  4482.15  4495.97  4563.20  4583.88
                             4626.52

 Zero-point correction=                           0.157750 (Hartree/Particle)
 Thermal correction to Energy=                    0.166191
 Thermal correction to Enthalpy=                  0.167135
 Thermal correction to Gibbs Free Energy=         0.124487
 Sum of electronic and zero-point Energies=           -422.958839
 Sum of electronic and thermal Energies=              -422.950398
 Sum of electronic and thermal Enthalpies=            -422.949454
 Sum of electronic and thermal Free Energies=         -422.992102

                     E (Thermal)             CV                S
                      KCal/Mol        Cal/Mol-Kelvin    Cal/Mol-Kelvin
 Total                  104.286             32.162             89.761
 Electronic               0.000              0.000              0.000
 Translational            0.889              2.981             40.409
 Rotational               0.889              2.981             28.581
 Vibrational            102.509             26.201             20.771
 Vibration     1          0.596              1.976              4.632
 Vibration     2          0.616              1.908              2.736
 Vibration     3          0.625              1.880              2.442
 Vibration     4          0.640              1.833              2.092
 Vibration     5          0.691              1.677              1.427
 Vibration     6          0.694              1.670              1.406
 Vibration     7          0.735              1.554              1.122
 Vibration     8          0.800              1.382              0.826
 Vibration     9          0.839              1.288              0.702
 Vibration    10          0.855              1.250              0.658
 Vibration    11          0.909              1.131              0.536

 Normal termination of Gaussian 09 at Mon Jan 27 17:17:52 2020.
