 Gaussian 09, Revision D.01,
 Gaussian 09:  ES64L-G09RevD.01 24-Apr-2013

 -----------------------------
 # b3lyp 6-31G(2df,p) opt Freq
 -----------------------------

 -----
 titel
 -----
 Symbolic Z-matrix:
 Charge =  0 Multiplicity = 1

 SCF Done:  E(RB3LYP) =  -423.158421768     A.U. after   12 cycles
 Optimization completed.
    -- Stationary point found.
 Normal termination of Gaussian 09 at Mon Jan 27 17:02:14 2020.

 ----------------------------------------------------------------------
 #N Geom=AllCheck Guess=TCheck SCRF=Check GenChk RB3LYP/6-31G(2df,p) Fr
 eq
 ----------------------------------------------------------------------

 Structure from the checkpoint file:  "/scratch/puck/g09_b9a92cd5-e729-4ab6-981f-02bfb7bc6ea3/Gau-167328.chk"
 -----
 titel
 -----
 Charge =  0 Multiplicity = 1

                         Standard orientation:
 ---------------------------------------------------------------------
 Center     Atomic      Atomic             Coordinates (Angstroms)
 Number     Number       Type             X           Y           Z
 ---------------------------------------------------------------------
      1          6           0       -2.034804   -1.191109   -0.482136
      2          6           0       -0.940464   -0.239994   -0.092524
      3          6           0       -0.919152    0.995449    0.836208
      4          6           0       -0.087857    1.783381   -0.171603
      5          6           0        0.019909    0.494774   -1.053672
      6          8           0        1.321067   -0.067801   -1.168373
      7          6           0        1.663966   -0.864065   -0.057867
      8          8           0        1.222988   -0.315978    1.163134
      9          6           0       -0.184740   -0.264929    1.201596
     10          1           0       -1.627121   -2.102442   -0.935862
     11          1           0       -2.625834   -1.491460    0.389418
     12          1           0       -2.719964   -0.737864   -1.207602
     13          1           0       -1.714664    1.383138    1.461551
     14          1           0       -0.659722    2.567765   -0.672916
     15          1           0        0.862534    2.188518    0.183088
     16          1           0       -0.355871    0.626314   -2.069978
     17          1           0        1.242727   -1.876795   -0.176375
     18          1           0        2.754356   -0.913681   -0.020074
     19          1           0       -0.610028   -0.854309    2.010657
 ---------------------------------------------------------------------

 SCF Done:  E(RB3LYP) =  -423.158421768     A.U. after    1 cycles

 The electronic state is 1-A.
 Alpha  occ. eigenvalues --  -19.14750 -19.13856 -10.27042 -10.23674 -10.23647
 Alpha  occ. eigenvalues --  -10.20024 -10.19302 -10.18703 -10.18072  -1.07439
 Alpha  occ. eigenvalues --   -1.00226  -0.89498  -0.73993  -0.71336  -0.69249
 Alpha  occ. eigenvalues --   -0.62985  -0.56203  -0.54402  -0.51059  -0.49382
 Alpha  occ. eigenvalues --   -0.48251  -0.43826  -0.43067  -0.41835  -0.41126
 Alpha  occ. eigenvalues --   -0.40260  -0.37944  -0.36569  -0.35780  -0.33290
 Alpha  occ. eigenvalues --   -0.28222  -0.26446  -0.25681  -0.24658
 Alpha virt. eigenvalues --    0.08822   0.10247   0.10508   0.11095   0.13001
 Alpha virt. eigenvalues --    0.13891   0.15042   0.15090   0.15918   0.16613
 Alpha virt. eigenvalues --    0.17097   0.19424   0.20193   0.21104   0.21723

 Mulliken charges:
               1
     1  C   -0.514236
     2  C    0.251274
     3  C   -0.149221
     4  C   -0.246536
     5  C    0.062686
     6  O   -0.269925
     7  C    0.020418
     8  O   -0.252499
     9  C    0.052849
    10  H    0.126372
    11  H    0.121659
    12  H    0.121226
    13  H    0.086463
    14  H    0.100280
    15  H    0.110286
    16  H    0.087040
    17  H    0.081574
    18  H    0.117553
    19  H    0.092736
 Sum of Mulliken charges =   0.00000

 Dipole moment (field-independent basis, Debye):
    X=             -1.8670    Y=             -0.5130    Z=             -0.0295  Tot=              1.9364
 Quadrupole moment (field-independent basis, Debye-Ang):
   XX=            -52.6604   YY=            -51.2354   ZZ=            -55.0740
   XY=             -1.2439   XZ=             -0.2329   YZ=             -0.7020

  Exact polarizability:  77.461  -1.366  75.566  -0.466  -0.050  68.345
 Approx polarizability: 108.306  -3.137 107.710  -0.352   0.974 106.629

                      1                      2                      3
                      A                      A                      A
 Frequencies --    184.0317               189.7545               196.7259
 Red. masses --      1.2631                 2.2311                 2.7563
 Frc consts  --      0.0252                 0.0473                 0.0629
 IR Inten    --      0.6276                 0.7126                 2.5217

                      4                      5                      6
                      A                      A                      A
 Frequencies --    268.6290               326.4166               388.7663
 Red. masses --      2.3945                 2.6466                 2.5773
 Frc consts  --      0.1018                 0.1661                 0.2295
 IR Inten    --      0.4270                 4.7023                 0.8238

                      7                      8                      9
                      A                      A                      A
 Frequencies --    488.0938               518.7172               543.4764
 Red. masses --      3.4868                 4.4993                 4.5892
 Frc consts  --      0.4894                 0.7133                 0.7986
 IR Inten    --      1.4738                 3.5973                 1.5973

                     10                     11                     12
                      A                      A                      A
 Frequencies --    632.0778               699.6158               790.7936
 Red. masses --      3.4973                 5.7652                 2.8884
 Frc consts  --      0.8232                 1.6626                 1.0642
 IR Inten    --      4.3859                 7.5731                 5.2094

                     13                     14                     15
                      A                      A                      A
 Frequencies --    821.8501               855.4118               890.1891
 Red. masses --      2.4580                 2.5773                 2.0762
 Frc consts  --      0.9782                 1.1111                 0.9694
 IR Inten    --      5.4150                10.3856                 9.9260

                     16                     17                     18
                      A                      A                      A
 Frequencies --    935.3085               964.5278               982.0073
 Red. masses --      2.1472                 1.5272                 2.9139
 Frc consts  --      1.1067                 0.8371                 1.6556
 IR Inten    --      5.7641                11.8056                23.1638

                     19                     20                     21
                      A                      A                      A
 Frequencies --    997.4794              1020.1578              1044.9491
 Red. masses --      1.9342                 3.8641                 1.8866
 Frc consts  --      1.1339                 2.3694                 1.2137
 IR Inten    --     14.9108                55.7910                 4.1817

                     22                     23                     24
                      A                      A                      A
 Frequencies --   1066.6042              1094.6156              1129.9072
 Red. masses --      2.3533                 1.7358                 1.9329
 Frc consts  --      1.5774                 1.2254                 1.4540
 IR Inten    --     14.9613                30.8866                40.5006

                     25                     26                     27
                      A                      A                      A
 Frequencies --   1132.7236              1173.4378              1194.7949
 Red. masses --      2.3495                 1.7496                 2.4725
 Frc consts  --      1.7762                 1.4194                 2.0796
 IR Inten    --      5.1902                19.1126               110.2129

                     28                     29                     30
                      A                      A                      A
 Frequencies --   1214.9052              1236.3076              1253.1885
 Red. masses --      1.6065                 2.0639                 1.9840
 Frc consts  --      1.3971                 1.8586                 1.8358
 IR Inten    --     53.0553                 3.9055                 2.7816

                     31                     32                     33
                      A                      A                      A
 Frequencies --   1295.2302              1297.7415              1335.7531
 Red. masses --      1.3848                 1.4010                 1.3997
 Frc consts  --      1.3687                 1.3901                 1.4715
 IR Inten    --      2.6001                 2.6604                 5.4474

                     34                     35                     36
                      A                      A                      A
 Frequencies --   1365.6440              1414.8041              1439.0484
 Red. masses --      1.2912                 1.2293                 1.4134
 Frc consts  --      1.4188                 1.4498                 1.7246
 IR Inten    --      8.9756                 1.6040                15.0458

                     37                     38                     39
                      A                      A                      A
 Frequencies --   1455.9221              1485.0150              1486.1686
 Red. masses --      1.7741                 1.1065                 1.1571
 Frc consts  --      2.2157                 1.4377                 1.5058
 IR Inten    --      8.5769                 0.6236                14.3695

                     40                     41                     42
                      A                      A                      A
 Frequencies --   1498.3404              1522.7874              2953.8210
 Red. masses --      1.0947                 1.1204                 1.0702
 Frc consts  --      1.4479                 1.5308                 5.5015
 IR Inten    --      5.5929                 1.2842                88.3916

                     43                     44                     45
                      A                      A                      A
 Frequencies --   3021.0283              3064.3828              3080.9525
 Red. masses --      1.0356                 1.0579                 1.1007
 Frc consts  --      5.5688                 5.8528                 6.1557
 IR Inten    --     35.3092                32.7773                22.5316

                     46                     47                     48
                      A                      A                      A
 Frequencies --   3091.8545              3094.9590              3106.6458
 Red. masses --      1.0896                 1.1000                 1.0946
 Frc consts  --      6.1370                 6.2078                 6.2244
 IR Inten    --     22.8735                26.3201                42.8606

                     49                     50                     51
                      A                      A                      A
 Frequencies --   3121.9398              3136.3208              3184.1058
 Red. masses --      1.1077                 1.0886                 1.0929
 Frc consts  --      6.3609                 6.3089                 6.5285
 IR Inten    --     22.4327                19.8774                20.1941

 - Thermochemistry -
 -------------------
 Temperature   298.150 Kelvin.  Pressure   1.00000 Atm.
 Atom     1 has atomic number  6 and mass  12.00000

 Molecular mass:   126.06808 amu.
 Principal axes and moments of inertia in atomic units:
                           1         2         3
     Eigenvalues --   741.345231021.841341053.72536
           X            0.99935   0.03309   0.01434
           Y           -0.03362   0.99867   0.03898
           Z           -0.01303  -0.03944   0.99914
 This molecule is an asymmetric top.
 Rotational symmetry number  1.
 Warning -- assumption of classical behavior for rotation
           may cause significant error
 Rotational temperatures (Kelvin)      0.11683     0.08476     0.08220
 Rotational constants (GHZ):           2.43441     1.76617     1.71272
 Zero-point vibrational energy     422807.7 (Joules/Mol)
                                  101.05347 (Kcal/Mol)
 Warning -- explicit consideration of   9 degrees of freedom as
           vibrations may cause significant error
 Vibrational temperatures:    264.78   273.01   283.04   386.50   469.64
          (Kelvin)            559.35   702.26   746.32   781.94   909.42
                             1006.59  1137.77  1182.46  1230.75  1280.78
                             1345.70  1387.74  1412.89  1435.15  1467.78
                             1503.45  1534.60  1574.91  1625.68  1629.73
                             1688.31  1719.04  1747.98  1778.77  1803.06
                             1863.55  1867.16  1921.85  1964.85  2035.58
                             2070.47  2094.74  2136.60  2138.26  2155.77
                             2190.95  4249.88  4346.58  4408.96  4432.80
                             4448.48  4452.95  4469.76  4491.77  4512.46
                             4581.21

 Zero-point correction=                           0.161039 (Hartree/Particle)
 Thermal correction to Energy=                    0.168426
 Thermal correction to Enthalpy=                  0.169370
 Thermal correction to Gibbs Free Energy=         0.129625
 Sum of electronic and zero-point Energies=           -422.997383
 Sum of electronic and thermal Energies=              -422.989996
 Sum of electronic and thermal Enthalpies=            -422.989052
 Sum of electronic and thermal Free Energies=         -423.028797

                     E (Thermal)             CV                S
                      KCal/Mol        Cal/Mol-Kelvin    Cal/Mol-Kelvin
 Total                  105.689             29.715             83.650
 Electronic               0.000              0.000              0.000
 Translational            0.889              2.981             40.409
 Rotational               0.889              2.981             28.170
 Vibrational            103.911             23.753             15.072
 Vibration     1          0.631              1.862              2.287
 Vibration     2          0.633              1.854              2.230
 Vibration     3          0.636              1.844              2.164
 Vibration     4          0.673              1.731              1.605
 Vibration     5          0.710              1.623              1.278
 Vibration     6          0.757              1.494              1.005
 Vibration     7          0.844              1.276              0.689
 Vibration     8          0.874              1.209              0.613
 Vibration     9          0.899              1.154              0.558

 Optimization completed.
    -- Stationary point found.
 Normal termination of Gaussian 09 at Mon Jan 27 17:48:24 2020.
