 Gaussian 09, Revision D.01,
 Gaussian 09:  ES64L-G09RevD.01 24-Apr-2013

 -----------------------------
 # b3lyp 6-31G(2df,p) opt Freq
 -----------------------------

 -----
 titel
 -----
 Symbolic Z-matrix:
 Charge =  0 Multiplicity = 1

 SCF Done:  E(RB3LYP) =  -423.194930762     A.U. after   14 cycles
 Optimization completed.
    -- Stationary point found.
 Normal termination of Gaussian 09 at Mon Jan 27 13:49:08 2020.

 ----------------------------------------------------------------------
 #N Geom=AllCheck Guess=TCheck SCRF=Check GenChk RB3LYP/6-31G(2df,p) Fr
 eq
 ----------------------------------------------------------------------

 Structure from the checkpoint file:  "/scratch/puck/g09_036a26ad-5935-4d53-98ab-1dfb5da8236c/Gau-23165.chk"
 -----
 titel
 -----
 Charge =  0 Multiplicity = 1

                         Standard orientation:
 ---------------------------------------------------------------------
 Center     Atomic      Atomic             Coordinates (Angstroms)
 Number     Number       Type             X           Y           Z
 ---------------------------------------------------------------------
      1          8           0       -3.641676   -0.461482   -0.196038
      2          6           0       -2.699645    0.168869    0.210739
      3          6           0       -1.315132    0.147960   -0.391514
      4          6           0       -0.251442   -0.261971    0.647351
      5          6           0        1.164105   -0.210377    0.104300
      6          6           0        2.201064   -1.219175    0.598134
      7          6           0        1.676574   -1.335447   -0.790875
      8          6           0        1.715601    1.135102   -0.187280
      9          8           0        1.129693    2.176110   -0.009409
     10          1           0       -2.799076    0.833510    1.101706
     11          1           0       -1.318215   -0.525315   -1.253425
     12          1           0       -1.085544    1.164080   -0.735358
     13          1           0       -0.318997    0.404457    1.515248
     14          1           0       -0.462019   -1.276187    1.005180
     15          1           0        3.218857   -0.870903    0.739666
     16          1           0        1.860569   -1.923969    1.348186
     17          1           0        2.330729   -1.071869   -1.615415
     18          1           0        0.967376   -2.124206   -1.015735
     19          1           0        2.755443    1.123605   -0.591615
 ---------------------------------------------------------------------

 SCF Done:  E(RB3LYP) =  -423.194930762     A.U. after    1 cycles

 The electronic state is 1-A.
 Alpha  occ. eigenvalues --  -19.14385 -19.13703 -10.27719 -10.26909 -10.22266
 Alpha  occ. eigenvalues --  -10.21603 -10.21559 -10.20685 -10.19337  -1.05151
 Alpha  occ. eigenvalues --   -1.04365  -0.89438  -0.79257  -0.69322  -0.65742
 Alpha  occ. eigenvalues --   -0.62863  -0.57324  -0.55301  -0.51447  -0.49613
 Alpha  occ. eigenvalues --   -0.47103  -0.45143  -0.44038  -0.42835  -0.41273
 Alpha  occ. eigenvalues --   -0.40675  -0.39163  -0.38625  -0.36681  -0.35510
 Alpha  occ. eigenvalues --   -0.32786  -0.30135  -0.26088  -0.24729
 Alpha virt. eigenvalues --   -0.02693  -0.01926   0.07574   0.09317   0.10425
 Alpha virt. eigenvalues --    0.11172   0.12929   0.13999   0.14448   0.15415
 Alpha virt. eigenvalues --    0.16233   0.17413   0.19360   0.20949   0.21995

 Mulliken charges:
               1
     1  O   -0.239233
     2  C    0.156043
     3  C   -0.275497
     4  C   -0.304243
     5  C    0.270680
     6  C   -0.317846
     7  C   -0.299001
     8  C    0.119349
     9  O   -0.274020
    10  H    0.073751
    11  H    0.115259
    12  H    0.147034
    13  H    0.122728
    14  H    0.107454
    15  H    0.128896
    16  H    0.133768
    17  H    0.128622
    18  H    0.135323
    19  H    0.070933
 Sum of Mulliken charges =   0.00000

 Dipole moment (field-independent basis, Debye):
    X=              3.3807    Y=             -1.7210    Z=              0.3987  Tot=              3.8144
 Quadrupole moment (field-independent basis, Debye-Ang):
   XX=            -62.3002   YY=            -58.5123   ZZ=            -51.4229
   XY=             -5.9522   XZ=             -2.4791   YZ=             -0.7650

  Exact polarizability:  91.391  -2.376  77.950  -1.609   2.835  64.345
 Approx polarizability: 120.666  -2.860 126.553   0.744   7.166  98.925

                      1                      2                      3
                      A                      A                      A
 Frequencies --     53.1213                65.6556               110.8042
 Red. masses --      5.9089                 3.0853                 2.3771
 Frc consts  --      0.0098                 0.0078                 0.0172
 IR Inten    --      5.5192                 5.6021                 0.8043

                      4                      5                      6
                      A                      A                      A
 Frequencies --    142.5995               154.1289               242.3172
 Red. masses --      4.1137                 3.3117                 3.0390
 Frc consts  --      0.0493                 0.0464                 0.1051
 IR Inten    --      4.0482                 2.5153                 5.2280

                      7                      8                      9
                      A                      A                      A
 Frequencies --    292.2440               327.1729               362.2798
 Red. masses --      2.8235                 2.1026                 2.5749
 Frc consts  --      0.1421                 0.1326                 0.1991
 IR Inten    --      2.2219                 0.7685                 2.5274

                     10                     11                     12
                      A                      A                      A
 Frequencies --    432.6682               533.0831               542.0385
 Red. masses --      3.1276                 2.4370                 4.9913
 Frc consts  --      0.3450                 0.4080                 0.8640
 IR Inten    --      5.2154                17.3184                 8.1454

                     13                     14                     15
                      A                      A                      A
 Frequencies --    753.5455               782.3778               808.4867
 Red. masses --      1.4134                 1.0502                 3.0540
 Frc consts  --      0.4729                 0.3788                 1.1762
 IR Inten    --      2.6557                 1.5471                10.7953

                     16                     17                     18
                      A                      A                      A
 Frequencies --    841.1344               855.9404               920.9229
 Red. masses --      3.6092                 1.6635                 1.8715
 Frc consts  --      1.5045                 0.7180                 0.9352
 IR Inten    --      6.9327                 7.7982                58.5251

                     19                     20                     21
                      A                      A                      A
 Frequencies --    948.5715               990.9743              1010.1336
 Red. masses --      1.3644                 2.3308                 2.3204
 Frc consts  --      0.7233                 1.3486                 1.3950
 IR Inten    --      2.6593                 7.0474                17.9982

                     22                     23                     24
                      A                      A                      A
 Frequencies --   1050.0415              1058.9389              1086.6749
 Red. masses --      1.6459                 1.2334                 1.6852
 Frc consts  --      1.0692                 0.8149                 1.1724
 IR Inten    --      0.2950                 1.0456                 5.4677

                     25                     26                     27
                      A                      A                      A
 Frequencies --   1093.0444              1111.5404              1194.2043
 Red. masses --      1.9999                 2.4798                 1.3471
 Frc consts  --      1.4078                 1.8052                 1.1319
 IR Inten    --      0.6357                18.3518                 6.6097

                     28                     29                     30
                      A                      A                      A
 Frequencies --   1198.1175              1267.0683              1283.9951
 Red. masses --      1.3855                 1.4601                 1.5647
 Frc consts  --      1.1718                 1.3811                 1.5199
 IR Inten    --     11.4822                 1.2770                 7.6518

                     31                     32                     33
                      A                      A                      A
 Frequencies --   1326.5772              1359.3859              1380.8674
 Red. masses --      1.7237                 1.6927                 1.8256
 Frc consts  --      1.7873                 1.8430                 2.0510
 IR Inten    --      2.0769                17.7682                13.9022

                     34                     35                     36
                      A                      A                      A
 Frequencies --   1432.0115              1441.8804              1463.8941
 Red. masses --      1.1943                 1.2642                 1.1033
 Frc consts  --      1.4429                 1.5485                 1.3930
 IR Inten    --      6.2893                 2.2881                 0.2359

                     37                     38                     39
                      A                      A                      A
 Frequencies --   1468.3221              1481.8754              1498.7736
 Red. masses --      1.0870                 1.1194                 1.2850
 Frc consts  --      1.3807                 1.4483                 1.7007
 IR Inten    --      5.5499                 7.2133                 0.2355

                     40                     41                     42
                      A                      A                      A
 Frequencies --   1809.2520              1835.2618              2852.5640
 Red. masses --     10.4489                10.0025                 1.0816
 Frc consts  --     20.1520                19.8498                 5.1854
 IR Inten    --    218.2102               193.7844               125.2637

                     43                     44                     45
                      A                      A                      A
 Frequencies --   2854.1808              3031.4148              3043.7996
 Red. masses --      1.0822                 1.0585                 1.0589
 Frc consts  --      5.1944                 5.7312                 5.7803
 IR Inten    --     97.4503                11.6939                13.6361

                     46                     47                     48
                      A                      A                      A
 Frequencies --   3073.1986              3108.7078              3134.6590
 Red. masses --      1.1025                 1.1035                 1.0505
 Frc consts  --      6.1347                 6.2830                 6.0817
 IR Inten    --      8.4092                15.5372                10.7400

                     49                     50                     51
                      A                      A                      A
 Frequencies --   3136.7398              3215.0438              3229.0573
 Red. masses --      1.0589                 1.1178                 1.1161
 Frc consts  --      6.1382                 6.8077                 6.8565
 IR Inten    --      7.1286                 0.0475                 7.3548

 - Thermochemistry -
 -------------------
 Temperature   298.150 Kelvin.  Pressure   1.00000 Atm.
 Atom     1 has atomic number  8 and mass  15.99491

 Molecular mass:   126.06808 amu.
 Principal axes and moments of inertia in atomic units:
                           1         2         3
     Eigenvalues --   658.643741991.379532411.21490
           X            0.99960  -0.02775  -0.00618
           Y            0.02775   0.99961   0.00072
           Z            0.00615  -0.00089   0.99998
 This molecule is an asymmetric top.
 Rotational symmetry number  1.
 Warning -- assumption of classical behavior for rotation
           may cause significant error
 Rotational temperatures (Kelvin)      0.13150     0.04349     0.03592
 Rotational constants (GHZ):           2.74009     0.90628     0.74848
 Zero-point vibrational energy     410865.2 (Joules/Mol)
                                   98.19913 (Kcal/Mol)
 Warning -- explicit consideration of  12 degrees of freedom as
           vibrations may cause significant error
 Vibrational temperatures:     76.43    94.46   159.42   205.17   221.76
          (Kelvin)            348.64   420.47   470.73   521.24   622.51
                              766.99   779.87  1084.18  1125.67  1163.23
                             1210.20  1231.51  1325.00  1364.78  1425.79
                             1453.36  1510.77  1523.57  1563.48  1572.65
                             1599.26  1718.19  1723.82  1823.03  1847.38
                             1908.65  1955.85  1986.76  2060.34  2074.54
                             2106.21  2112.59  2132.09  2156.40  2603.11
                             2640.53  4104.20  4106.52  4361.52  4379.34
                             4421.64  4472.73  4510.07  4513.06  4625.73
                             4645.89

 Zero-point correction=                           0.156490 (Hartree/Particle)
 Thermal correction to Energy=                    0.166107
 Thermal correction to Enthalpy=                  0.167051
 Thermal correction to Gibbs Free Energy=         0.120833
 Sum of electronic and zero-point Energies=           -423.038440
 Sum of electronic and thermal Energies=              -423.028824
 Sum of electronic and thermal Enthalpies=            -423.027879
 Sum of electronic and thermal Free Energies=         -423.074097

                     E (Thermal)             CV                S
                      KCal/Mol        Cal/Mol-Kelvin    Cal/Mol-Kelvin
 Total                  104.234             34.039             97.274
 Electronic               0.000              0.000              0.000
 Translational            0.889              2.981             40.409
 Rotational               0.889              2.981             29.538
 Vibrational            102.456             28.077             27.328
 Vibration     1          0.596              1.976              4.698
 Vibration     2          0.597              1.971              4.280
 Vibration     3          0.607              1.941              3.255
 Vibration     4          0.616              1.911              2.769
 Vibration     5          0.620              1.898              2.621
 Vibration     6          0.659              1.775              1.786
 Vibration     7          0.688              1.688              1.461
 Vibration     8          0.711              1.621              1.274
 Vibration     9          0.736              1.550              1.112
 Vibration    10          0.794              1.399              0.850
 Vibration    11          0.888              1.177              0.580
 Vibration    12          0.897              1.157              0.561

 Optimization completed.
    -- Stationary point found.
 Normal termination of Gaussian 09 at Mon Jan 27 14:29:48 2020.
