 Gaussian 09, Revision D.01,
 Gaussian 09:  ES64L-G09RevD.01 24-Apr-2013

 -----------------------------
 # b3lyp 6-31G(2df,p) opt Freq
 -----------------------------

 -----
 titel
 -----
 Symbolic Z-matrix:
 Charge =  0 Multiplicity = 1

 SCF Done:  E(RB3LYP) =  -423.181458682     A.U. after   14 cycles
 Optimization completed.
    -- Stationary point found.
 Normal termination of Gaussian 09 at Mon Jan 27 22:00:47 2020.

 ----------------------------------------------------------------------
 #N Geom=AllCheck Guess=TCheck SCRF=Check GenChk RB3LYP/6-31G(2df,p) Fr
 eq
 ----------------------------------------------------------------------

 Structure from the checkpoint file:  "/scratch/puck/g09_c90bd35b-b845-44e3-bee0-7068c6eb5d9c/Gau-98429.chk"
 -----
 titel
 -----
 Charge =  0 Multiplicity = 1

                         Standard orientation:
 ---------------------------------------------------------------------
 Center     Atomic      Atomic             Coordinates (Angstroms)
 Number     Number       Type             X           Y           Z
 ---------------------------------------------------------------------
      1          6           0        2.427675    0.299600    0.390724
      2          6           0        1.176633    0.085622   -0.450430
      3          6           0        0.303335   -1.186293   -0.211176
      4          8           0        0.486834   -2.356664   -0.376071
      5          6           0       -0.918966   -0.335843    0.128593
      6          6           0       -2.373351   -0.650443    0.035407
      7          8           0       -0.447948    0.502450    1.220975
      8          6           0       -0.099802    0.890594   -0.111859
      9          6           0       -0.500772    2.243982   -0.600116
     10          1           0        2.934548    1.232744    0.123759
     11          1           0        2.169966    0.334556    1.452152
     12          1           0        3.133720   -0.521717    0.235328
     13          1           0        1.405779    0.127012   -1.523854
     14          1           0       -2.604746   -1.105838   -0.932274
     15          1           0       -2.663046   -1.359036    0.817963
     16          1           0       -2.974759    0.254878    0.154757
     17          1           0        0.151735    3.016253   -0.178156
     18          1           0       -0.424567    2.298582   -1.690673
     19          1           0       -1.528229    2.472957   -0.305082
 ---------------------------------------------------------------------

 SCF Done:  E(RB3LYP) =  -423.181458682     A.U. after    1 cycles

 The electronic state is 1-A.
 Alpha  occ. eigenvalues --  -19.16270 -19.14017 -10.27085 -10.25330 -10.24698
 Alpha  occ. eigenvalues --  -10.20162 -10.19861 -10.19509 -10.18098  -1.08820
 Alpha  occ. eigenvalues --   -1.04610  -0.81093  -0.76055  -0.74936  -0.70519
 Alpha  occ. eigenvalues --   -0.60180  -0.57364  -0.51916  -0.48709  -0.47708
 Alpha  occ. eigenvalues --   -0.44538  -0.43965  -0.43139  -0.41978  -0.41533
 Alpha  occ. eigenvalues --   -0.41096  -0.39767  -0.38152  -0.36939  -0.35286
 Alpha  occ. eigenvalues --   -0.34407  -0.31064  -0.27225  -0.23253
 Alpha virt. eigenvalues --   -0.02115   0.07640   0.08963   0.11752   0.12362
 Alpha virt. eigenvalues --    0.12856   0.13735   0.14075   0.15123   0.16403
 Alpha virt. eigenvalues --    0.17845   0.18137   0.18498   0.19382   0.21926

 Mulliken charges:
               1
     1  C   -0.415361
     2  C   -0.187923
     3  C    0.392411
     4  O   -0.308760
     5  C    0.204705
     6  C   -0.516386
     7  O   -0.316325
     8  C    0.341526
     9  C   -0.506191
    10  H    0.116890
    11  H    0.137807
    12  H    0.134185
    13  H    0.097805
    14  H    0.137025
    15  H    0.147624
    16  H    0.134743
    17  H    0.139139
    18  H    0.130401
    19  H    0.136686
 Sum of Mulliken charges =   0.00000

 Dipole moment (field-independent basis, Debye):
    X=             -0.7906    Y=              2.6478    Z=             -1.3972  Tot=              3.0965
 Quadrupole moment (field-independent basis, Debye-Ang):
   XX=            -49.1752   YY=            -58.2838   ZZ=            -54.2392
   XY=              2.4110   XZ=              0.6671   YZ=             -2.7092

  Exact polarizability:  84.668   2.689  84.586  -1.693  -0.346  60.989
 Approx polarizability: 108.882   3.056 129.328  -4.900   3.718 100.611

                      1                      2                      3
                      A                      A                      A
 Frequencies --     87.6452               151.4699               178.8024
 Red. masses --      4.1046                 1.0474                 2.5812
 Frc consts  --      0.0186                 0.0142                 0.0486
 IR Inten    --      2.9341                 0.0853                 0.1473

                      4                      5                      6
                      A                      A                      A
 Frequencies --    183.4438               187.3960               202.3799
 Red. masses --      1.8845                 1.2171                 2.5503
 Frc consts  --      0.0374                 0.0252                 0.0615
 IR Inten    --      1.0378                 0.7233                 1.3985

                      7                      8                      9
                      A                      A                      A
 Frequencies --    209.2060               255.3101               343.6937
 Red. masses --      1.1423                 3.8353                 3.2108
 Frc consts  --      0.0295                 0.1473                 0.2235
 IR Inten    --      0.3797                 0.1111                 4.6457

                     10                     11                     12
                      A                      A                      A
 Frequencies --    373.7087               518.1383               576.9726
 Red. masses --      3.9195                 4.6108                 3.1311
 Frc consts  --      0.3225                 0.7293                 0.6141
 IR Inten    --      4.1498                13.6128                 1.0936

                     13                     14                     15
                      A                      A                      A
 Frequencies --    593.0726               630.2455               691.8501
 Red. masses --      4.6231                 4.8174                 4.4084
 Frc consts  --      0.9581                 1.1274                 1.2432
 IR Inten    --      4.8771                 2.9647                 3.3406

                     16                     17                     18
                      A                      A                      A
 Frequencies --    752.0289               781.2855               814.6896
 Red. masses --      3.4567                 2.9870                 2.9886
 Frc consts  --      1.1518                 1.0742                 1.1687
 IR Inten    --      4.7124                 2.7560                 7.0182

                     19                     20                     21
                      A                      A                      A
 Frequencies --    902.2502               963.5228              1020.2769
 Red. masses --      2.6645                 2.0597                 1.4478
 Frc consts  --      1.2780                 1.1266                 0.8879
 IR Inten    --     32.7190                16.4599                 3.1984

                     22                     23                     24
                      A                      A                      A
 Frequencies --   1058.5229              1075.3803              1092.0049
 Red. masses --      1.4617                 1.8532                 1.9012
 Frc consts  --      0.9649                 1.2627                 1.3358
 IR Inten    --      9.2165                 0.2160                 3.6402

                     25                     26                     27
                      A                      A                      A
 Frequencies --   1126.3297              1148.8730              1194.2686
 Red. masses --      2.1852                 2.4657                 1.6628
 Frc consts  --      1.6333                 1.9175                 1.3973
 IR Inten    --      6.5544                20.7041                 5.0608

                     28                     29                     30
                      A                      A                      A
 Frequencies --   1212.2852              1296.8617              1339.0921
 Red. masses --      2.6757                 2.9220                 1.9343
 Frc consts  --      2.3168                 2.8955                 2.0436
 IR Inten    --     16.1534                11.2685                 2.4487

                     31                     32                     33
                      A                      A                      A
 Frequencies --   1399.8281              1406.4828              1411.6856
 Red. masses --      1.2270                 1.2412                 1.4169
 Frc consts  --      1.4166                 1.4466                 1.6637
 IR Inten    --      2.8176                 2.8070                 2.4978

                     34                     35                     36
                      A                      A                      A
 Frequencies --   1463.6259              1473.1628              1485.4795
 Red. masses --      1.6055                 1.0627                 1.0525
 Frc consts  --      2.0264                 1.3588                 1.3683
 IR Inten    --      1.3480                 2.7676                 3.3828

                     37                     38                     39
                      A                      A                      A
 Frequencies --   1487.9755              1494.8727              1499.9702
 Red. masses --      1.1596                 1.0480                 1.2011
 Frc consts  --      1.5127                 1.3798                 1.5922
 IR Inten    --     16.5629                 0.6410                 2.1270

                     40                     41                     42
                      A                      A                      A
 Frequencies --   1506.9322              1891.1436              3028.9577
 Red. masses --      1.4209                12.8835                 1.0798
 Frc consts  --      1.9011                27.1477                 5.8369
 IR Inten    --     17.4473               269.7026                14.9731

                     43                     44                     45
                      A                      A                      A
 Frequencies --   3036.6752              3039.5610              3041.2767
 Red. masses --      1.0363                 1.0372                 1.0351
 Frc consts  --      5.6304                 5.6457                 5.6411
 IR Inten    --     17.0105                37.5796                 6.9679

                     46                     47                     48
                      A                      A                      A
 Frequencies --   3100.0257              3104.4071              3108.5129
 Red. masses --      1.1001                 1.1007                 1.1007
 Frc consts  --      6.2287                 6.2498                 6.2665
 IR Inten    --     12.1835                17.1194                10.1602

                     49                     50                     51
                      A                      A                      A
 Frequencies --   3120.0126              3121.7535              3126.8015
 Red. masses --      1.1018                 1.1015                 1.1014
 Frc consts  --      6.3195                 6.3246                 6.3447
 IR Inten    --      6.1431                15.8722                13.6861

 - Thermochemistry -
 -------------------
 Temperature   298.150 Kelvin.  Pressure   1.00000 Atm.
 Atom     1 has atomic number  6 and mass  12.00000

 Molecular mass:   126.06808 amu.
 Principal axes and moments of inertia in atomic units:
                           1         2         3
     Eigenvalues --   914.58409 974.313991571.12050
           X            0.96259   0.27048   0.01593
           Y           -0.26996   0.96244  -0.02900
           Z           -0.02318   0.02361   0.99945
 This molecule is an asymmetric top.
 Rotational symmetry number  1.
 Warning -- assumption of classical behavior for rotation
           may cause significant error
 Rotational temperatures (Kelvin)      0.09470     0.08890     0.05513
 Rotational constants (GHZ):           1.97329     1.85232     1.14870
 Zero-point vibrational energy     408585.4 (Joules/Mol)
                                   97.65426 (Kcal/Mol)
 Warning -- explicit consideration of  13 degrees of freedom as
           vibrations may cause significant error
 Vibrational temperatures:    126.10   217.93   257.26   263.93   269.62
          (Kelvin)            291.18   301.00   367.33   494.50   537.68
                              745.48   830.13   853.30   906.78   995.42
                             1082.00  1124.09  1172.16  1298.14  1386.29
                             1467.95  1522.98  1547.23  1571.15  1620.54
                             1652.97  1718.28  1744.21  1865.89  1926.65
                             2014.04  2023.61  2031.10  2105.83  2119.55
                             2137.27  2140.86  2150.79  2158.12  2168.14
                             2720.93  4357.99  4369.09  4373.24  4375.71
                             4460.24  4466.54  4472.45  4489.00  4491.50
                             4498.76

 Zero-point correction=                           0.155622 (Hartree/Particle)
 Thermal correction to Energy=                    0.165331
 Thermal correction to Enthalpy=                  0.166276
 Thermal correction to Gibbs Free Energy=         0.121433
 Sum of electronic and zero-point Energies=           -423.025837
 Sum of electronic and thermal Energies=              -423.016127
 Sum of electronic and thermal Enthalpies=            -423.015183
 Sum of electronic and thermal Free Energies=         -423.060025

                     E (Thermal)             CV                S
                      KCal/Mol        Cal/Mol-Kelvin    Cal/Mol-Kelvin
 Total                  103.747             35.373             94.378
 Electronic               0.000              0.000              0.000
 Translational            0.889              2.981             40.409
 Rotational               0.889              2.981             28.728
 Vibrational            101.970             29.411             25.242
 Vibration     1          0.601              1.958              3.712
 Vibration     2          0.619              1.901              2.654
 Vibration     3          0.629              1.868              2.341
 Vibration     4          0.631              1.862              2.293
 Vibration     5          0.632              1.857              2.253
 Vibration     6          0.639              1.837              2.111
 Vibration     7          0.642              1.827              2.051
 Vibration     8          0.666              1.754              1.694
 Vibration     9          0.722              1.588              1.195
 Vibration    10          0.745              1.526              1.065
 Vibration    11          0.873              1.210              0.614
 Vibration    12          0.933              1.081              0.491
 Vibration    13          0.951              1.047              0.462

 Optimization completed.
    -- Stationary point found.
 Normal termination of Gaussian 09 at Mon Jan 27 22:49:12 2020.
