 Gaussian 09, Revision D.01,
 Gaussian 09:  ES64L-G09RevD.01 24-Apr-2013

 -----------------------------
 # b3lyp 6-31G(2df,p) opt Freq
 -----------------------------

 -----
 titel
 -----
 Symbolic Z-matrix:
 Charge =  0 Multiplicity = 1

 SCF Done:  E(RB3LYP) =  -423.152306985     A.U. after   13 cycles
 Optimization completed.
    -- Stationary point found.
 Normal termination of Gaussian 09 at Mon Jan 27 17:10:30 2020.

 ----------------------------------------------------------------------
 #N Geom=AllCheck Guess=TCheck SCRF=Check GenChk RB3LYP/6-31G(2df,p) Fr
 eq
 ----------------------------------------------------------------------

 Structure from the checkpoint file:  "/scratch/puck/g09_ef91eaa9-6b5f-48bf-926d-8e9c51713871/Gau-59874.chk"
 -----
 titel
 -----
 Charge =  0 Multiplicity = 1

                         Standard orientation:
 ---------------------------------------------------------------------
 Center     Atomic      Atomic             Coordinates (Angstroms)
 Number     Number       Type             X           Y           Z
 ---------------------------------------------------------------------
      1          8           0        1.984502   -1.288761   -0.014451
      2          6           0        0.988207   -0.316804   -0.016612
      3          6           0        0.550210    0.466101    1.257260
      4          6           0        0.041722    1.492186    0.203828
      5          6           0        1.284793    1.073495   -0.649198
      6          6           0       -1.068207    0.732461   -0.554938
      7          6           0       -2.129756   -0.065495    0.229158
      8          8           0       -1.354149   -1.286134    0.131967
      9          6           0       -0.359126   -0.636180   -0.695632
     10          1           0        1.613070   -2.094962    0.361153
     11          1           0       -0.159503   -0.005903    1.937968
     12          1           0        1.417107    0.840934    1.804169
     13          1           0       -0.141909    2.531899    0.469859
     14          1           0        1.222792    1.171334   -1.737673
     15          1           0        2.221701    1.494646   -0.280356
     16          1           0       -1.412224    1.248909   -1.451632
     17          1           0       -2.312081    0.231345    1.268846
     18          1           0       -3.091802   -0.167731   -0.287501
     19          1           0       -0.247034   -1.125909   -1.668163
 ---------------------------------------------------------------------

 SCF Done:  E(RB3LYP) =  -423.152306985     A.U. after    1 cycles

 The electronic state is 1-A.
 Alpha  occ. eigenvalues --  -19.14095 -19.13244 -10.23755 -10.22961 -10.22752
 Alpha  occ. eigenvalues --  -10.19823 -10.19264 -10.18589 -10.17836  -1.04079
 Alpha  occ. eigenvalues --   -1.02298  -0.87819  -0.73182  -0.69810  -0.66214
 Alpha  occ. eigenvalues --   -0.64003  -0.55143  -0.54215  -0.52851  -0.49073
 Alpha  occ. eigenvalues --   -0.48379  -0.45303  -0.42734  -0.40921  -0.38138
 Alpha  occ. eigenvalues --   -0.37912  -0.35938  -0.35125  -0.34118  -0.31557
 Alpha  occ. eigenvalues --   -0.29990  -0.29714  -0.26531  -0.24000
 Alpha virt. eigenvalues --    0.06536   0.09588   0.10418   0.11848   0.12593
 Alpha virt. eigenvalues --    0.13791   0.14534   0.15919   0.16279   0.17625
 Alpha virt. eigenvalues --    0.18107   0.18839   0.18929   0.21163   0.22229

 Mulliken charges:
               1
     1  O   -0.492526
     2  C    0.408650
     3  C   -0.303354
     4  C   -0.055778
     5  C   -0.263772
     6  C   -0.055238
     7  C   -0.111130
     8  O   -0.310554
     9  C    0.058097
    10  H    0.286207
    11  H    0.106474
    12  H    0.101112
    13  H    0.068359
    14  H    0.093246
    15  H    0.108548
    16  H    0.079677
    17  H    0.103122
    18  H    0.102221
    19  H    0.076638
 Sum of Mulliken charges =   0.00000

 Dipole moment (field-independent basis, Debye):
    X=             -0.8263    Y=              1.2550    Z=             -0.0407  Tot=              1.5032
 Quadrupole moment (field-independent basis, Debye-Ang):
   XX=            -56.0112   YY=            -52.3117   ZZ=            -51.7343
   XY=             -1.6489   XZ=              1.4670   YZ=             -0.5563

  Exact polarizability:  80.559   0.789  70.760  -0.825   0.047  68.880
 Approx polarizability: 111.798  -0.469 108.008  -3.165  -1.042 104.710

                      1                      2                      3
                      A                      A                      A
 Frequencies --    187.7256               257.9191               296.5789
 Red. masses --      3.9054                 2.7237                 1.3228
 Frc consts  --      0.0811                 0.1068                 0.0686
 IR Inten    --      1.8071                25.7626                59.0111

                      4                      5                      6
                      A                      A                      A
 Frequencies --    309.5138               377.6054               441.1856
 Red. masses --      2.3854                 4.0545                 2.5940
 Frc consts  --      0.1346                 0.3406                 0.2975
 IR Inten    --      2.2343                22.2868                 6.0700

                      7                      8                      9
                      A                      A                      A
 Frequencies --    488.5332               559.2690               574.8159
 Red. masses --      2.4734                 4.8366                 2.3217
 Frc consts  --      0.3478                 0.8913                 0.4520
 IR Inten    --      0.7838                 4.3648                 5.1215

                     10                     11                     12
                      A                      A                      A
 Frequencies --    672.8963               800.9260               803.3963
 Red. masses --      3.5084                 2.4171                 3.5190
 Frc consts  --      0.9360                 0.9135                 1.3382
 IR Inten    --      0.6646                 0.3526                 2.3348

                     13                     14                     15
                      A                      A                      A
 Frequencies --    852.6600               859.1978               887.3790
 Red. masses --      2.2385                 3.8781                 1.6853
 Frc consts  --      0.9589                 1.6868                 0.7819
 IR Inten    --      0.6479                12.4307                 6.0440

                     16                     17                     18
                      A                      A                      A
 Frequencies --    928.9710               943.5603               976.4833
 Red. masses --      2.0060                 2.0383                 2.5398
 Frc consts  --      1.0200                 1.0692                 1.4269
 IR Inten    --      7.4583                 1.0550                11.2434

                     19                     20                     21
                      A                      A                      A
 Frequencies --    989.5657              1008.9515              1021.7119
 Red. masses --      2.6724                 2.4680                 1.6659
 Frc consts  --      1.5418                 1.4803                 1.0246
 IR Inten    --     11.7206                75.5630                19.1754

                     22                     23                     24
                      A                      A                      A
 Frequencies --   1029.0157              1059.6141              1087.4834
 Red. masses --      1.8744                 2.0097                 1.4228
 Frc consts  --      1.1694                 1.3294                 0.9914
 IR Inten    --      7.7119                11.4879                 0.9638

                     25                     26                     27
                      A                      A                      A
 Frequencies --   1092.8042              1139.3026              1160.7874
 Red. masses --      1.6917                 1.5522                 2.0200
 Frc consts  --      1.1903                 1.1870                 1.6037
 IR Inten    --      7.4073                27.4824                23.4157

                     28                     29                     30
                      A                      A                      A
 Frequencies --   1169.3504              1213.2970              1223.8304
 Red. masses --      1.3272                 1.5638                 1.5143
 Frc consts  --      1.0692                 1.3563                 1.3363
 IR Inten    --     14.1122                 0.6654                 2.7410

                     31                     32                     33
                      A                      A                      A
 Frequencies --   1227.7977              1235.3166              1274.9820
 Red. masses --      1.7568                 1.7226                 1.5170
 Frc consts  --      1.5604                 1.5488                 1.4530
 IR Inten    --      6.3600                18.9852                63.5617

                     34                     35                     36
                      A                      A                      A
 Frequencies --   1295.5305              1333.6604              1344.7312
 Red. masses --      1.6686                 1.5859                 1.6268
 Frc consts  --      1.6501                 1.6620                 1.7332
 IR Inten    --     10.0827                 4.0956                55.6672

                     37                     38                     39
                      A                      A                      A
 Frequencies --   1359.6254              1375.6270              1485.6231
 Red. masses --      1.5738                 1.9523                 1.0957
 Frc consts  --      1.7141                 2.1767                 1.4249
 IR Inten    --     32.4591                 3.2985                 2.4020

                     40                     41                     42
                      A                      A                      A
 Frequencies --   1521.0339              1527.7340              3017.2455
 Red. masses --      1.1367                 1.1150                 1.0553
 Frc consts  --      1.5495                 1.5333                 5.6602
 IR Inten    --      4.6632                 3.0860                78.0361

                     43                     44                     45
                      A                      A                      A
 Frequencies --   3053.0197              3060.2150              3061.3122
 Red. masses --      1.0624                 1.1078                 1.0879
 Frc consts  --      5.8347                 6.1126                 6.0068
 IR Inten    --     25.3243                50.6295                30.5389

                     46                     47                     48
                      A                      A                      A
 Frequencies --   3080.6760              3104.6882              3125.5223
 Red. masses --      1.0566                 1.0885                 1.0983
 Frc consts  --      5.9079                 6.1816                 6.3214
 IR Inten    --     20.6815                31.0927                30.8318

                     49                     50                     51
                      A                      A                      A
 Frequencies --   3129.7266              3141.3433              3800.4702
 Red. masses --      1.0978                 1.1092                 1.0659
 Frc consts  --      6.3356                 6.4487                 9.0703
 IR Inten    --     32.8610                25.3059                27.9264

 - Thermochemistry -
 -------------------
 Temperature   298.150 Kelvin.  Pressure   1.00000 Atm.
 Atom     1 has atomic number  8 and mass  15.99491

 Molecular mass:   126.06808 amu.
 Principal axes and moments of inertia in atomic units:
                           1         2         3
     Eigenvalues --   638.76190 991.168341257.71321
           X            0.99997   0.00676   0.00245
           Y           -0.00676   0.99998  -0.00125
           Z           -0.00246   0.00124   1.00000
 This molecule is an asymmetric top.
 Rotational symmetry number  1.
 Warning -- assumption of classical behavior for rotation
           may cause significant error
 Rotational temperatures (Kelvin)      0.13560     0.08739     0.06887
 Rotational constants (GHZ):           2.82537     1.82082     1.43494
 Zero-point vibrational energy     424496.1 (Joules/Mol)
                                  101.45701 (Kcal/Mol)
 Warning -- explicit consideration of   9 degrees of freedom as
           vibrations may cause significant error
 Vibrational temperatures:    270.09   371.09   426.71   445.32   543.29
          (Kelvin)            634.77   702.89   804.66   827.03   968.15
                             1152.35  1155.91  1226.79  1236.19  1276.74
                             1336.58  1357.57  1404.94  1423.76  1451.65
                             1470.01  1480.52  1524.55  1564.64  1572.30
                             1639.20  1670.11  1682.43  1745.66  1760.82
                             1766.52  1777.34  1834.41  1863.98  1918.84
                             1934.77  1956.20  1979.22  2137.48  2188.43
                             2198.07  4341.14  4392.61  4402.96  4404.54
                             4432.40  4466.95  4496.92  4502.97  4519.69
                             5468.02

 Zero-point correction=                           0.161682 (Hartree/Particle)
 Thermal correction to Energy=                    0.168612
 Thermal correction to Enthalpy=                  0.169556
 Thermal correction to Gibbs Free Energy=         0.130835
 Sum of electronic and zero-point Energies=           -422.990625
 Sum of electronic and thermal Energies=              -422.983695
 Sum of electronic and thermal Enthalpies=            -422.982751
 Sum of electronic and thermal Free Energies=         -423.021472

                     E (Thermal)             CV                S
                      KCal/Mol        Cal/Mol-Kelvin    Cal/Mol-Kelvin
 Total                  105.805             29.248             81.495
 Electronic               0.000              0.000              0.000
 Translational            0.889              2.981             40.409
 Rotational               0.889              2.981             28.167
 Vibrational            104.028             23.286             12.919
 Vibration     1          0.632              1.857              2.250
 Vibration     2          0.667              1.749              1.676
 Vibration     3          0.690              1.680              1.436
 Vibration     4          0.699              1.656              1.365
 Vibration     5          0.748              1.518              1.049
 Vibration     6          0.801              1.380              0.823
 Vibration     7          0.844              1.275              0.687
 Vibration     8          0.915              1.119              0.525
 Vibration     9          0.931              1.086              0.495

 Optimization completed.
    -- Stationary point found.
 Normal termination of Gaussian 09 at Mon Jan 27 17:58:17 2020.
