 Gaussian 09, Revision D.01,
 Gaussian 09:  ES64L-G09RevD.01 24-Apr-2013

 -----------------------------
 # b3lyp 6-31G(2df,p) opt Freq
 -----------------------------

 -----
 titel
 -----
 Symbolic Z-matrix:
 Charge =  0 Multiplicity = 1

 SCF Done:  E(RB3LYP) =  -423.183582496     A.U. after   15 cycles
 SCF Done:  E(RB3LYP) =  -423.183581475     A.U. after    6 cycles
 SCF Done:  E(RB3LYP) =  -423.183581269     A.U. after    6 cycles
 Optimization completed.
    -- Stationary point found.
 Normal termination of Gaussian 09 at Mon Jan 27 16:19:08 2020.

 ----------------------------------------------------------------------
 #N Geom=AllCheck Guess=TCheck SCRF=Check GenChk RB3LYP/6-31G(2df,p) Fr
 eq
 ----------------------------------------------------------------------

 Structure from the checkpoint file:  "/scratch/puck/g09_d8ca1ce8-caa1-423e-87c3-10efc32a04ec/Gau-10330.chk"
 -----
 titel
 -----
 Charge =  0 Multiplicity = 1

                         Standard orientation:
 ---------------------------------------------------------------------
 Center     Atomic      Atomic             Coordinates (Angstroms)
 Number     Number       Type             X           Y           Z
 ---------------------------------------------------------------------
      1          6           0       -0.341893   -0.912562    1.821253
      2          6           0        0.291004   -0.592456    0.477454
      3          8           0        1.190159    0.524179    0.712157
      4          6           0        2.223028    0.660437   -0.126845
      5          8           0        2.478042   -0.042228   -1.068337
      6          6           0       -0.704194   -0.223648   -0.651600
      7          6           0       -1.555044   -1.439913   -1.072082
      8          6           0       -1.543901    0.918235   -0.295328
      9          6           0       -2.253229    1.844340   -0.004677
     10          1           0        0.435623   -1.120461    2.560559
     11          1           0       -0.946238   -0.072656    2.172722
     12          1           0       -0.981576   -1.795207    1.742354
     13          1           0        0.894849   -1.430175    0.117037
     14          1           0        2.818851    1.531450    0.187401
     15          1           0       -0.085547    0.057183   -1.511961
     16          1           0       -2.164696   -1.187225   -1.942642
     17          1           0       -0.909500   -2.282853   -1.337686
     18          1           0       -2.230045   -1.752957   -0.271614
     19          1           0       -2.871954    2.670697    0.244215
 ---------------------------------------------------------------------

 SCF Done:  E(RB3LYP) =  -423.183581269     A.U. after    1 cycles

 The electronic state is 1-A.
 Alpha  occ. eigenvalues --  -19.18910 -19.13535 -10.30995 -10.25374 -10.21876
 Alpha  occ. eigenvalues --  -10.18942 -10.18447 -10.18237 -10.17352  -1.10631
 Alpha  occ. eigenvalues --   -1.02277  -0.83115  -0.75882  -0.72612  -0.67303
 Alpha  occ. eigenvalues --   -0.63800  -0.58126  -0.53245  -0.51954  -0.48574
 Alpha  occ. eigenvalues --   -0.47516  -0.47216  -0.42896  -0.41021  -0.40569
 Alpha  occ. eigenvalues --   -0.39674  -0.39426  -0.36660  -0.36072  -0.34570
 Alpha  occ. eigenvalues --   -0.30802  -0.28256  -0.26735  -0.26476
 Alpha virt. eigenvalues --    0.00715   0.04979   0.05196   0.09009   0.11029
 Alpha virt. eigenvalues --    0.12544   0.12653   0.14134   0.14719   0.16245
 Alpha virt. eigenvalues --    0.17000   0.18033   0.19222   0.19624   0.21549

 Mulliken charges:
               1
     1  C   -0.412271
     2  C    0.133085
     3  O   -0.213247
     4  C    0.180178
     5  O   -0.310037
     6  C   -0.171351
     7  C   -0.406882
     8  C    0.348169
     9  C   -0.486694
    10  H    0.127215
    11  H    0.144438
    12  H    0.125684
    13  H    0.110233
    14  H    0.112500
    15  H    0.132772
    16  H    0.134231
    17  H    0.123508
    18  H    0.130449
    19  H    0.198018
 Sum of Mulliken charges =   0.00000

 Dipole moment (field-independent basis, Debye):
    X=             -1.1373    Y=             -0.2736    Z=              1.2095  Tot=              1.6826
 Quadrupole moment (field-independent basis, Debye-Ang):
   XX=            -54.7620   YY=            -49.1911   ZZ=            -54.8930
   XY=              1.2420   XZ=              3.5273   YZ=             -0.2835

  Exact polarizability:  83.841  -5.744  80.729  -4.014   4.778  68.095
 Approx polarizability: 114.818 -18.218 122.749 -13.151  14.787 103.250

                      1                      2                      3
                      A                      A                      A
 Frequencies --     48.0382                76.3636               139.5271
 Red. masses --      5.2678                 4.7349                 3.9366
 Frc consts  --      0.0072                 0.0163                 0.0452
 IR Inten    --      0.9719                 1.8215                 0.5340

                      4                      5                      6
                      A                      A                      A
 Frequencies --    179.9892               205.7853               212.9699
 Red. masses --      2.9425                 1.3969                 1.1588
 Frc consts  --      0.0562                 0.0349                 0.0310
 IR Inten    --      2.9448                 0.6964                 0.4681

                      7                      8                      9
                      A                      A                      A
 Frequencies --    231.1984               267.8304               289.9503
 Red. masses --      2.6326                 1.9712                 2.6423
 Frc consts  --      0.0829                 0.0833                 0.1309
 IR Inten    --      3.1668                 2.4232                 7.8021

                     10                     11                     12
                      A                      A                      A
 Frequencies --    368.5957               417.1495               431.7092
 Red. masses --      3.4574                 3.7872                 4.5757
 Frc consts  --      0.2768                 0.3883                 0.5024
 IR Inten    --      2.8769                12.2945                 1.5869

                     13                     14                     15
                      A                      A                      A
 Frequencies --    552.5643               624.7491               641.0302
 Red. masses --      4.1138                 1.2788                 1.4590
 Frc consts  --      0.7400                 0.2941                 0.3532
 IR Inten    --      4.7513                41.5372                22.9665

                     16                     17                     18
                      A                      A                      A
 Frequencies --    652.9373               754.4940               803.3012
 Red. masses --      2.1760                 3.1438                 5.3152
 Frc consts  --      0.5466                 1.0544                 2.0208
 IR Inten    --     26.7728                 1.9355                 3.0700

                     19                     20                     21
                      A                      A                      A
 Frequencies --    857.3452               903.9793               998.9316
 Red. masses --      2.4029                 2.0556                 1.6697
 Frc consts  --      1.0406                 0.9897                 0.9816
 IR Inten    --      9.8816                 5.9981                 8.5730

                     22                     23                     24
                      A                      A                      A
 Frequencies --   1017.0963              1046.8054              1075.9197
 Red. masses --      1.7051                 1.6618                 2.2049
 Frc consts  --      1.0392                 1.0729                 1.5038
 IR Inten    --      7.0235                 0.4304                16.8808

                     25                     26                     27
                      A                      A                      A
 Frequencies --   1115.1658              1138.1312              1187.9451
 Red. masses --      1.9330                 1.8488                 2.2188
 Frc consts  --      1.4163                 1.4110                 1.8448
 IR Inten    --     36.2085                19.9997                 5.6692

                     28                     29                     30
                      A                      A                      A
 Frequencies --   1213.9371              1304.0495              1332.2383
 Red. masses --      7.2164                 1.4571                 1.2635
 Frc consts  --      6.2656                 1.4599                 1.3212
 IR Inten    --    358.3771                 8.2400                 0.9526

                     31                     32                     33
                      A                      A                      A
 Frequencies --   1374.0629              1385.7757              1407.9774
 Red. masses --      1.2946                 1.3262                 1.1751
 Frc consts  --      1.4402                 1.5006                 1.3725
 IR Inten    --      2.2640                14.2810                 4.5254

                     34                     35                     36
                      A                      A                      A
 Frequencies --   1409.7247              1419.1961              1487.5142
 Red. masses --      1.2085                 1.3209                 1.0445
 Frc consts  --      1.4150                 1.5675                 1.3617
 IR Inten    --      3.0980                11.9145                 3.8897

                     37                     38                     39
                      A                      A                      A
 Frequencies --   1490.4505              1496.2028              1506.0728
 Red. masses --      1.0456                 1.0498                 1.0498
 Frc consts  --      1.3685                 1.3847                 1.4030
 IR Inten    --      3.5447                 4.1650                 2.1958

                     40                     41                     42
                      A                      A                      A
 Frequencies --   1810.4846              2234.2704              3029.7891
 Red. masses --      9.4644                 5.9263                 1.0902
 Frc consts  --     18.2783                17.4303                 5.8966
 IR Inten    --    253.2705                 0.9273                66.8081

                     43                     44                     45
                      A                      A                      A
 Frequencies --   3044.4964              3046.3203              3054.9282
 Red. masses --      1.0530                 1.0637                 1.0350
 Frc consts  --      5.7506                 5.8162                 5.6913
 IR Inten    --     10.2035                 8.6621                10.4468

                     46                     47                     48
                      A                      A                      A
 Frequencies --   3074.7914              3119.6828              3127.0780
 Red. masses --      1.0848                 1.1012                 1.1019
 Frc consts  --      6.0428                 6.3144                 6.3485
 IR Inten    --      9.1101                16.5420                25.9787

                     49                     50                     51
                      A                      A                      A
 Frequencies --   3131.2796              3136.7768              3503.5136
 Red. masses --      1.1018                 1.1019                 1.1620
 Frc consts  --      6.3651                 6.3882                 8.4037
 IR Inten    --     11.0666                14.6023                65.0488

 - Thermochemistry -
 -------------------
 Temperature   298.150 Kelvin.  Pressure   1.00000 Atm.
 Atom     1 has atomic number  6 and mass  12.00000

 Molecular mass:   126.06808 amu.
 Principal axes and moments of inertia in atomic units:
                           1         2         3
     Eigenvalues --   847.385541600.677381651.96076
           X            0.99956   0.02556   0.01531
           Y           -0.02594   0.99934   0.02536
           Z           -0.01465  -0.02574   0.99956
 This molecule is an asymmetric top.
 Rotational symmetry number  1.
 Warning -- assumption of classical behavior for rotation
           may cause significant error
 Rotational temperatures (Kelvin)      0.10221     0.05411     0.05243
 Rotational constants (GHZ):           2.12978     1.12749     1.09248
 Zero-point vibrational energy     409003.9 (Joules/Mol)
                                   97.75428 (Kcal/Mol)
 Warning -- explicit consideration of  13 degrees of freedom as
           vibrations may cause significant error
 Vibrational temperatures:     69.12   109.87   200.75   258.96   296.08
          (Kelvin)            306.42   332.64   385.35   417.17   530.33
                              600.18   621.13   795.02   898.87   922.30
                              939.43  1085.55  1155.77  1233.53  1300.62
                             1437.24  1463.37  1506.12  1548.01  1604.47
                             1637.51  1709.19  1746.58  1876.23  1916.79
                             1976.97  1993.82  2025.76  2028.28  2041.90
                             2140.20  2144.42  2152.70  2166.90  2604.88
                             3214.61  4359.19  4380.35  4382.97  4395.35
                             4423.93  4488.52  4499.16  4505.21  4513.12
                             5040.77

 Zero-point correction=                           0.155781 (Hartree/Particle)
 Thermal correction to Energy=                    0.166084
 Thermal correction to Enthalpy=                  0.167028
 Thermal correction to Gibbs Free Energy=         0.120140
 Sum of electronic and zero-point Energies=           -423.027800
 Sum of electronic and thermal Energies=              -423.017497
 Sum of electronic and thermal Enthalpies=            -423.016553
 Sum of electronic and thermal Free Energies=         -423.063441

                     E (Thermal)             CV                S
                      KCal/Mol        Cal/Mol-Kelvin    Cal/Mol-Kelvin
 Total                  104.219             36.776             98.684
 Electronic               0.000              0.000              0.000
 Translational            0.889              2.981             40.409
 Rotational               0.889              2.981             29.195
 Vibrational            102.442             30.815             29.080
 Vibration     1          0.595              1.978              4.897
 Vibration     2          0.599              1.965              3.982
 Vibration     3          0.615              1.914              2.810
 Vibration     4          0.629              1.867              2.329
 Vibration     5          0.640              1.832              2.081
 Vibration     6          0.644              1.821              2.018
 Vibration     7          0.653              1.793              1.870
 Vibration     8          0.673              1.732              1.610
 Vibration     9          0.686              1.692              1.474
 Vibration    10          0.741              1.537              1.086
 Vibration    11          0.780              1.433              0.902
 Vibration    12          0.793              1.401              0.853
 Vibration    13          0.908              1.134              0.539

 Optimization completed.
    -- Stationary point found.
 Normal termination of Gaussian 09 at Mon Jan 27 18:06:15 2020.
