 Gaussian 09, Revision D.01,
 Gaussian 09:  ES64L-G09RevD.01 24-Apr-2013

 -----------------------------
 # b3lyp 6-31G(2df,p) opt Freq
 -----------------------------

 -----
 titel
 -----
 Symbolic Z-matrix:
 Charge =  0 Multiplicity = 1

 SCF Done:  E(RB3LYP) =  -423.151988015     A.U. after   14 cycles
 Optimization completed.
    -- Stationary point found.
 Normal termination of Gaussian 09 at Tue Jan 28 14:11:04 2020.

 ----------------------------------------------------------------------
 #N Geom=AllCheck Guess=TCheck SCRF=Check GenChk RB3LYP/6-31G(2df,p) Fr
 eq
 ----------------------------------------------------------------------

 Structure from the checkpoint file:  "/scratch/puck/g09_74d90804-c497-4846-9d4f-27679518178e/Gau-32301.chk"
 -----
 titel
 -----
 Charge =  0 Multiplicity = 1

                         Standard orientation:
 ---------------------------------------------------------------------
 Center     Atomic      Atomic             Coordinates (Angstroms)
 Number     Number       Type             X           Y           Z
 ---------------------------------------------------------------------
      1          6           0        2.920022   -0.311695   -0.007935
      2          8           0        1.780033    0.380921    0.454000
      3          6           0        0.666371    0.332625   -0.427319
      4          6           0       -0.227628    1.517410   -0.121616
      5          6           0       -1.509278    1.298225    0.166039
      6          6           0       -1.949173   -0.150648    0.160683
      7          6           0       -0.973080   -0.974772    1.040458
      8          6           0       -0.156731   -0.966004   -0.265701
      9          8           0       -1.385384   -0.799585   -1.026842
     10          1           0        3.252626    0.064405   -0.987690
     11          1           0        3.715017   -0.142770    0.722562
     12          1           0        2.752854   -1.395044   -0.095116
     13          1           0        1.018845    0.395810   -1.470962
     14          1           0        0.224512    2.503757   -0.140367
     15          1           0       -2.208550    2.091157    0.409102
     16          1           0       -3.026638   -0.302475    0.243779
     17          1           0       -0.550152   -0.502920    1.927198
     18          1           0       -1.357188   -1.971711    1.262341
     19          1           0        0.398461   -1.861745   -0.555760
 ---------------------------------------------------------------------

 SCF Done:  E(RB3LYP) =  -423.151988015     A.U. after    1 cycles

 The electronic state is 1-A.
 Alpha  occ. eigenvalues --  -19.14277 -19.12925 -10.23758 -10.23479 -10.23292
 Alpha  occ. eigenvalues --  -10.22700 -10.18475 -10.18437 -10.18336  -1.04313
 Alpha  occ. eigenvalues --   -1.02898  -0.80417  -0.74074  -0.73010  -0.67800
 Alpha  occ. eigenvalues --   -0.60746  -0.59448  -0.52958  -0.50374  -0.48829
 Alpha  occ. eigenvalues --   -0.47281  -0.45561  -0.43282  -0.42326  -0.41730
 Alpha  occ. eigenvalues --   -0.39592  -0.37665  -0.35969  -0.33188  -0.32203
 Alpha  occ. eigenvalues --   -0.30144  -0.27322  -0.25691  -0.22702
 Alpha virt. eigenvalues --   -0.00034   0.08096   0.09216   0.12418   0.13603
 Alpha virt. eigenvalues --    0.14162   0.14367   0.15151   0.15737   0.16603
 Alpha virt. eigenvalues --    0.17449   0.18091   0.18699   0.20037   0.23312

 Mulliken charges:
               1
     1  C   -0.237677
     2  O   -0.254651
     3  C    0.086861
     4  C   -0.089019
     5  C   -0.058056
     6  C    0.040554
     7  C   -0.239355
     8  C    0.054979
     9  O   -0.296528
    10  H    0.107898
    11  H    0.129090
    12  H    0.108629
    13  H    0.077346
    14  H    0.101647
    15  H    0.096667
    16  H    0.077201
    17  H    0.115151
    18  H    0.105378
    19  H    0.073883
 Sum of Mulliken charges =   0.00000

 Dipole moment (field-independent basis, Debye):
    X=              0.6812    Y=             -0.1163    Z=              0.6415  Tot=              0.9429
 Quadrupole moment (field-independent basis, Debye-Ang):
   XX=            -48.5702   YY=            -51.6015   ZZ=            -56.0668
   XY=             -3.0450   XZ=             -4.8398   YZ=             -1.7359

  Exact polarizability:  94.603  -1.682  73.443  -5.359  -1.321  59.721
 Approx polarizability: 132.866   0.792 103.987  -6.730   1.081  95.643

                      1                      2                      3
                      A                      A                      A
 Frequencies --     67.3166               119.1695               168.4860
 Red. masses --      2.2183                 2.6437                 1.4791
 Frc consts  --      0.0059                 0.0221                 0.0247
 IR Inten    --      2.1417                 2.4797                 0.9960

                      4                      5                      6
                      A                      A                      A
 Frequencies --    251.2782               343.9593               388.3250
 Red. masses --      2.8529                 2.9240                 2.8391
 Frc consts  --      0.1061                 0.2038                 0.2522
 IR Inten    --      7.0810                 2.4869                 2.1101

                      7                      8                      9
                      A                      A                      A
 Frequencies --    429.8013               460.8316               509.1231
 Red. masses --      5.0038                 3.1178                 3.7485
 Frc consts  --      0.5446                 0.3901                 0.5725
 IR Inten    --      3.1114                 5.0767                 0.2998

                     10                     11                     12
                      A                      A                      A
 Frequencies --    631.6120               681.9452               745.9276
 Red. masses --      4.6300                 2.2819                 2.1403
 Frc consts  --      1.0883                 0.6252                 0.7017
 IR Inten    --      1.4623                 1.9918                13.3795

                     13                     14                     15
                      A                      A                      A
 Frequencies --    837.4450               857.6912               907.7058
 Red. masses --      2.7560                 2.2315                 4.0431
 Frc consts  --      1.1388                 0.9672                 1.9627
 IR Inten    --     11.0894                17.9926                16.8821

                     16                     17                     18
                      A                      A                      A
 Frequencies --    943.5647               954.2542               961.3462
 Red. masses --      3.6536                 3.7587                 2.1346
 Frc consts  --      1.9165                 2.0166                 1.1623
 IR Inten    --     15.5077                 9.8637                12.0519

                     19                     20                     21
                      A                      A                      A
 Frequencies --    979.0652              1002.1821              1015.9055
 Red. masses --      1.3497                 3.9454                 2.5605
 Frc consts  --      0.7622                 2.3347                 1.5570
 IR Inten    --      1.2848                46.1786                 7.4777

                     22                     23                     24
                      A                      A                      A
 Frequencies --   1072.1876              1093.7388              1112.0449
 Red. masses --      1.5746                 1.4295                 2.0587
 Frc consts  --      1.0665                 1.0075                 1.5000
 IR Inten    --      3.8696                 6.1097                 6.0282

                     25                     26                     27
                      A                      A                      A
 Frequencies --   1140.5741              1162.7820              1179.4459
 Red. masses --      4.3559                 1.1901                 1.2950
 Frc consts  --      3.3387                 0.9481                 1.0614
 IR Inten    --    156.1343                11.8026                 6.3773

                     28                     29                     30
                      A                      A                      A
 Frequencies --   1209.1556              1216.8449              1247.9467
 Red. masses --      1.4733                 1.5426                 1.3560
 Frc consts  --      1.2691                 1.3458                 1.2442
 IR Inten    --      1.7799                48.0034                 2.6529

                     31                     32                     33
                      A                      A                      A
 Frequencies --   1294.1529              1315.1029              1331.2474
 Red. masses --      1.4357                 1.5636                 1.3527
 Frc consts  --      1.4168                 1.5933                 1.4125
 IR Inten    --      3.8087                 0.7057                 7.4142

                     34                     35                     36
                      A                      A                      A
 Frequencies --   1355.3478              1368.6363              1401.6959
 Red. masses --      1.3843                 1.5407                 1.6306
 Frc consts  --      1.4982                 1.7004                 1.8876
 IR Inten    --     17.1514                 5.3310                15.9951

                     37                     38                     39
                      A                      A                      A
 Frequencies --   1476.6122              1484.8050              1489.4834
 Red. masses --      1.1198                 1.1283                 1.0720
 Frc consts  --      1.4386                 1.4656                 1.4012
 IR Inten    --      1.1964                 2.8764                 3.8108

                     40                     41                     42
                      A                      A                      A
 Frequencies --   1508.7930              1697.9314              2957.2759
 Red. masses --      1.0581                 6.6241                 1.0803
 Frc consts  --      1.4191                11.2517                 5.5664
 IR Inten    --      8.4952                 0.4754                30.4425

                     43                     44                     45
                      A                      A                      A
 Frequencies --   2979.9041              3027.8175              3073.2590
 Red. masses --      1.0380                 1.1023                 1.0787
 Frc consts  --      5.4307                 5.9542                 6.0026
 IR Inten    --     65.0146                48.9485                40.3466

                     46                     47                     48
                      A                      A                      A
 Frequencies --   3083.9880              3100.1442              3113.6528
 Red. masses --      1.0679                 1.0885                 1.0967
 Frc consts  --      5.9841                 6.1635                 6.2642
 IR Inten    --     47.3997                47.8167                27.7416

                     49                     50                     51
                      A                      A                      A
 Frequencies --   3150.8290              3173.8054              3197.0258
 Red. masses --      1.1101                 1.0848                 1.1014
 Frc consts  --      6.4931                 6.4379                 6.6325
 IR Inten    --     18.1622                 6.7085                20.7333

 - Thermochemistry -
 -------------------
 Temperature   298.150 Kelvin.  Pressure   1.00000 Atm.
 Atom     1 has atomic number  6 and mass  12.00000

 Molecular mass:   126.06808 amu.
 Principal axes and moments of inertia in atomic units:
                           1         2         3
     Eigenvalues --   545.364551322.983491537.43291
           X            0.99945  -0.02278  -0.02395
           Y            0.02177   0.99891  -0.04131
           Z            0.02486   0.04076   0.99886
 This molecule is an asymmetric top.
 Rotational symmetry number  1.
 Warning -- assumption of classical behavior for rotation
           may cause significant error
 Rotational temperatures (Kelvin)      0.15882     0.06547     0.05634
 Rotational constants (GHZ):           3.30924     1.36414     1.17387
 Zero-point vibrational energy     420326.9 (Joules/Mol)
                                  100.46053 (Kcal/Mol)
 Warning -- explicit consideration of   9 degrees of freedom as
           vibrations may cause significant error
 Vibrational temperatures:     96.85   171.46   242.41   361.53   494.88
          (Kelvin)            558.71   618.39   663.03   732.51   908.75
                              981.17  1073.22  1204.90  1234.02  1305.98
                             1357.58  1372.96  1383.16  1408.65  1441.91
                             1461.66  1542.64  1573.64  1599.98  1641.03
                             1672.98  1696.96  1739.70  1750.77  1795.51
                             1862.00  1892.14  1915.37  1950.04  1969.16
                             2016.73  2124.51  2136.30  2143.03  2170.81
                             2442.94  4254.86  4287.41  4356.35  4421.73
                             4437.17  4460.41  4479.85  4533.33  4566.39
                             4599.80

 Zero-point correction=                           0.160094 (Hartree/Particle)
 Thermal correction to Energy=                    0.168011
 Thermal correction to Enthalpy=                  0.168955
 Thermal correction to Gibbs Free Energy=         0.127329
 Sum of electronic and zero-point Energies=           -422.991894
 Sum of electronic and thermal Energies=              -422.983977
 Sum of electronic and thermal Enthalpies=            -422.983033
 Sum of electronic and thermal Free Energies=         -423.024659

                     E (Thermal)             CV                S
                      KCal/Mol        Cal/Mol-Kelvin    Cal/Mol-Kelvin
 Total                  105.428             30.451             87.609
 Electronic               0.000              0.000              0.000
 Translational            0.889              2.981             40.409
 Rotational               0.889              2.981             28.497
 Vibrational            103.651             24.490             18.704
 Vibration     1          0.598              1.970              4.230
 Vibration     2          0.609              1.933              3.114
 Vibration     3          0.625              1.881              2.452
 Vibration     4          0.663              1.761              1.722
 Vibration     5          0.723              1.588              1.194
 Vibration     6          0.756              1.495              1.007
 Vibration     7          0.791              1.405              0.859
 Vibration     8          0.819              1.337              0.764
 Vibration     9          0.864              1.230              0.636

 Normal termination of Gaussian 09 at Tue Jan 28 14:57:32 2020.
