 Gaussian 09, Revision D.01,
 Gaussian 09:  ES64L-G09RevD.01 24-Apr-2013

 -----------------------------
 # b3lyp 6-31G(2df,p) opt Freq
 -----------------------------

 -----
 titel
 -----
 Symbolic Z-matrix:
 Charge =  0 Multiplicity = 1

 SCF Done:  E(RB3LYP) =  -423.129579619     A.U. after   13 cycles
 Optimization completed.
    -- Stationary point found.
 Normal termination of Gaussian 09 at Mon Jan 27 12:16:56 2020.

 ----------------------------------------------------------------------
 #N Geom=AllCheck Guess=TCheck SCRF=Check GenChk RB3LYP/6-31G(2df,p) Fr
 eq
 ----------------------------------------------------------------------

 Structure from the checkpoint file:  "/scratch/puck/g09_54d09963-1ac4-443c-a3c5-bc3aa3777103/Gau-166945.chk"
 -----
 titel
 -----
 Charge =  0 Multiplicity = 1

                         Standard orientation:
 ---------------------------------------------------------------------
 Center     Atomic      Atomic             Coordinates (Angstroms)
 Number     Number       Type             X           Y           Z
 ---------------------------------------------------------------------
      1          6           0        1.923008    0.808493    0.100771
      2          8           0        2.035107   -0.546312   -0.433991
      3          6           0        0.619346   -0.570830   -0.744537
      4          6           0       -0.410878   -1.313438    0.133692
      5          6           0        0.028868   -0.433162    1.316520
      6          6           0        0.412380    0.628590    0.215912
      7          6           0       -0.767759    1.501433   -0.130798
      8          6           0       -1.988409    0.526900   -0.120387
      9          8           0       -1.658239   -0.839511   -0.406186
     10          1           0        2.499210    0.938780    1.023439
     11          1           0        2.242647    1.550541   -0.644434
     12          1           0        0.421377   -0.546416   -1.820148
     13          1           0       -0.484393   -2.400665    0.210904
     14          1           0       -0.719750   -0.164875    2.063515
     15          1           0        0.913276   -0.838081    1.808247
     16          1           0       -0.947452    2.309670    0.588436
     17          1           0       -0.628450    1.956740   -1.117819
     18          1           0       -2.484741    0.582547    0.857398
     19          1           0       -2.725996    0.810432   -0.875166
 ---------------------------------------------------------------------

 SCF Done:  E(RB3LYP) =  -423.129579619     A.U. after    1 cycles

 The electronic state is 1-A.
 Alpha  occ. eigenvalues --  -19.14123 -19.13603 -10.23598 -10.23481 -10.23430
 Alpha  occ. eigenvalues --  -10.22261 -10.20172 -10.19464 -10.18499  -1.04563
 Alpha  occ. eigenvalues --   -1.02408  -0.82925  -0.77341  -0.69743  -0.66680
 Alpha  occ. eigenvalues --   -0.63057  -0.59130  -0.52403  -0.50837  -0.49575
 Alpha  occ. eigenvalues --   -0.46928  -0.45488  -0.44257  -0.41120  -0.40942
 Alpha  occ. eigenvalues --   -0.39610  -0.38216  -0.35810  -0.34738  -0.32013
 Alpha  occ. eigenvalues --   -0.29417  -0.26806  -0.26770  -0.23430
 Alpha virt. eigenvalues --    0.07406   0.08674   0.09791   0.10798   0.12643
 Alpha virt. eigenvalues --    0.12865   0.13589   0.15118   0.15618   0.17162
 Alpha virt. eigenvalues --    0.17733   0.18493   0.19244   0.20899   0.21771

 Mulliken charges:
               1
     1  C   -0.183334
     2  O   -0.310271
     3  C    0.119708
     4  C    0.064300
     5  C   -0.302304
     6  C    0.301244
     7  C   -0.350057
     8  C   -0.059578
     9  O   -0.282913
    10  H    0.105303
    11  H    0.100565
    12  H    0.076477
    13  H    0.074922
    14  H    0.101396
    15  H    0.119686
    16  H    0.101475
    17  H    0.106496
    18  H    0.102710
    19  H    0.114173
 Sum of Mulliken charges =   0.00000

 Dipole moment (field-independent basis, Debye):
    X=             -0.6678    Y=              2.0117    Z=              0.9860  Tot=              2.3378
 Quadrupole moment (field-independent basis, Debye-Ang):
   XX=            -57.4358   YY=            -52.2470   ZZ=            -51.9748
   XY=              0.0639   XZ=              0.5948   YZ=             -1.2954

  Exact polarizability:  80.752   0.876  72.812   0.861  -1.301  68.221
 Approx polarizability: 112.541   0.331 108.563   1.363   1.372 104.939

                      1                      2                      3
                      A                      A                      A
 Frequencies --    216.7972               257.4196               313.9051
 Red. masses --      2.2647                 2.4079                 4.6374
 Frc consts  --      0.0627                 0.0940                 0.2692
 IR Inten    --      0.2060                 0.5112                11.6424

                      4                      5                      6
                      A                      A                      A
 Frequencies --    328.4232               393.9110               453.9442
 Red. masses --      2.5831                 3.0069                 2.8736
 Frc consts  --      0.1642                 0.2749                 0.3489
 IR Inten    --      3.3128                 2.1356                 0.3659

                      7                      8                      9
                      A                      A                      A
 Frequencies --    462.1974               559.5647               669.3708
 Red. masses --      3.0444                 3.8440                 3.1933
 Frc consts  --      0.3832                 0.7092                 0.8430
 IR Inten    --      0.4404                 2.2490                 0.4795

                     10                     11                     12
                      A                      A                      A
 Frequencies --    758.2954               808.1834               816.3549
 Red. masses --      3.1603                 3.4308                 1.8276
 Frc consts  --      1.0707                 1.3203                 0.7176
 IR Inten    --      9.4354                 8.6854                 0.7539

                     13                     14                     15
                      A                      A                      A
 Frequencies --    874.3386               896.3308               914.0477
 Red. masses --      2.0357                 2.3680                 2.2630
 Frc consts  --      0.9169                 1.1209                 1.1140
 IR Inten    --     18.0962                 4.9385                 1.1546

                     16                     17                     18
                      A                      A                      A
 Frequencies --    933.0316               947.2625               963.8457
 Red. masses --      2.3814                 4.2791                 2.2465
 Frc consts  --      1.2215                 2.2623                 1.2296
 IR Inten    --     30.4446                32.6468                 2.7865

                     19                     20                     21
                      A                      A                      A
 Frequencies --    998.2599              1023.6819              1033.5453
 Red. masses --      3.0896                 2.1648                 2.7293
 Frc consts  --      1.8140                 1.3366                 1.7178
 IR Inten    --     38.4298                18.6665                49.4099

                     22                     23                     24
                      A                      A                      A
 Frequencies --   1052.6479              1126.8278              1134.6217
 Red. masses --      1.8708                 2.1101                 1.7414
 Frc consts  --      1.2214                 1.5786                 1.3208
 IR Inten    --      5.1134                20.7670                21.8899

                     25                     26                     27
                      A                      A                      A
 Frequencies --   1148.6361              1170.0965              1202.0134
 Red. masses --      1.8704                 1.5480                 2.3670
 Frc consts  --      1.4540                 1.2487                 2.0150
 IR Inten    --     23.4605                 4.5311                 1.3455

                     28                     29                     30
                      A                      A                      A
 Frequencies --   1232.3956              1244.9908              1268.7419
 Red. masses --      1.4260                 1.3240                 1.5134
 Frc consts  --      1.2761                 1.2091                 1.4353
 IR Inten    --      8.0669                 5.0167                 0.2647

                     31                     32                     33
                      A                      A                      A
 Frequencies --   1277.1170              1284.1061              1298.2902
 Red. masses --      1.3049                 1.5767                 1.3816
 Frc consts  --      1.2540                 1.5318                 1.3721
 IR Inten    --      4.4879                 1.1480                10.9757

                     34                     35                     36
                      A                      A                      A
 Frequencies --   1325.4484              1352.2141              1380.1103
 Red. masses --      1.4201                 1.3414                 2.0365
 Frc consts  --      1.4699                 1.4451                 2.2854
 IR Inten    --      7.5429                 0.8036                 2.1393

                     37                     38                     39
                      A                      A                      A
 Frequencies --   1404.3803              1480.3477              1493.2660
 Red. masses --      1.4125                 1.1108                 1.1035
 Frc consts  --      1.6414                 1.4342                 1.4498
 IR Inten    --      2.9113                 4.4451                 1.3499

                     40                     41                     42
                      A                      A                      A
 Frequencies --   1515.6404              1522.1012              3001.4976
 Red. masses --      1.1100                 1.0878                 1.0600
 Frc consts  --      1.5023                 1.4849                 5.6267
 IR Inten    --      0.6737                 1.6653                74.1980

                     43                     44                     45
                      A                      A                      A
 Frequencies --   3008.9633              3027.4646              3066.5826
 Red. masses --      1.0709                 1.0593                 1.0971
 Frc consts  --      5.7126                 5.7204                 6.0785
 IR Inten    --     39.1229                50.4550                47.0523

                     46                     47                     48
                      A                      A                      A
 Frequencies --   3068.3973              3070.0706              3080.9573
 Red. masses --      1.0953                 1.1002                 1.0747
 Frc consts  --      6.0757                 6.1099                 6.0105
 IR Inten    --      5.4139                54.8087                49.5229

                     49                     50                     51
                      A                      A                      A
 Frequencies --   3091.7502              3096.6547              3146.9948
 Red. masses --      1.0750                 1.0965                 1.1084
 Frc consts  --      6.0544                 6.1949                 6.4676
 IR Inten    --     36.0137                44.1290                14.2275

 - Thermochemistry -
 -------------------
 Temperature   298.150 Kelvin.  Pressure   1.00000 Atm.
 Atom     1 has atomic number  6 and mass  12.00000

 Molecular mass:   126.06808 amu.
 Principal axes and moments of inertia in atomic units:
                           1         2         3
     Eigenvalues --   557.208801056.129651257.60955
           X            0.99997  -0.00706   0.00415
           Y            0.00722   0.99910  -0.04182
           Z           -0.00385   0.04185   0.99912
 This molecule is an asymmetric top.
 Rotational symmetry number  1.
 Warning -- assumption of classical behavior for rotation
           may cause significant error
 Rotational temperatures (Kelvin)      0.15544     0.08201     0.06887
 Rotational constants (GHZ):           3.23890     1.70883     1.43506
 Zero-point vibrational energy     425846.9 (Joules/Mol)
                                  101.77984 (Kcal/Mol)
 Warning -- explicit consideration of   8 degrees of freedom as
           vibrations may cause significant error
 Vibrational temperatures:    311.92   370.37   451.64   472.53   566.75
          (Kelvin)            653.12   665.00   805.09   963.07  1091.02
                             1162.79  1174.55  1257.98  1289.62  1315.11
                             1342.42  1362.90  1386.76  1436.27  1472.85
                             1487.04  1514.52  1621.25  1632.47  1652.63
                             1683.51  1729.43  1773.14  1791.26  1825.43
                             1837.48  1847.54  1867.95  1907.02  1945.53
                             1985.67  2020.59  2129.89  2148.47  2180.67
                             2189.96  4318.48  4329.22  4355.84  4412.12
                             4414.73  4417.14  4432.80  4448.33  4455.39
                             4527.82

 Zero-point correction=                           0.162197 (Hartree/Particle)
 Thermal correction to Energy=                    0.168874
 Thermal correction to Enthalpy=                  0.169818
 Thermal correction to Gibbs Free Energy=         0.131573
 Sum of electronic and zero-point Energies=           -422.967383
 Sum of electronic and thermal Energies=              -422.960706
 Sum of electronic and thermal Enthalpies=            -422.959762
 Sum of electronic and thermal Free Energies=         -422.998007

                     E (Thermal)             CV                S
                      KCal/Mol        Cal/Mol-Kelvin    Cal/Mol-Kelvin
 Total                  105.970             28.132             80.494
 Electronic               0.000              0.000              0.000
 Translational            0.889              2.981             40.409
 Rotational               0.889              2.981             28.095
 Vibrational            104.192             22.170             11.990
 Vibration     1          0.646              1.815              1.986
 Vibration     2          0.667              1.750              1.679
 Vibration     3          0.702              1.647              1.342
 Vibration     4          0.712              1.619              1.268
 Vibration     5          0.761              1.483              0.985
 Vibration     6          0.812              1.352              0.784
 Vibration     7          0.820              1.334              0.760
 Vibration     8          0.915              1.119              0.525

 Optimization completed.
    -- Stationary point found.
 Normal termination of Gaussian 09 at Mon Jan 27 13:05:38 2020.
