 Gaussian 09, Revision D.01,
 Gaussian 09:  ES64L-G09RevD.01 24-Apr-2013

 -----------------------------
 # b3lyp 6-31G(2df,p) opt Freq
 -----------------------------

 -----
 titel
 -----
 Symbolic Z-matrix:
 Charge =  0 Multiplicity = 1

 SCF Done:  E(RB3LYP) =  -423.119368603     A.U. after   12 cycles
 Optimization completed.
    -- Stationary point found.
 Normal termination of Gaussian 09 at Mon Jan 27 17:01:06 2020.

 ----------------------------------------------------------------------
 #N Geom=AllCheck Guess=TCheck SCRF=Check GenChk RB3LYP/6-31G(2df,p) Fr
 eq
 ----------------------------------------------------------------------

 Structure from the checkpoint file:  "/scratch/puck/g09_3d5d0c63-edf2-45ce-adae-9ee688f84b09/Gau-48794.chk"
 -----
 titel
 -----
 Charge =  0 Multiplicity = 1

                         Standard orientation:
 ---------------------------------------------------------------------
 Center     Atomic      Atomic             Coordinates (Angstroms)
 Number     Number       Type             X           Y           Z
 ---------------------------------------------------------------------
      1          6           0       -2.461226    0.892420   -0.105117
      2          6           0       -1.198328    0.108570    0.018007
      3          6           0       -0.813055   -1.218714    0.568229
      4          8           0       -0.124365   -1.676260   -0.601234
      5          6           0       -0.028485   -0.274766   -0.973025
      6          6           0        0.986647    0.330156    0.053599
      7          6           0        2.351767   -0.320196    0.186135
      8          8           0        1.074328    1.740229   -0.108309
      9          6           0       -0.101606    0.047108    1.083649
     10          1           0       -2.248046    1.940593   -0.339929
     11          1           0       -3.111220    0.489900   -0.890105
     12          1           0       -3.020849    0.870239    0.836251
     13          1           0       -1.325930   -1.937458    1.194569
     14          1           0        0.049161   -0.098650   -2.045926
     15          1           0        2.864717    0.043400    1.081972
     16          1           0        2.248232   -1.405485    0.245239
     17          1           0        2.981507   -0.086245   -0.682482
     18          1           0        1.692923    1.909943   -0.827465
     19          1           0       -0.144485    0.374544    2.115356
 ---------------------------------------------------------------------

 SCF Done:  E(RB3LYP) =  -423.119368603     A.U. after    1 cycles

 The electronic state is 1-A.
 Alpha  occ. eigenvalues --  -19.13710 -19.13592 -10.23838 -10.23649 -10.23440
 Alpha  occ. eigenvalues --  -10.19806 -10.18739 -10.18379 -10.17027  -1.06192
 Alpha  occ. eigenvalues --   -1.01821  -0.85432  -0.74987  -0.71736  -0.68585
 Alpha  occ. eigenvalues --   -0.61643  -0.55360  -0.53743  -0.51838  -0.46307
 Alpha  occ. eigenvalues --   -0.45806  -0.44575  -0.42482  -0.40739  -0.40060
 Alpha  occ. eigenvalues --   -0.39064  -0.38048  -0.36419  -0.36063  -0.31618
 Alpha  occ. eigenvalues --   -0.29724  -0.27664  -0.24835  -0.22408
 Alpha virt. eigenvalues --    0.07327   0.08312   0.11144   0.11193   0.12648
 Alpha virt. eigenvalues --    0.13278   0.15089   0.15623   0.16110   0.16473
 Alpha virt. eigenvalues --    0.17341   0.18128   0.19782   0.21658   0.22588

 Mulliken charges:
               1
     1  C   -0.533266
     2  C    0.300923
     3  C    0.020738
     4  O   -0.293293
     5  C   -0.059879
     6  C    0.426510
     7  C   -0.470382
     8  O   -0.479549
     9  C   -0.203065
    10  H    0.135195
    11  H    0.124878
    12  H    0.124032
    13  H    0.108241
    14  H    0.075634
    15  H    0.121148
    16  H    0.139953
    17  H    0.099144
    18  H    0.275100
    19  H    0.087938
 Sum of Mulliken charges =   0.00000

 Dipole moment (field-independent basis, Debye):
    X=             -0.0729    Y=              0.7351    Z=             -0.1225  Tot=              0.7488
 Quadrupole moment (field-independent basis, Debye-Ang):
   XX=            -49.0671   YY=            -57.9808   ZZ=            -49.6565
   XY=              1.3908   XZ=             -3.0694   YZ=             -4.4367

  Exact polarizability:  84.156   0.138  70.288  -1.737  -2.786  69.710
 Approx polarizability: 107.785   2.021 109.658  -2.398  -2.020 109.662

                      1                      2                      3
                      A                      A                      A
 Frequencies --    139.7665               191.7945               205.8587
 Red. masses --      3.2520                 2.7097                 1.0306
 Frc consts  --      0.0374                 0.0587                 0.0257
 IR Inten    --      1.4975                 0.6634                 0.2268

                      4                      5                      6
                      A                      A                      A
 Frequencies --    224.2980               281.9530               295.1086
 Red. masses --      1.0418                 2.7810                 1.9157
 Frc consts  --      0.0309                 0.1303                 0.0983
 IR Inten    --      0.0493                 2.0484                24.3241

                      7                      8                      9
                      A                      A                      A
 Frequencies --    326.2276               379.5089               397.1642
 Red. masses --      1.4403                 3.7037                 3.0352
 Frc consts  --      0.0903                 0.3143                 0.2821
 IR Inten    --     63.3815                10.9835                 6.8090

                     10                     11                     12
                      A                      A                      A
 Frequencies --    523.1564               593.1113               603.3964
 Red. masses --      5.1395                 3.4819                 3.7718
 Frc consts  --      0.8288                 0.7217                 0.8091
 IR Inten    --      0.5745                 9.4638                 8.5940

                     13                     14                     15
                      A                      A                      A
 Frequencies --    654.9975               776.5506               802.3860
 Red. masses --      3.1148                 4.2669                 2.3982
 Frc consts  --      0.7873                 1.5160                 0.9097
 IR Inten    --      0.8736                 8.1720                 1.5479

                     16                     17                     18
                      A                      A                      A
 Frequencies --    853.7370               888.8930               908.9867
 Red. masses --      2.1797                 2.0904                 2.5672
 Frc consts  --      0.9360                 0.9732                 1.2497
 IR Inten    --      9.6791                11.8925                18.9848

                     19                     20                     21
                      A                      A                      A
 Frequencies --    924.3339               959.4367               962.4048
 Red. masses --      1.6904                 1.7801                 2.5161
 Frc consts  --      0.8509                 0.9654                 1.3731
 IR Inten    --      5.2469                16.6022                26.4026

                     22                     23                     24
                      A                      A                      A
 Frequencies --    996.8366              1025.1343              1065.7165
 Red. masses --      2.8776                 1.7403                 1.9986
 Frc consts  --      1.6847                 1.0775                 1.3374
 IR Inten    --     26.1045                 2.2407                 6.9429

                     25                     26                     27
                      A                      A                      A
 Frequencies --   1093.1219              1124.1161              1140.0090
 Red. masses --      1.9116                 1.9593                 1.5947
 Frc consts  --      1.3458                 1.4587                 1.2211
 IR Inten    --     29.6502                10.6723                10.8687

                     28                     29                     30
                      A                      A                      A
 Frequencies --   1169.2218              1172.1364              1202.2756
 Red. masses --      2.4283                 1.8200                 2.3875
 Frc consts  --      1.9559                 1.4732                 2.0333
 IR Inten    --      4.4661                 6.0347                54.8528

                     31                     32                     33
                      A                      A                      A
 Frequencies --   1218.5013              1255.1591              1286.0186
 Red. masses --      1.9108                 2.6672                 1.5135
 Frc consts  --      1.6716                 2.4758                 1.4748
 IR Inten    --     11.4503                35.6943                 9.3491

                     34                     35                     36
                      A                      A                      A
 Frequencies --   1393.6072              1405.9083              1407.5878
 Red. masses --      1.3963                 1.7700                 1.2212
 Frc consts  --      1.5977                 2.0613                 1.4255
 IR Inten    --      4.5311                50.5595                 1.4169

                     37                     38                     39
                      A                      A                      A
 Frequencies --   1470.9221              1484.5376              1486.0105
 Red. masses --      2.9424                 1.1138                 1.1577
 Frc consts  --      3.7509                 1.4462                 1.5062
 IR Inten    --      1.1987                 7.3080                 4.0858

                     40                     41                     42
                      A                      A                      A
 Frequencies --   1497.3135              1499.6516              3020.7231
 Red. masses --      1.0730                 1.0736                 1.0436
 Frc consts  --      1.4174                 1.4225                 5.6105
 IR Inten    --      1.2612                 8.5837                33.2263

                     43                     44                     45
                      A                      A                      A
 Frequencies --   3026.0622              3090.8489              3091.2184
 Red. masses --      1.0348                 1.1010                 1.0933
 Frc consts  --      5.5829                 6.1972                 6.1553
 IR Inten    --     34.8548                22.2128                16.4469

                     46                     47                     48
                      A                      A                      A
 Frequencies --   3096.8439              3123.7829              3136.9021
 Red. masses --      1.1007                 1.0923                 1.0994
 Frc consts  --      6.2193                 6.2799                 6.3742
 IR Inten    --     16.2158                34.4457                 8.6247

                     49                     50                     51
                      A                      A                      A
 Frequencies --   3191.1692              3204.3783              3797.1800
 Red. masses --      1.0916                 1.0964                 1.0658
 Frc consts  --      6.5496                 6.6329                 9.0540
 IR Inten    --      6.4513                18.5198                11.6493

 - Thermochemistry -
 -------------------
 Temperature   298.150 Kelvin.  Pressure   1.00000 Atm.
 Atom     1 has atomic number  6 and mass  12.00000

 Molecular mass:   126.06808 amu.
 Principal axes and moments of inertia in atomic units:
                           1         2         3
     Eigenvalues --   673.064301057.296181373.75668
           X            0.99842  -0.05615  -0.00270
           Y            0.05600   0.99768  -0.03880
           Z            0.00487   0.03858   0.99924
 This molecule is an asymmetric top.
 Rotational symmetry number  1.
 Warning -- assumption of classical behavior for rotation
           may cause significant error
 Rotational temperatures (Kelvin)      0.12869     0.08192     0.06305
 Rotational constants (GHZ):           2.68138     1.70694     1.31373
 Zero-point vibrational energy     413106.2 (Joules/Mol)
                                   98.73475 (Kcal/Mol)
 Warning -- explicit consideration of  12 degrees of freedom as
           vibrations may cause significant error
 Vibrational temperatures:    201.09   275.95   296.18   322.71   405.67
          (Kelvin)            424.59   469.37   546.03   571.43   752.70
                              853.35   868.15   942.39  1117.28  1154.45
                             1228.34  1278.92  1307.83  1329.91  1380.41
                             1384.68  1434.22  1474.94  1533.33  1572.76
                             1617.35  1640.22  1682.25  1686.44  1729.80
                             1753.15  1805.89  1850.29  2005.09  2022.79
                             2025.20  2116.33  2135.92  2138.04  2154.30
                             2157.66  4346.14  4353.82  4447.04  4447.57
                             4455.66  4494.42  4513.30  4591.37  4610.38
                             5463.29

 Zero-point correction=                           0.157344 (Hartree/Particle)
 Thermal correction to Energy=                    0.165831
 Thermal correction to Enthalpy=                  0.166775
 Thermal correction to Gibbs Free Energy=         0.124995
 Sum of electronic and zero-point Energies=           -422.962025
 Sum of electronic and thermal Energies=              -422.953538
 Sum of electronic and thermal Enthalpies=            -422.952594
 Sum of electronic and thermal Free Energies=         -422.994374

                     E (Thermal)             CV                S
                      KCal/Mol        Cal/Mol-Kelvin    Cal/Mol-Kelvin
 Total                  104.060             33.486             87.934
 Electronic               0.000              0.000              0.000
 Translational            0.889              2.981             40.409
 Rotational               0.889              2.981             28.371
 Vibrational            102.283             27.524             19.154
 Vibration     1          0.615              1.914              2.807
 Vibration     2          0.634              1.851              2.210
 Vibration     3          0.640              1.832              2.080
 Vibration     4          0.649              1.804              1.924
 Vibration     5          0.681              1.707              1.522
 Vibration     6          0.689              1.683              1.444
 Vibration     7          0.710              1.623              1.279
 Vibration     8          0.750              1.514              1.041
 Vibration     9          0.764              1.476              0.973
 Vibration    10          0.878              1.199              0.603
 Vibration    11          0.951              1.046              0.462
 Vibration    12          0.962              1.025              0.444

 Normal termination of Gaussian 09 at Mon Jan 27 17:46:00 2020.
