 Gaussian 09, Revision D.01,
 Gaussian 09:  ES64L-G09RevD.01 24-Apr-2013

 -----------------------------
 # b3lyp 6-31G(2df,p) opt Freq
 -----------------------------

 -----
 titel
 -----
 Symbolic Z-matrix:
 Charge =  0 Multiplicity = 1

 SCF Done:  E(RB3LYP) =  -423.187765310     A.U. after   13 cycles
 SCF Done:  E(RB3LYP) =  -423.187765526     A.U. after    7 cycles
 Optimization completed.
    -- Stationary point found.
 Normal termination of Gaussian 09 at Tue Jan 28 03:27:19 2020.

 ----------------------------------------------------------------------
 #N Geom=AllCheck Guess=TCheck SCRF=Check GenChk RB3LYP/6-31G(2df,p) Fr
 eq
 ----------------------------------------------------------------------

 Structure from the checkpoint file:  "/scratch/puck/g09_4b7c6925-0f2f-43d7-ad21-09c248345468/Gau-44868.chk"
 -----
 titel
 -----
 Charge =  0 Multiplicity = 1

                         Standard orientation:
 ---------------------------------------------------------------------
 Center     Atomic      Atomic             Coordinates (Angstroms)
 Number     Number       Type             X           Y           Z
 ---------------------------------------------------------------------
      1          6           0        2.318974   -0.779317   -0.009299
      2          6           0        0.803451   -0.872704   -0.079118
      3          8           0        0.208516   -0.529126    1.196518
      4          6           0       -0.749544    0.546587    0.928495
      5          6           0       -0.010172    1.777082    0.466496
      6          6           0        0.472472    1.490556   -0.751680
      7          6           0        0.068567    0.074806   -1.079219
      8          6           0       -1.351300    0.048471   -0.400187
      9          8           0       -1.995021   -1.191815   -0.324841
     10          1           0        2.643709    0.238743    0.217129
     11          1           0        2.697618   -1.440533    0.775571
     12          1           0        2.764796   -1.090785   -0.960421
     13          1           0        0.516273   -1.905942   -0.319589
     14          1           0       -1.404677    0.626475    1.794579
     15          1           0        0.136627    2.677576    1.048288
     16          1           0        1.093789    2.120644   -1.375759
     17          1           0        0.126898   -0.242176   -2.119795
     18          1           0       -2.034839    0.757852   -0.868991
     19          1           0       -1.562847   -1.687208    0.382637
 ---------------------------------------------------------------------

 SCF Done:  E(RB3LYP) =  -423.187765526     A.U. after    1 cycles

 The electronic state is 1-A.
 Alpha  occ. eigenvalues --  -19.13988 -19.13872 -10.23456 -10.23346 -10.23344
 Alpha  occ. eigenvalues --  -10.19355 -10.19032 -10.18506 -10.17388  -1.04684
 Alpha  occ. eigenvalues --   -1.00902  -0.84109  -0.77074  -0.70340  -0.68203
 Alpha  occ. eigenvalues --   -0.59918  -0.59135  -0.53618  -0.52270  -0.48828
 Alpha  occ. eigenvalues --   -0.48483  -0.44774  -0.41954  -0.40035  -0.38752
 Alpha  occ. eigenvalues --   -0.38671  -0.37360  -0.37061  -0.35091  -0.33371
 Alpha  occ. eigenvalues --   -0.31315  -0.27453  -0.25854  -0.24361
 Alpha virt. eigenvalues --    0.00293   0.08710   0.10623   0.12501   0.12859
 Alpha virt. eigenvalues --    0.14029   0.15420   0.15847   0.16457   0.16977
 Alpha virt. eigenvalues --    0.17772   0.18749   0.19382   0.20467   0.22221

 Mulliken charges:
               1
     1  C   -0.409630
     2  C    0.139039
     3  O   -0.319799
     4  C    0.010107
     5  C   -0.080844
     6  C   -0.084632
     7  C   -0.146188
     8  C    0.169200
     9  O   -0.453170
    10  H    0.123920
    11  H    0.124613
    12  H    0.110375
    13  H    0.072661
    14  H    0.078554
    15  H    0.103947
    16  H    0.103506
    17  H    0.071988
    18  H    0.092306
    19  H    0.294047
 Sum of Mulliken charges =   0.00000

 Dipole moment (field-independent basis, Debye):
    X=              0.9880    Y=              0.9576    Z=             -0.4364  Tot=              1.4435
 Quadrupole moment (field-independent basis, Debye-Ang):
   XX=            -55.9549   YY=            -50.7456   ZZ=            -53.1755
   XY=             -1.9093   XZ=             -3.6244   YZ=             -0.0351

  Exact polarizability:  75.378  -0.725  77.315  -5.154   2.398  70.808
 Approx polarizability: 105.633   0.396 115.311  -9.895   3.966 120.668

                      1                      2                      3
                      A                      A                      A
 Frequencies --    168.0170               225.2679               239.8229
 Red. masses --      3.3189                 1.3417                 2.3507
 Frc consts  --      0.0552                 0.0401                 0.0797
 IR Inten    --      1.7099                 2.0152                 5.0453

                      4                      5                      6
                      A                      A                      A
 Frequencies --    280.9335               344.0588               412.0763
 Red. masses --      2.8940                 4.0910                 3.1913
 Frc consts  --      0.1346                 0.2853                 0.3193
 IR Inten    --      0.9637                 2.8346                 4.7315

                      7                      8                      9
                      A                      A                      A
 Frequencies --    477.8480               491.3229               545.1103
 Red. masses --      2.1855                 1.2572                 3.1222
 Frc consts  --      0.2940                 0.1788                 0.5466
 IR Inten    --     27.7698                42.2766                 5.9962

                     10                     11                     12
                      A                      A                      A
 Frequencies --    584.1861               675.4189               742.1379
 Red. masses --      4.6445                 4.3505                 2.1032
 Frc consts  --      0.9339                 1.1693                 0.6825
 IR Inten    --      0.8269                 2.1291                 8.1044

                     13                     14                     15
                      A                      A                      A
 Frequencies --    772.6429               824.1678               833.4986
 Red. masses --      2.3690                 3.9910                 3.2510
 Frc consts  --      0.8332                 1.5972                 1.3307
 IR Inten    --     14.1061                25.7797                20.0672

                     16                     17                     18
                      A                      A                      A
 Frequencies --    858.1622               890.2907               931.5086
 Red. masses --      3.1711                 2.8472                 3.1175
 Frc consts  --      1.3759                 1.3296                 1.5938
 IR Inten    --     20.9978                 6.0884                50.2799

                     19                     20                     21
                      A                      A                      A
 Frequencies --    946.9073               963.5392               992.7307
 Red. masses --      1.4781                 1.5174                 2.0964
 Frc consts  --      0.7808                 0.8300                 1.2173
 IR Inten    --      5.4753                 1.8572                 1.8294

                     22                     23                     24
                      A                      A                      A
 Frequencies --    997.9988              1049.9874              1086.3966
 Red. masses --      1.9905                 1.7906                 1.6300
 Frc consts  --      1.1681                 1.1631                 1.1335
 IR Inten    --      4.4889                18.8158                 8.1793

                     25                     26                     27
                      A                      A                      A
 Frequencies --   1114.9321              1133.9511              1142.6956
 Red. masses --      2.3928                 1.7572                 1.9550
 Frc consts  --      1.7525                 1.3312                 1.5041
 IR Inten    --    104.6587                35.2336                13.4533

                     28                     29                     30
                      A                      A                      A
 Frequencies --   1173.6526              1229.1591              1254.8244
 Red. masses --      1.8852                 1.3387                 1.5102
 Frc consts  --      1.5299                 1.1917                 1.4010
 IR Inten    --     12.1693                 6.0371                20.1663

                     31                     32                     33
                      A                      A                      A
 Frequencies --   1276.5270              1294.7046              1311.7430
 Red. masses --      1.6807                 1.3081                 1.4290
 Frc consts  --      1.6136                 1.2919                 1.4487
 IR Inten    --     12.0647                 2.2359                 1.4608

                     34                     35                     36
                      A                      A                      A
 Frequencies --   1341.4287              1367.2712              1392.4982
 Red. masses --      1.4793                 1.7200                 1.2166
 Frc consts  --      1.5684                 1.8944                 1.3899
 IR Inten    --     13.6586                 4.2503                10.0537

                     37                     38                     39
                      A                      A                      A
 Frequencies --   1408.2351              1431.6365              1484.7760
 Red. masses --      1.3232                 1.2809                 1.0486
 Frc consts  --      1.5461                 1.5467                 1.3621
 IR Inten    --     23.3161                74.7818                 1.8977

                     40                     41                     42
                      A                      A                      A
 Frequencies --   1500.5748              1629.4660              2998.0692
 Red. masses --      1.0474                 5.6249                 1.0842
 Frc consts  --      1.3896                 8.7994                 5.7417
 IR Inten    --      2.5683                 1.0818                40.0093

                     43                     44                     45
                      A                      A                      A
 Frequencies --   3039.8346              3107.6225              3111.0094
 Red. masses --      1.0369                 1.0999                 1.0874
 Frc consts  --      5.6455                 6.2583                 6.2006
 IR Inten    --     21.4967                15.6542                20.8079

                     46                     47                     48
                      A                      A                      A
 Frequencies --   3127.2596              3130.1711              3137.7594
 Red. masses --      1.0896                 1.0999                 1.0910
 Frc consts  --      6.2785                 6.3493                 6.3288
 IR Inten    --     23.6658                27.6348                22.6869

                     49                     50                     51
                      A                      A                      A
 Frequencies --   3199.4139              3225.8086              3774.8223
 Red. masses --      1.0871                 1.1057                 1.0649
 Frc consts  --      6.5566                 6.7788                 8.9402
 IR Inten    --      6.7888                12.4056                26.7102

 - Thermochemistry -
 -------------------
 Temperature   298.150 Kelvin.  Pressure   1.00000 Atm.
 Atom     1 has atomic number  6 and mass  12.00000

 Molecular mass:   126.06808 amu.
 Principal axes and moments of inertia in atomic units:
                           1         2         3
     Eigenvalues --   742.20046 978.411571195.13503
           X            0.99756  -0.06499  -0.02550
           Y            0.06538   0.99775   0.01503
           Z            0.02447  -0.01666   0.99956
 This molecule is an asymmetric top.
 Rotational symmetry number  1.
 Warning -- assumption of classical behavior for rotation
           may cause significant error
 Rotational temperatures (Kelvin)      0.11670     0.08852     0.07247
 Rotational constants (GHZ):           2.43161     1.84456     1.51007
 Zero-point vibrational energy     422723.7 (Joules/Mol)
                                  101.03338 (Kcal/Mol)
 Warning -- explicit consideration of  10 degrees of freedom as
           vibrations may cause significant error
 Vibrational temperatures:    241.74   324.11   345.05   404.20   495.02
          (Kelvin)            592.89   687.52   706.90   784.29   840.51
                              971.78  1067.77  1111.66  1185.79  1199.22
                             1234.70  1280.93  1340.23  1362.39  1386.32
                             1428.32  1435.90  1510.70  1563.08  1604.14
                             1631.50  1644.08  1688.62  1768.48  1805.41
                             1836.64  1862.79  1887.30  1930.01  1967.20
                             2003.49  2026.13  2059.80  2136.26  2158.99
                             2344.44  4313.55  4373.64  4471.17  4476.04
                             4499.42  4503.61  4514.53  4603.24  4641.21
                             5431.12

 Zero-point correction=                           0.161007 (Hartree/Particle)
 Thermal correction to Energy=                    0.168453
 Thermal correction to Enthalpy=                  0.169397
 Thermal correction to Gibbs Free Energy=         0.129682
 Sum of electronic and zero-point Energies=           -423.026759
 Sum of electronic and thermal Energies=              -423.019313
 Sum of electronic and thermal Enthalpies=            -423.018369
 Sum of electronic and thermal Free Energies=         -423.058084

                     E (Thermal)             CV                S
                      KCal/Mol        Cal/Mol-Kelvin    Cal/Mol-Kelvin
 Total                  105.706             30.810             83.587
 Electronic               0.000              0.000              0.000
 Translational            0.889              2.981             40.409
 Rotational               0.889              2.981             28.253
 Vibrational            103.928             24.849             14.926
 Vibration     1          0.625              1.882              2.458
 Vibration     2          0.650              1.803              1.916
 Vibration     3          0.657              1.780              1.804
 Vibration     4          0.681              1.709              1.528
 Vibration     5          0.723              1.587              1.193
 Vibration     6          0.776              1.444              0.919
 Vibration     7          0.834              1.299              0.716
 Vibration     8          0.847              1.269              0.680
 Vibration     9          0.900              1.150              0.554
 Vibration    10          0.941              1.066              0.478

 Optimization completed.
    -- Stationary point found.
 Normal termination of Gaussian 09 at Tue Jan 28 05:22:27 2020.
