 Gaussian 09, Revision D.01,
 Gaussian 09:  ES64L-G09RevD.01 24-Apr-2013

 -----------------------------
 # b3lyp 6-31G(2df,p) opt Freq
 -----------------------------

 -----
 titel
 -----
 Symbolic Z-matrix:
 Charge =  0 Multiplicity = 1

 SCF Done:  E(RB3LYP) =  -423.192820714     A.U. after   14 cycles
 Optimization completed.
    -- Stationary point found.
 Normal termination of Gaussian 09 at Mon Jan 27 22:54:54 2020.

 ----------------------------------------------------------------------
 #N Geom=AllCheck Guess=TCheck SCRF=Check GenChk RB3LYP/6-31G(2df,p) Fr
 eq
 ----------------------------------------------------------------------

 Structure from the checkpoint file:  "/scratch/puck/g09_5b7b24bd-c3e9-45d2-8e6b-a089f9b6071f/Gau-101248.chk"
 -----
 titel
 -----
 Charge =  0 Multiplicity = 1

                         Standard orientation:
 ---------------------------------------------------------------------
 Center     Atomic      Atomic             Coordinates (Angstroms)
 Number     Number       Type             X           Y           Z
 ---------------------------------------------------------------------
      1          6           0       -2.442716   -0.004956   -0.559972
      2          6           0       -0.963266   -0.333450   -0.684276
      3          6           0       -0.404972   -1.330009    0.362839
      4          6           0        1.068782   -1.523568   -0.030784
      5          6           0        1.364982   -0.020475   -0.229325
      6          8           0        2.372127    0.532906   -0.573045
      7          6           0       -0.001583    0.591608    0.137341
      8          6           0       -0.113424    2.075592    0.294234
      9          8           0       -0.303631   -0.228862    1.325266
     10          1           0       -2.700935    0.881817   -1.147801
     11          1           0       -3.052140   -0.836005   -0.930633
     12          1           0       -2.712728    0.179855    0.482678
     13          1           0       -0.678882   -0.520341   -1.726222
     14          1           0       -0.975682   -2.183869    0.727803
     15          1           0        1.664173   -1.947734    0.781378
     16          1           0        1.244317   -2.100042   -0.943527
     17          1           0        0.242726    2.569021   -0.615103
     18          1           0       -1.142644    2.385627    0.490150
     19          1           0        0.517013    2.410858    1.123168
 ---------------------------------------------------------------------

 SCF Done:  E(RB3LYP) =  -423.192820714     A.U. after    1 cycles

 The electronic state is 1-A.
 Alpha  occ. eigenvalues --  -19.14586 -19.13730 -10.26907 -10.24780 -10.24707
 Alpha  occ. eigenvalues --  -10.20727 -10.19479 -10.18626 -10.18511  -1.06385
 Alpha  occ. eigenvalues --   -1.04039  -0.80417  -0.76872  -0.75043  -0.66444
 Alpha  occ. eigenvalues --   -0.64946  -0.55996  -0.51355  -0.50154  -0.47805
 Alpha  occ. eigenvalues --   -0.46449  -0.45209  -0.43229  -0.41203  -0.40075
 Alpha  occ. eigenvalues --   -0.39357  -0.38380  -0.37661  -0.36760  -0.36188
 Alpha  occ. eigenvalues --   -0.32749  -0.31392  -0.28108  -0.22812
 Alpha virt. eigenvalues --   -0.01510   0.09040   0.09190   0.10734   0.11876
 Alpha virt. eigenvalues --    0.13233   0.14285   0.14597   0.15253   0.16428
 Alpha virt. eigenvalues --    0.17027   0.17446   0.18408   0.19952   0.21804

 Mulliken charges:
               1
     1  C   -0.429900
     2  C   -0.029593
     3  C    0.064441
     4  C   -0.349801
     5  C    0.421116
     6  O   -0.330747
     7  C    0.287028
     8  C   -0.512702
     9  O   -0.335171
    10  H    0.122016
    11  H    0.118947
    12  H    0.138737
    13  H    0.077519
    14  H    0.086416
    15  H    0.136957
    16  H    0.124696
    17  H    0.138976
    18  H    0.127520
    19  H    0.143545
 Sum of Mulliken charges =   0.00000

 Dipole moment (field-independent basis, Debye):
    X=             -2.3666    Y=             -1.1670    Z=             -0.8698  Tot=              2.7784
 Quadrupole moment (field-independent basis, Debye-Ang):
   XX=            -59.0312   YY=            -48.9165   ZZ=            -55.0265
   XY=             -2.4106   XZ=              3.0576   YZ=              0.7443

  Exact polarizability:  82.895   0.535  80.204  -0.198  -0.526  62.371
 Approx polarizability: 116.725   6.632 113.105  -5.266  -2.194 103.286

                      1                      2                      3
                      A                      A                      A
 Frequencies --    111.5950               149.1574               214.4018
 Red. masses --      3.0784                 1.1737                 2.3356
 Frc consts  --      0.0226                 0.0154                 0.0633
 IR Inten    --      3.8828                 0.3211                 0.3760

                      4                      5                      6
                      A                      A                      A
 Frequencies --    233.1698               250.5352               259.6515
 Red. masses --      1.2610                 2.3006                 2.8395
 Frc consts  --      0.0404                 0.0851                 0.1128
 IR Inten    --      1.3001                 2.9982                 2.3170

                      7                      8                      9
                      A                      A                      A
 Frequencies --    328.8982               417.9844               472.2322
 Red. masses --      2.4982                 2.6578                 4.0579
 Frc consts  --      0.1592                 0.2736                 0.5332
 IR Inten    --      1.9447                 4.4139                 1.7546

                     10                     11                     12
                      A                      A                      A
 Frequencies --    547.7307               618.0996               655.2404
 Red. masses --      4.6565                 3.0148                 3.9123
 Frc consts  --      0.8231                 0.6786                 0.9897
 IR Inten    --      7.7970                 1.4760                 3.9786

                     13                     14                     15
                      A                      A                      A
 Frequencies --    661.4236               781.6214               786.3091
 Red. masses --      4.4122                 2.3670                 2.3930
 Frc consts  --      1.1373                 0.8520                 0.8717
 IR Inten    --     10.8617                 1.2873                 5.0560

                     16                     17                     18
                      A                      A                      A
 Frequencies --    820.3181               867.9864               928.4641
 Red. masses --      3.4160                 3.2707                 2.0620
 Frc consts  --      1.3544                 1.4518                 1.0473
 IR Inten    --     12.0635                19.8806                 2.7463

                     19                     20                     21
                      A                      A                      A
 Frequencies --    943.6452               966.4847              1028.4587
 Red. masses --      3.6555                 1.7199                 2.4947
 Frc consts  --      1.9179                 0.9466                 1.5547
 IR Inten    --      8.1792                 4.2344                53.1947

                     22                     23                     24
                      A                      A                      A
 Frequencies --   1045.6194              1069.6370              1080.5247
 Red. masses --      1.3808                 2.2161                 1.5791
 Frc consts  --      0.8895                 1.4938                 1.0862
 IR Inten    --      5.1443                15.1858                 7.9231

                     25                     26                     27
                      A                      A                      A
 Frequencies --   1114.3998              1142.7970              1171.7268
 Red. masses --      2.0469                 1.5425                 2.2973
 Frc consts  --      1.4977                 1.1869                 1.8583
 IR Inten    --      5.2759                 5.5671                10.9630

                     28                     29                     30
                      A                      A                      A
 Frequencies --   1229.1992              1240.8847              1275.7829
 Red. masses --      1.6364                 1.8495                 1.5777
 Frc consts  --      1.4567                 1.6779                 1.5129
 IR Inten    --      2.8927                 6.9547                 4.8780

                     31                     32                     33
                      A                      A                      A
 Frequencies --   1291.0807              1337.4297              1390.0277
 Red. masses --      1.4207                 2.6951                 1.5713
 Frc consts  --      1.3953                 2.8403                 1.7888
 IR Inten    --     10.4677                 1.0002                 1.7054

                     34                     35                     36
                      A                      A                      A
 Frequencies --   1404.4867              1416.6778              1450.4689
 Red. masses --      1.3037                 1.5829                 1.1142
 Frc consts  --      1.5152                 1.8717                 1.3811
 IR Inten    --      2.5813                 9.5093                 7.1907

                     37                     38                     39
                      A                      A                      A
 Frequencies --   1473.6928              1484.8064              1496.3846
 Red. masses --      1.0501                 1.0468                 1.0517
 Frc consts  --      1.3436                 1.3597                 1.3875
 IR Inten    --      3.7299                 7.3936                 1.8453

                     40                     41                     42
                      A                      A                      A
 Frequencies --   1504.3360              1876.0838              3036.1471
 Red. masses --      1.0491                12.8107                 1.0446
 Frc consts  --      1.3989                26.5662                 5.6734
 IR Inten    --      3.9250               235.7230                22.3704

                     43                     44                     45
                      A                      A                      A
 Frequencies --   3042.5766              3047.5617              3067.7002
 Red. masses --      1.0736                 1.0365                 1.0593
 Frc consts  --      5.8558                 5.6717                 5.8734
 IR Inten    --     26.5575                10.7757                11.2162

                     46                     47                     48
                      A                      A                      A
 Frequencies --   3098.2942              3118.6828              3119.8177
 Red. masses --      1.1010                 1.1004                 1.1005
 Frc consts  --      6.2273                 6.3057                 6.3111
 IR Inten    --     19.5073                 5.4776                18.8450

                     49                     50                     51
                      A                      A                      A
 Frequencies --   3121.9193              3125.6538              3127.5900
 Red. masses --      1.0961                 1.1009                 1.1019
 Frc consts  --      6.2942                 6.3372                 6.3507
 IR Inten    --     23.2979                14.3509                15.6739

 - Thermochemistry -
 -------------------
 Temperature   298.150 Kelvin.  Pressure   1.00000 Atm.
 Atom     1 has atomic number  6 and mass  12.00000

 Molecular mass:   126.06808 amu.
 Principal axes and moments of inertia in atomic units:
                           1         2         3
     Eigenvalues --   714.290401068.746181387.40499
           X            0.99854  -0.04693   0.02686
           Y            0.04640   0.99873   0.01974
           Z           -0.02775  -0.01846   0.99944
 This molecule is an asymmetric top.
 Rotational symmetry number  1.
 Warning -- assumption of classical behavior for rotation
           may cause significant error
 Rotational temperatures (Kelvin)      0.12126     0.08104     0.06243
 Rotational constants (GHZ):           2.52662     1.68865     1.30080
 Zero-point vibrational energy     415375.7 (Joules/Mol)
                                   99.27718 (Kcal/Mol)
 Warning -- explicit consideration of  11 degrees of freedom as
           vibrations may cause significant error
 Vibrational temperatures:    160.56   214.60   308.48   335.48   360.46
          (Kelvin)            373.58   473.21   601.39   679.44   788.06
                              889.31   942.74   951.64  1124.58  1131.32
                             1180.25  1248.84  1335.85  1357.69  1390.55
                             1479.72  1504.41  1538.97  1554.63  1603.37
                             1644.23  1685.85  1768.54  1785.35  1835.56
                             1857.57  1924.26  1999.94  2020.74  2038.28
                             2086.90  2120.31  2136.30  2152.96  2164.40
                             2699.26  4368.33  4377.58  4384.76  4413.73
                             4457.75  4487.08  4488.72  4491.74  4497.11
                             4499.90

 Zero-point correction=                           0.158208 (Hartree/Particle)
 Thermal correction to Energy=                    0.166662
 Thermal correction to Enthalpy=                  0.167606
 Thermal correction to Gibbs Free Energy=         0.125563
 Sum of electronic and zero-point Energies=           -423.034612
 Sum of electronic and thermal Energies=              -423.026158
 Sum of electronic and thermal Enthalpies=            -423.025214
 Sum of electronic and thermal Free Energies=         -423.067258

                     E (Thermal)             CV                S
                      KCal/Mol        Cal/Mol-Kelvin    Cal/Mol-Kelvin
 Total                  104.582             32.644             88.488
 Electronic               0.000              0.000              0.000
 Translational            0.889              2.981             40.409
 Rotational               0.889              2.981             28.451
 Vibrational            102.805             26.683             19.628
 Vibration     1          0.607              1.940              3.241
 Vibration     2          0.618              1.904              2.683
 Vibration     3          0.644              1.819              2.006
 Vibration     4          0.654              1.790              1.854
 Vibration     5          0.663              1.762              1.727
 Vibration     6          0.668              1.746              1.664
 Vibration     7          0.712              1.618              1.265
 Vibration     8          0.781              1.431              0.899
 Vibration     9          0.829              1.312              0.731
 Vibration    10          0.903              1.145              0.549
 Vibration    11          0.978              0.994              0.420

 Optimization completed.
    -- Stationary point found.
 Normal termination of Gaussian 09 at Mon Jan 27 23:40:43 2020.
