 Gaussian 09, Revision D.01,
 Gaussian 09:  ES64L-G09RevD.01 24-Apr-2013

 -----------------------------
 # b3lyp 6-31G(2df,p) opt Freq
 -----------------------------

 -----
 titel
 -----
 Symbolic Z-matrix:
 Charge =  0 Multiplicity = 1

 SCF Done:  E(RB3LYP) =  -423.221192154     A.U. after   14 cycles
 Optimization completed.
    -- Stationary point found.
 Normal termination of Gaussian 09 at Tue Jan 28 08:12:04 2020.

 ----------------------------------------------------------------------
 #N Geom=AllCheck Guess=TCheck SCRF=Check GenChk RB3LYP/6-31G(2df,p) Fr
 eq
 ----------------------------------------------------------------------

 Structure from the checkpoint file:  "/scratch/puck/g09_509288a1-dc4e-4989-a6f6-326a84ba78e4/Gau-14498.chk"
 -----
 titel
 -----
 Charge =  0 Multiplicity = 1

                         Standard orientation:
 ---------------------------------------------------------------------
 Center     Atomic      Atomic             Coordinates (Angstroms)
 Number     Number       Type             X           Y           Z
 ---------------------------------------------------------------------
      1          8           0       -1.547704   -1.313218    1.072470
      2          6           0       -1.265535   -1.000760   -0.290545
      3          6           0       -1.927115    0.323309   -0.702775
      4          6           0       -1.353584    1.501370    0.100762
      5          6           0        0.137538    1.421294    0.247963
      6          6           0        0.861544    0.328260   -0.045082
      7          6           0        0.244246   -0.951503   -0.559350
      8          6           0        2.322807    0.375769    0.146935
      9          8           0        3.072586   -0.548843   -0.071374
     10          1           0       -0.951807   -0.797281    1.625861
     11          1           0       -1.707651   -1.821742   -0.863984
     12          1           0       -1.752543    0.486418   -1.773338
     13          1           0       -3.008455    0.256595   -0.553733
     14          1           0       -1.629237    2.458274   -0.358528
     15          1           0       -1.803637    1.528135    1.104494
     16          1           0        0.651327    2.302005    0.632209
     17          1           0        0.440892   -1.045384   -1.635154
     18          1           0        0.736637   -1.810508   -0.092782
     19          1           0        2.706015    1.353543    0.518746
 ---------------------------------------------------------------------

 SCF Done:  E(RB3LYP) =  -423.221192154     A.U. after    1 cycles

 The electronic state is 1-A.
 Alpha  occ. eigenvalues --  -19.13641 -19.13458 -10.26642 -10.23641 -10.21583
 Alpha  occ. eigenvalues --  -10.20459 -10.20370 -10.19056 -10.18898  -1.04037
 Alpha  occ. eigenvalues --   -1.01946  -0.84835  -0.76958  -0.75242  -0.65957
 Alpha  occ. eigenvalues --   -0.62530  -0.58826  -0.53072  -0.51149  -0.46940
 Alpha  occ. eigenvalues --   -0.46523  -0.45213  -0.44803  -0.42493  -0.40910
 Alpha  occ. eigenvalues --   -0.40313  -0.38492  -0.37418  -0.34982  -0.34758
 Alpha  occ. eigenvalues --   -0.31785  -0.27543  -0.26404  -0.25283
 Alpha virt. eigenvalues --   -0.05595   0.05140   0.07319   0.10143   0.10939
 Alpha virt. eigenvalues --    0.12633   0.13393   0.15138   0.15238   0.16388
 Alpha virt. eigenvalues --    0.17861   0.18896   0.20388   0.21288   0.21606

 Mulliken charges:
               1
     1  O   -0.443090
     2  C    0.114741
     3  C   -0.217850
     4  C   -0.269244
     5  C   -0.121434
     6  C    0.199122
     7  C   -0.325523
     8  C    0.087412
     9  O   -0.272475
    10  H    0.283003
    11  H    0.087182
    12  H    0.101341
    13  H    0.107521
    14  H    0.119317
    15  H    0.127375
    16  H    0.101028
    17  H    0.121769
    18  H    0.133497
    19  H    0.066309
 Sum of Mulliken charges =   0.00000

 Dipole moment (field-independent basis, Debye):
    X=             -1.8697    Y=              2.7762    Z=             -0.2473  Tot=              3.3562
 Quadrupole moment (field-independent basis, Debye-Ang):
   XX=            -64.2737   YY=            -52.9243   ZZ=            -51.3126
   XY=              1.1434   XZ=              3.1461   YZ=              2.7269

  Exact polarizability:  96.644  -9.189  82.392   1.065   7.036  60.201
 Approx polarizability: 139.595 -28.555 133.442  -5.034  12.771  95.216

                      1                      2                      3
                      A                      A                      A
 Frequencies --     78.0671               132.8097               183.8634
 Red. masses --      4.5133                 3.4412                 2.6684
 Frc consts  --      0.0162                 0.0358                 0.0531
 IR Inten    --      3.4661                 0.6314                 9.2008

                      4                      5                      6
                      A                      A                      A
 Frequencies --    206.3186               271.7936               317.2738
 Red. masses --      5.6850                 1.1163                 1.8910
 Frc consts  --      0.1426                 0.0486                 0.1122
 IR Inten    --      9.0651                54.5076                 6.1800

                      7                      8                      9
                      A                      A                      A
 Frequencies --    353.6392               368.0170               439.0733
 Red. masses --      3.1786                 2.2356                 2.8137
 Frc consts  --      0.2342                 0.1784                 0.3196
 IR Inten    --      2.6381                 1.5734                 6.0950

                     10                     11                     12
                      A                      A                      A
 Frequencies --    471.0489               574.0339               633.8781
 Red. masses --      3.0149                 3.9327                 4.5221
 Frc consts  --      0.3941                 0.7635                 1.0705
 IR Inten    --      0.8957                 0.9041                 4.8376

                     13                     14                     15
                      A                      A                      A
 Frequencies --    719.6911               765.3971               834.6617
 Red. masses --      2.1226                 2.9263                 2.0912
 Frc consts  --      0.6478                 1.0101                 0.8584
 IR Inten    --     21.3449                 3.7400                 8.4344

                     16                     17                     18
                      A                      A                      A
 Frequencies --    861.6722               902.0069               923.3464
 Red. masses --      1.7256                 1.8838                 2.4467
 Frc consts  --      0.7549                 0.9031                 1.2290
 IR Inten    --      0.5414                15.2008                 3.4221

                     19                     20                     21
                      A                      A                      A
 Frequencies --    976.0536               988.1180              1033.3417
 Red. masses --      2.9326                 1.8998                 1.7913
 Frc consts  --      1.6461                 1.0929                 1.1270
 IR Inten    --     20.0547                 1.8795                13.9316

                     22                     23                     24
                      A                      A                      A
 Frequencies --   1045.7848              1094.6611              1095.7492
 Red. masses --      1.8909                 2.1090                 1.6506
 Frc consts  --      1.2184                 1.4890                 1.1676
 IR Inten    --      7.7476                42.8208                10.6790

                     25                     26                     27
                      A                      A                      A
 Frequencies --   1176.2886              1183.8892              1200.5469
 Red. masses --      1.2323                 1.7160                 1.3146
 Frc consts  --      1.0046                 1.4171                 1.1164
 IR Inten    --      5.9711                21.8957                58.0481

                     28                     29                     30
                      A                      A                      A
 Frequencies --   1228.4577              1303.9791              1317.6443
 Red. masses --      1.4819                 1.5408                 1.3358
 Frc consts  --      1.3176                 1.5436                 1.3664
 IR Inten    --     30.8143                 8.6785                 4.6943

                     31                     32                     33
                      A                      A                      A
 Frequencies --   1335.5698              1377.1618              1380.7576
 Red. masses --      1.3706                 1.5842                 1.6250
 Frc consts  --      1.4404                 1.7703                 1.8253
 IR Inten    --      2.1337                 2.3484                 2.1528

                     34                     35                     36
                      A                      A                      A
 Frequencies --   1399.1217              1425.2588              1431.4627
 Red. masses --      1.9765                 1.2185                 1.2461
 Frc consts  --      2.2796                 1.4584                 1.5043
 IR Inten    --     10.6215                45.5093                13.1334

                     37                     38                     39
                      A                      A                      A
 Frequencies --   1461.9291              1467.8721              1484.8279
 Red. masses --      1.0984                 1.0757                 1.1001
 Frc consts  --      1.3832                 1.3656                 1.4290
 IR Inten    --      0.1419                16.0852                 5.4885

                     40                     41                     42
                      A                      A                      A
 Frequencies --   1698.2904              1790.7645              2870.0605
 Red. masses --      6.5918                10.5722                 1.0827
 Frc consts  --     11.2015                19.9753                 5.2546
 IR Inten    --     43.5321               231.4161               115.1179

                     43                     44                     45
                      A                      A                      A
 Frequencies --   3003.7826              3029.4826              3034.1504
 Red. masses --      1.0699                 1.0681                 1.0673
 Frc consts  --      5.6874                 5.7758                 5.7893
 IR Inten    --     13.0596                 4.7167                13.1832

                     46                     47                     48
                      A                      A                      A
 Frequencies --   3051.7086              3062.8480              3083.9735
 Red. masses --      1.0869                 1.0856                 1.0930
 Frc consts  --      5.9640                 6.0001                 6.1247
 IR Inten    --     26.0365                51.0435                 6.8534

                     49                     50                     51
                      A                      A                      A
 Frequencies --   3093.0666              3135.2197              3807.7279
 Red. masses --      1.1002                 1.0884                 1.0660
 Frc consts  --      6.2015                 6.3035                 9.1063
 IR Inten    --     27.6732                16.3625                13.1682

 - Thermochemistry -
 -------------------
 Temperature   298.150 Kelvin.  Pressure   1.00000 Atm.
 Atom     1 has atomic number  8 and mass  15.99491

 Molecular mass:   126.06808 amu.
 Principal axes and moments of inertia in atomic units:
                           1         2         3
     Eigenvalues --   631.885601505.960111840.00091
           X            0.99990  -0.00599   0.01267
           Y            0.00544   0.99906   0.04309
           Z           -0.01292  -0.04302   0.99899
 This molecule is an asymmetric top.
 Rotational symmetry number  1.
 Warning -- assumption of classical behavior for rotation
           may cause significant error
 Rotational temperatures (Kelvin)      0.13707     0.05751     0.04707
 Rotational constants (GHZ):           2.85612     1.19840     0.98084
 Zero-point vibrational energy     419327.9 (Joules/Mol)
                                  100.22176 (Kcal/Mol)
 Warning -- explicit consideration of  11 degrees of freedom as
           vibrations may cause significant error
 Vibrational temperatures:    112.32   191.08   264.54   296.85   391.05
          (Kelvin)            456.49   508.81   529.49   631.73   677.73
                              825.91   912.01  1035.47  1101.23  1200.89
                             1239.75  1297.79  1328.49  1404.32  1421.68
                             1486.75  1504.65  1574.97  1576.54  1692.41
                             1703.35  1727.32  1767.47  1876.13  1895.79
                             1921.58  1981.43  1986.60  2013.02  2050.63
                             2059.55  2103.39  2111.94  2136.33  2443.46
                             2576.51  4129.37  4321.77  4358.74  4365.46
                             4390.72  4406.75  4437.14  4450.23  4510.88
                             5478.46

 Zero-point correction=                           0.159714 (Hartree/Particle)
 Thermal correction to Energy=                    0.168304
 Thermal correction to Enthalpy=                  0.169248
 Thermal correction to Gibbs Free Energy=         0.126406
 Sum of electronic and zero-point Energies=           -423.061479
 Sum of electronic and thermal Energies=              -423.052888
 Sum of electronic and thermal Enthalpies=            -423.051944
 Sum of electronic and thermal Free Energies=         -423.094787

                     E (Thermal)             CV                S
                      KCal/Mol        Cal/Mol-Kelvin    Cal/Mol-Kelvin
 Total                  105.612             32.494             90.169
 Electronic               0.000              0.000              0.000
 Translational            0.889              2.981             40.409
 Rotational               0.889              2.981             28.950
 Vibrational            103.835             26.532             20.810
 Vibration     1          0.599              1.964              3.939
 Vibration     2          0.613              1.921              2.905
 Vibration     3          0.631              1.862              2.289
 Vibration     4          0.641              1.831              2.076
 Vibration     5          0.675              1.725              1.585
 Vibration     6          0.704              1.641              1.324
 Vibration     7          0.730              1.568              1.150
 Vibration     8          0.741              1.538              1.088
 Vibration     9          0.799              1.385              0.830
 Vibration    10          0.828              1.314              0.735
 Vibration    11          0.930              1.087              0.497

 Optimization completed.
    -- Stationary point found.
 Normal termination of Gaussian 09 at Tue Jan 28 08:59:03 2020.
