 Gaussian 09, Revision D.01,
 Gaussian 09:  ES64L-G09RevD.01 24-Apr-2013

 -----------------------------
 # b3lyp 6-31G(2df,p) opt Freq
 -----------------------------

 -----
 titel
 -----
 Symbolic Z-matrix:
 Charge =  0 Multiplicity = 1

 SCF Done:  E(RB3LYP) =  -423.162170067     A.U. after   14 cycles
 Optimization completed.
    -- Stationary point found.
 Normal termination of Gaussian 09 at Tue Jan 28 08:17:30 2020.

 ----------------------------------------------------------------------
 #N Geom=AllCheck Guess=TCheck SCRF=Check GenChk RB3LYP/6-31G(2df,p) Fr
 eq
 ----------------------------------------------------------------------

 Structure from the checkpoint file:  "/scratch/puck/g09_f4ee4133-e286-47ef-90cb-09d5000c34b9/Gau-8482.chk"
 -----
 titel
 -----
 Charge =  0 Multiplicity = 1

                         Standard orientation:
 ---------------------------------------------------------------------
 Center     Atomic      Atomic             Coordinates (Angstroms)
 Number     Number       Type             X           Y           Z
 ---------------------------------------------------------------------
      1          6           0       -3.565360   -0.761140   -0.100538
      2          6           0       -2.122337   -0.654595    0.060412
      3          6           0       -0.930150   -0.559571    0.201735
      4          6           0        0.518692   -0.432806    0.342341
      5          6           0        1.228505   -1.682973   -0.202575
      6          8           0        2.610780   -1.546880    0.083300
      7          6           0        1.051080    0.849842   -0.337421
      8          6           0        0.560645    2.109921    0.336099
      9          8           0        0.163608    3.090346   -0.237669
     10          1           0       -3.832632   -1.615102   -0.732593
     11          1           0       -4.065137   -0.893708    0.865223
     12          1           0       -3.978072    0.139553   -0.567728
     13          1           0        0.772131   -0.375660    1.411095
     14          1           0        0.801622   -2.573301    0.280746
     15          1           0        1.041359   -1.764610   -1.283746
     16          1           0        3.081997   -2.273675   -0.333466
     17          1           0        2.146141    0.832452   -0.259796
     18          1           0        0.779404    0.883454   -1.396042
     19          1           0        0.611628    2.080805    1.450946
 ---------------------------------------------------------------------

 SCF Done:  E(RB3LYP) =  -423.162170067     A.U. after    1 cycles

 The electronic state is 1-A.
 Alpha  occ. eigenvalues --  -19.14826 -19.13221 -10.26556 -10.24002 -10.22003
 Alpha  occ. eigenvalues --  -10.20566 -10.19123 -10.17905 -10.17173  -1.03935
 Alpha  occ. eigenvalues --   -1.02970  -0.82443  -0.77131  -0.71916  -0.69083
 Alpha  occ. eigenvalues --   -0.61657  -0.57458  -0.53923  -0.48140  -0.47862
 Alpha  occ. eigenvalues --   -0.45689  -0.44458  -0.42889  -0.42733  -0.42394
 Alpha  occ. eigenvalues --   -0.41396  -0.40006  -0.36790  -0.35952  -0.34219
 Alpha  occ. eigenvalues --   -0.28067  -0.25682  -0.25399  -0.24349
 Alpha virt. eigenvalues --   -0.01475   0.05087   0.05485   0.07003   0.10909
 Alpha virt. eigenvalues --    0.11624   0.12243   0.14432   0.16213   0.16981
 Alpha virt. eigenvalues --    0.17249   0.18263   0.18344   0.19737   0.21288

 Mulliken charges:
               1
     1  C   -0.498580
     2  C    0.076716
     3  C    0.059696
     4  C   -0.179172
     5  C   -0.086784
     6  O   -0.419591
     7  C   -0.270119
     8  C    0.165894
     9  O   -0.243709
    10  H    0.148429
    11  H    0.149869
    12  H    0.155145
    13  H    0.114323
    14  H    0.102225
    15  H    0.099988
    16  H    0.293345
    17  H    0.142600
    18  H    0.120548
    19  H    0.069177
 Sum of Mulliken charges =   0.00000

 Dipole moment (field-independent basis, Debye):
    X=              0.1376    Y=             -3.6855    Z=             -0.1275  Tot=              3.6903
 Quadrupole moment (field-independent basis, Debye-Ang):
   XX=            -44.5634   YY=            -58.9903   ZZ=            -52.4256
   XY=             -1.5384   XZ=             -1.5902   YZ=              4.2111

  Exact polarizability: 103.831  -0.788  78.311   2.223   0.180  62.161
 Approx polarizability: 147.772  -2.330 106.432   8.350  -3.715  95.508

                      1                      2                      3
                      A                      A                      A
 Frequencies --     28.7570                47.5733                79.1960
 Red. masses --      1.0160                 6.1436                 2.7471
 Frc consts  --      0.0005                 0.0082                 0.0102
 IR Inten    --      0.0218                 2.2252                 5.5711

                      4                      5                      6
                      A                      A                      A
 Frequencies --     95.1007               104.7129               165.1199
 Red. masses --      3.6375                 3.4011                 3.4449
 Frc consts  --      0.0194                 0.0220                 0.0553
 IR Inten    --      0.3877                 0.2409                19.5754

                      7                      8                      9
                      A                      A                      A
 Frequencies --    190.1882               225.8111               255.6722
 Red. masses --      1.8140                 1.3461                 3.9479
 Frc consts  --      0.0387                 0.0404                 0.1520
 IR Inten    --     34.9079                57.8983                 9.0822

                     10                     11                     12
                      A                      A                      A
 Frequencies --    317.6989               345.8378               443.6417
 Red. masses --      3.1772                 4.4635                 4.4526
 Frc consts  --      0.1889                 0.3145                 0.5163
 IR Inten    --      6.5140                 0.4319                 9.7519

                     13                     14                     15
                      A                      A                      A
 Frequencies --    470.7905               514.7217               558.1698
 Red. masses --      3.5163                 3.6048                 4.4554
 Frc consts  --      0.4592                 0.5627                 0.8178
 IR Inten    --      9.9129                 2.3471                10.2536

                     16                     17                     18
                      A                      A                      A
 Frequencies --    711.0016               823.4311               910.6615
 Red. masses --      2.0254                 2.0754                 1.8667
 Frc consts  --      0.6032                 0.8291                 0.9121
 IR Inten    --      2.8285                 4.7233                 5.7730

                     19                     20                     21
                      A                      A                      A
 Frequencies --   1002.1983              1025.8060              1051.9381
 Red. masses --      2.5539                 1.8178                 1.4327
 Frc consts  --      1.5113                 1.1270                 0.9341
 IR Inten    --     18.9510                25.5190                 2.2427

                     22                     23                     24
                      A                      A                      A
 Frequencies --   1053.6750              1068.1165              1081.7020
 Red. masses --      1.4198                 2.6357                 4.4188
 Frc consts  --      0.9288                 1.7717                 3.0463
 IR Inten    --      3.4416                12.8225                73.6138

                     25                     26                     27
                      A                      A                      A
 Frequencies --   1124.1855              1175.9994              1202.1701
 Red. masses --      2.7584                 2.5366                 1.2888
 Frc consts  --      2.0539                 2.0669                 1.0974
 IR Inten    --     11.9469                 0.4697                16.3064

                     28                     29                     30
                      A                      A                      A
 Frequencies --   1224.8522              1253.0472              1297.6436
 Red. masses --      1.1956                 1.1645                 1.2824
 Frc consts  --      1.0568                 1.0773                 1.2722
 IR Inten    --     21.0226                36.6999                 4.3312

                     31                     32                     33
                      A                      A                      A
 Frequencies --   1335.9256              1363.4770              1414.5251
 Red. masses --      1.5200                 1.4055                 1.2461
 Frc consts  --      1.5983                 1.5395                 1.4690
 IR Inten    --      5.0601                 3.9457                 5.1699

                     34                     35                     36
                      A                      A                      A
 Frequencies --   1432.4185              1446.7177              1458.3403
 Red. masses --      1.1978                 1.4273                 1.0903
 Frc consts  --      1.4480                 1.7600                 1.3661
 IR Inten    --      3.3221                 7.9128                 5.9755

                     37                     38                     39
                      A                      A                      A
 Frequencies --   1477.6500              1478.4963              1520.3740
 Red. masses --      1.0394                 1.0397                 1.0831
 Frc consts  --      1.3371                 1.3390                 1.4751
 IR Inten    --      5.6209                 5.6064                 2.4363

                     40                     41                     42
                      A                      A                      A
 Frequencies --   1837.4286              2371.7361              2847.0834
 Red. masses --     10.2950                11.8557                 1.0814
 Frc consts  --     20.4784                39.2925                 5.1646
 IR Inten    --    174.8420                 4.4851               107.8103

                     43                     44                     45
                      A                      A                      A
 Frequencies --   2986.0419              3001.1964              3027.6132
 Red. masses --      1.0566                 1.0808                 1.1059
 Frc consts  --      5.5508                 5.7359                 5.9728
 IR Inten    --     32.0559                19.1827                51.8556

                     46                     47                     48
                      A                      A                      A
 Frequencies --   3028.9152              3035.7637              3089.7711
 Red. masses --      1.0348                 1.0612                 1.1002
 Frc consts  --      5.5935                 5.7619                 6.1882
 IR Inten    --     29.3525                10.2324                 9.6346

                     49                     50                     51
                      A                      A                      A
 Frequencies --   3091.8555              3106.9076              3838.9631
 Red. masses --      1.1002                 1.0998                 1.0665
 Frc consts  --      6.1970                 6.2547                 9.2607
 IR Inten    --      8.2095                11.2867                35.7784

 - Thermochemistry -
 -------------------
 Temperature   298.150 Kelvin.  Pressure   1.00000 Atm.
 Atom     1 has atomic number  6 and mass  12.00000

 Molecular mass:   126.06808 amu.
 Principal axes and moments of inertia in atomic units:
                           1         2         3
     Eigenvalues --  1233.136011591.294592711.03915
           X            0.99982   0.01897  -0.00054
           Y           -0.01896   0.99975   0.01168
           Z            0.00076  -0.01166   0.99993
 This molecule is an asymmetric top.
 Rotational symmetry number  1.
 Warning -- assumption of classical behavior for rotation
           may cause significant error
 Rotational temperatures (Kelvin)      0.07024     0.05443     0.03195
 Rotational constants (GHZ):           1.46354     1.13413     0.66570
 Zero-point vibrational energy     406973.3 (Joules/Mol)
                                   97.26895 (Kcal/Mol)
 Warning -- explicit consideration of  15 degrees of freedom as
           vibrations may cause significant error
 Vibrational temperatures:     41.37    68.45   113.95   136.83   150.66
          (Kelvin)            237.57   273.64   324.89   367.85   457.10
                              497.58   638.30   677.36   740.57   803.08
                             1022.97  1184.73  1310.24  1441.94  1475.90
                             1513.50  1516.00  1536.78  1556.33  1617.45
                             1692.00  1729.65  1762.29  1802.85  1867.02
                             1922.10  1961.74  2035.18  2060.93  2081.50
                             2098.22  2126.01  2127.22  2187.48  2643.65
                             3412.39  4096.31  4296.24  4318.05  4356.05
                             4357.93  4367.78  4445.49  4448.48  4470.14
                             5523.40

 Zero-point correction=                           0.155008 (Hartree/Particle)
 Thermal correction to Energy=                    0.166253
 Thermal correction to Enthalpy=                  0.167197
 Thermal correction to Gibbs Free Energy=         0.116303
 Sum of electronic and zero-point Energies=           -423.007162
 Sum of electronic and thermal Energies=              -422.995917
 Sum of electronic and thermal Enthalpies=            -422.994973
 Sum of electronic and thermal Free Energies=         -423.045867

                     E (Thermal)             CV                S
                      KCal/Mol        Cal/Mol-Kelvin    Cal/Mol-Kelvin
 Total                  104.325             37.290            107.116
 Electronic               0.000              0.000              0.000
 Translational            0.889              2.981             40.409
 Rotational               0.889              2.981             30.054
 Vibrational            102.548             31.329             36.653
 Vibration     1          0.593              1.984              5.913
 Vibration     2          0.595              1.979              4.916
 Vibration     3          0.600              1.963              3.911
 Vibration     4          0.603              1.953              3.552
 Vibration     5          0.605              1.945              3.365
 Vibration     6          0.624              1.885              2.490
 Vibration     7          0.634              1.853              2.226
 Vibration     8          0.650              1.802              1.912
 Vibration     9          0.666              1.753              1.691
 Vibration    10          0.704              1.640              1.322
 Vibration    11          0.724              1.584              1.185
 Vibration    12          0.803              1.375              0.815
 Vibration    13          0.828              1.315              0.735
 Vibration    14          0.870              1.217              0.622
 Vibration    15          0.914              1.122              0.527

 Optimization completed on the basis of negligible forces.
    -- Stationary point found.
 Normal termination of Gaussian 09 at Tue Jan 28 08:55:34 2020.
