 Gaussian 09, Revision D.01,
 Gaussian 09:  ES64L-G09RevD.01 24-Apr-2013

 -----------------------------
 # b3lyp 6-31G(2df,p) opt Freq
 -----------------------------

 -----
 titel
 -----
 Symbolic Z-matrix:
 Charge =  0 Multiplicity = 1

 SCF Done:  E(RB3LYP) =  -423.217644204     A.U. after   14 cycles
 Optimization completed.
    -- Stationary point found.
 Normal termination of Gaussian 09 at Mon Jan 27 17:18:56 2020.

 ----------------------------------------------------------------------
 #N Geom=AllCheck Guess=TCheck SCRF=Check GenChk RB3LYP/6-31G(2df,p) Fr
 eq
 ----------------------------------------------------------------------

 Structure from the checkpoint file:  "/scratch/puck/g09_aecc9fc0-1a2c-44ce-894f-07537a60e37d/Gau-86528.chk"
 -----
 titel
 -----
 Charge =  0 Multiplicity = 1

                         Standard orientation:
 ---------------------------------------------------------------------
 Center     Atomic      Atomic             Coordinates (Angstroms)
 Number     Number       Type             X           Y           Z
 ---------------------------------------------------------------------
      1          6           0       -1.778616    1.623377   -0.328483
      2          6           0       -0.613525    0.742649    0.032668
      3          6           0        0.800439    1.250565   -0.173745
      4          6           0        1.687987    0.000000   -0.103013
      5          8           0        2.887250    0.000001   -0.024790
      6          6           0        0.800440   -1.250565   -0.173744
      7          6           0       -0.613524   -0.742649    0.032667
      8          6           0       -1.778615   -1.623377   -0.328484
      9          8           0       -0.718139   -0.000001    1.264164
     10          1           0       -1.733110    1.913122   -1.383720
     11          1           0       -2.731115    1.123413   -0.143316
     12          1           0       -1.759754    2.540693    0.270059
     13          1           0        0.925984    1.723623   -1.156310
     14          1           0        1.107787    1.979326    0.582197
     15          1           0        0.925985   -1.723623   -1.156309
     16          1           0        1.107788   -1.979325    0.582197
     17          1           0       -1.733100   -1.913134   -1.383717
     18          1           0       -1.759761   -2.540686    0.270070
     19          1           0       -2.731115   -1.123409   -0.143331
 ---------------------------------------------------------------------

 SCF Done:  E(RB3LYP) =  -423.217644204     A.U. after    1 cycles

 The electronic state is 1-A.
 Alpha  occ. eigenvalues --  -19.14939 -19.13125 -10.27245 -10.24736 -10.24707
 Alpha  occ. eigenvalues --  -10.19447 -10.19446 -10.19132 -10.19131  -1.07403
 Alpha  occ. eigenvalues --   -1.04224  -0.80485  -0.77244  -0.74383  -0.69863
 Alpha  occ. eigenvalues --   -0.61143  -0.54971  -0.54619  -0.49332  -0.46696
 Alpha  occ. eigenvalues --   -0.46147  -0.45084  -0.42356  -0.42195  -0.41824
 Alpha  occ. eigenvalues --   -0.40547  -0.39650  -0.38854  -0.36857  -0.35319
 Alpha  occ. eigenvalues --   -0.35210  -0.28811  -0.26744  -0.24300
 Alpha virt. eigenvalues --   -0.01670   0.07900   0.08812   0.10609   0.11528
 Alpha virt. eigenvalues --    0.13165   0.13533   0.15632   0.16945   0.17710
 Alpha virt. eigenvalues --    0.18170   0.18293   0.19269   0.19363   0.19769

 Mulliken charges:
               1
     1  C   -0.485933
     2  C    0.341901
     3  C   -0.390221
     4  C    0.397058
     5  O   -0.301333
     6  C   -0.390221
     7  C    0.341901
     8  C   -0.485933
     9  O   -0.337754
    10  H    0.122922
    11  H    0.131850
    12  H    0.133292
    13  H    0.127396
    14  H    0.139808
    15  H    0.127396
    16  H    0.139808
    17  H    0.122921
    18  H    0.133292
    19  H    0.131850
 Sum of Mulliken charges =   0.00000

 Dipole moment (field-independent basis, Debye):
    X=             -2.7704    Y=              0.0000    Z=             -1.9747  Tot=              3.4021
 Quadrupole moment (field-independent basis, Debye-Ang):
   XX=            -62.6516   YY=            -48.2414   ZZ=            -54.2633
   XY=              0.0000   XZ=              1.2339   YZ=              0.0000

  Exact polarizability:  82.955   0.000  83.409   1.051   0.000  59.534
 Approx polarizability: 114.428   0.000 115.734   0.100   0.000  99.622

                      1                      2                      3
                      A                      A                      A
 Frequencies --     74.0196               166.4442               169.3382
 Red. masses --      3.9118                 1.0272                 1.0840
 Frc consts  --      0.0126                 0.0168                 0.0183
 IR Inten    --      5.6047                 0.1212                 0.2746

                      4                      5                      6
                      A                      A                      A
 Frequencies --    190.0968               250.3674               292.9988
 Red. masses --      2.0865                 2.3210                 3.3010
 Frc consts  --      0.0444                 0.0857                 0.1670
 IR Inten    --      0.1567                 0.6953                 0.1295

                      7                      8                      9
                      A                      A                      A
 Frequencies --    317.1158               420.8937               444.0292
 Red. masses --      2.2073                 3.7796                 2.5170
 Frc consts  --      0.1308                 0.3945                 0.2924
 IR Inten    --      4.2950                 2.7739                 5.8888

                     10                     11                     12
                      A                      A                      A
 Frequencies --    485.2445               511.4082               543.1590
 Red. masses --      2.8891                 3.2229                 4.3156
 Frc consts  --      0.4008                 0.4966                 0.7502
 IR Inten    --      5.4157                 6.9942                 0.0003

                     13                     14                     15
                      A                      A                      A
 Frequencies --    584.1221               704.0492               718.1875
 Red. masses --      5.0139                 4.7812                 3.0836
 Frc consts  --      1.0079                 1.3963                 0.9371
 IR Inten    --      8.5739                 9.5363                 4.0019

                     16                     17                     18
                      A                      A                      A
 Frequencies --    798.7741               812.6488               886.9461
 Red. masses --      3.3190                 1.6715                 3.7819
 Frc consts  --      1.2477                 0.6504                 1.7529
 IR Inten    --      7.8737                 1.6411                19.2155

                     19                     20                     21
                      A                      A                      A
 Frequencies --    922.2875               954.6657               989.8371
 Red. masses --      1.9551                 1.7122                 1.5133
 Frc consts  --      0.9798                 0.9194                 0.8736
 IR Inten    --      0.1242                 2.4676                 1.2293

                     22                     23                     24
                      A                      A                      A
 Frequencies --   1039.3429              1075.4771              1118.5392
 Red. masses --      1.3157                 3.3910                 2.0779
 Frc consts  --      0.8374                 2.3109                 1.5317
 IR Inten    --      0.1893                 5.7688                12.1525

                     25                     26                     27
                      A                      A                      A
 Frequencies --   1154.0850              1180.6487              1208.2169
 Red. masses --      1.4269                 2.1642                 1.9467
 Frc consts  --      1.1198                 1.7774                 1.6743
 IR Inten    --      4.9289                36.0732                12.8989

                     28                     29                     30
                      A                      A                      A
 Frequencies --   1225.1668              1230.3384              1296.6039
 Red. masses --      2.6352                 1.4244                 2.5866
 Frc consts  --      2.3305                 1.2704                 2.5620
 IR Inten    --     62.2339                 3.6879                25.0897

                     31                     32                     33
                      A                      A                      A
 Frequencies --   1328.5454              1412.1992              1416.0128
 Red. masses --      2.4320                 1.3828                 1.3069
 Frc consts  --      2.5291                 1.6248                 1.5439
 IR Inten    --      7.0723                 5.1576                 4.7160

                     34                     35                     36
                      A                      A                      A
 Frequencies --   1432.4209              1437.8080              1455.4857
 Red. masses --      1.4647                 1.1249                 1.4907
 Frc consts  --      1.7707                 1.3701                 1.8606
 IR Inten    --      9.8934                 8.1793                 1.4472

                     37                     38                     39
                      A                      A                      A
 Frequencies --   1475.7567              1486.0134              1495.3135
 Red. masses --      1.0460                 1.0473                 1.1286
 Frc consts  --      1.3422                 1.3626                 1.4867
 IR Inten    --      2.2729                 0.1735                11.8766

                     40                     41                     42
                      A                      A                      A
 Frequencies --   1510.2518              1854.3893              3034.6181
 Red. masses --      1.3118                12.7992                 1.0518
 Frc consts  --      1.7628                25.9319                 5.7068
 IR Inten    --      6.8192               219.9471                 1.0455

                     43                     44                     45
                      A                      A                      A
 Frequencies --   3036.7685              3038.1501              3041.8270
 Red. masses --      1.0520                 1.0487                 1.0504
 Frc consts  --      5.7162                 5.7033                 5.7263
 IR Inten    --     16.3773                31.4824                 8.0295

                     46                     47                     48
                      A                      A                      A
 Frequencies --   3094.1605              3094.4899              3097.5718
 Red. masses --      1.0971                 1.0982                 1.0997
 Frc consts  --      6.1886                 6.1959                 6.2168
 IR Inten    --      0.1628                 1.6531                 7.0989

                     49                     50                     51
                      A                      A                      A
 Frequencies --   3098.2328              3127.6510              3136.2845
 Red. masses --      1.1000                 1.1005                 1.0984
 Frc consts  --      6.2213                 6.3430                 6.3657
 IR Inten    --     32.6370                11.2659                21.2841

 - Thermochemistry -
 -------------------
 Temperature   298.150 Kelvin.  Pressure   1.00000 Atm.
 Atom     1 has atomic number  6 and mass  12.00000

 Molecular mass:   126.06808 amu.
 Principal axes and moments of inertia in atomic units:
                           1         2         3
     Eigenvalues --   668.282531226.509951635.52170
           X            0.99989   0.00000   0.01470
           Y            0.00000   1.00000   0.00000
           Z           -0.01470   0.00000   0.99989
 This molecule is an asymmetric top.
 Rotational symmetry number  1.
 Warning -- assumption of classical behavior for rotation
           may cause significant error
 Rotational temperatures (Kelvin)      0.12961     0.07062     0.05296
 Rotational constants (GHZ):           2.70057     1.47144     1.10347
 Zero-point vibrational energy     411928.1 (Joules/Mol)
                                   98.45318 (Kcal/Mol)
 Warning -- explicit consideration of  13 degrees of freedom as
           vibrations may cause significant error
 Vibrational temperatures:    106.50   239.48   243.64   273.51   360.22
          (Kelvin)            421.56   456.26   605.57   638.86   698.16
                              735.80   781.48   840.42  1012.97  1033.31
                             1149.26  1169.22  1276.12  1326.96  1373.55
                             1424.15  1495.38  1547.37  1609.33  1660.47
                             1698.69  1738.35  1762.74  1770.18  1865.52
                             1911.48  2031.84  2037.32  2060.93  2068.68
                             2094.12  2123.28  2138.04  2151.42  2172.91
                             2668.05  4366.13  4369.23  4371.21  4376.51
                             4451.80  4452.28  4456.71  4457.66  4499.99
                             4512.41

 Zero-point correction=                           0.156895 (Hartree/Particle)
 Thermal correction to Energy=                    0.165803
 Thermal correction to Enthalpy=                  0.166747
 Thermal correction to Gibbs Free Energy=         0.123543
 Sum of electronic and zero-point Energies=           -423.060749
 Sum of electronic and thermal Energies=              -423.051841
 Sum of electronic and thermal Enthalpies=            -423.050897
 Sum of electronic and thermal Free Energies=         -423.094101

                     E (Thermal)             CV                S
                      KCal/Mol        Cal/Mol-Kelvin    Cal/Mol-Kelvin
 Total                  104.043             33.891             90.931
 Electronic               0.000              0.000              0.000
 Translational            0.889              2.981             40.409
 Rotational               0.889              2.981             28.685
 Vibrational            102.265             27.929             21.838
 Vibration     1          0.599              1.966              4.044
 Vibration     2          0.624              1.884              2.475
 Vibration     3          0.625              1.880              2.443
 Vibration     4          0.633              1.854              2.227
 Vibration     5          0.663              1.762              1.728
 Vibration     6          0.688              1.687              1.457
 Vibration     7          0.704              1.641              1.325
 Vibration     8          0.783              1.425              0.889
 Vibration     9          0.804              1.374              0.814
 Vibration    10          0.841              1.283              0.696
 Vibration    11          0.867              1.225              0.630
 Vibration    12          0.898              1.155              0.559
 Vibration    13          0.941              1.066              0.478

 Optimization completed.
    -- Stationary point found.
 Normal termination of Gaussian 09 at Mon Jan 27 18:03:25 2020.
