 Gaussian 09, Revision D.01,
 Gaussian 09:  ES64L-G09RevD.01 24-Apr-2013

 -----------------------------
 # b3lyp 6-31G(2df,p) opt Freq
 -----------------------------

 -----
 titel
 -----
 Symbolic Z-matrix:
 Charge =  0 Multiplicity = 1

 SCF Done:  E(RB3LYP) =  -423.189939452     A.U. after   14 cycles
 Optimization completed.
    -- Stationary point found.
 Normal termination of Gaussian 09 at Mon Jan 27 13:15:15 2020.

 ----------------------------------------------------------------------
 #N Geom=AllCheck Guess=TCheck SCRF=Check GenChk RB3LYP/6-31G(2df,p) Fr
 eq
 ----------------------------------------------------------------------

 Structure from the checkpoint file:  "/scratch/puck/g09_a69dbb90-7dd3-4b64-b688-f3f18af1cdfa/Gau-28215.chk"
 -----
 titel
 -----
 Charge =  0 Multiplicity = 1

                         Standard orientation:
 ---------------------------------------------------------------------
 Center     Atomic      Atomic             Coordinates (Angstroms)
 Number     Number       Type             X           Y           Z
 ---------------------------------------------------------------------
      1          8           0        2.079114   -0.552636   -0.895693
      2          6           0        1.326906   -0.406034    0.036062
      3          6           0        1.169905    0.949248    0.727689
      4          6           0        0.257845    1.908997   -0.065926
      5          8           0       -0.896393    1.311855   -0.619671
      6          6           0       -1.736296    0.567838    0.265425
      7          6           0       -1.819540   -0.864643   -0.202677
      8          6           0       -0.843793   -1.766953   -0.092364
      9          6           0        0.500608   -1.584101    0.588320
     10          1           0        0.799221    0.816271    1.747804
     11          1           0        2.161092    1.409019    0.791071
     12          1           0       -0.003897    2.762526    0.580297
     13          1           0        0.809616    2.293860   -0.927841
     14          1           0       -1.365992    0.620992    1.297366
     15          1           0       -2.729949    1.030865    0.258757
     16          1           0       -2.726895   -1.150221   -0.727957
     17          1           0       -0.999712   -2.745015   -0.539616
     18          1           0        0.359895   -1.454582    1.668293
     19          1           0        1.101034   -2.483578    0.435561
 ---------------------------------------------------------------------

 SCF Done:  E(RB3LYP) =  -423.189939452     A.U. after    1 cycles

 The electronic state is 1-A.
 Alpha  occ. eigenvalues --  -19.14105 -19.12888 -10.27231 -10.23924 -10.23660
 Alpha  occ. eigenvalues --  -10.19780 -10.19727 -10.19431 -10.18654  -1.04176
 Alpha  occ. eigenvalues --   -1.03093  -0.80992  -0.78535  -0.72285  -0.69240
 Alpha  occ. eigenvalues --   -0.61351  -0.56359  -0.51898  -0.49996  -0.48886
 Alpha  occ. eigenvalues --   -0.48287  -0.45535  -0.43907  -0.43637  -0.41380
 Alpha  occ. eigenvalues --   -0.39539  -0.38823  -0.36629  -0.35706  -0.33620
 Alpha  occ. eigenvalues --   -0.31187  -0.27966  -0.24928  -0.23660
 Alpha virt. eigenvalues --   -0.01956  -0.00046   0.07562   0.09216   0.11840
 Alpha virt. eigenvalues --    0.13585   0.14021   0.14609   0.16325   0.17078
 Alpha virt. eigenvalues --    0.18016   0.19600   0.19838   0.20849   0.22795

 Mulliken charges:
               1
     1  O   -0.305469
     2  C    0.410159
     3  C   -0.337765
     4  C   -0.057372
     5  O   -0.245025
     6  C   -0.133028
     7  C   -0.047365
     8  C   -0.039316
     9  C   -0.356144
    10  H    0.107542
    11  H    0.129779
    12  H    0.093042
    13  H    0.130411
    14  H    0.098673
    15  H    0.106842
    16  H    0.096505
    17  H    0.102581
    18  H    0.116920
    19  H    0.129028
 Sum of Mulliken charges =   0.00000

 Dipole moment (field-independent basis, Debye):
    X=             -1.2651    Y=              0.1716    Z=              2.8648  Tot=              3.1364
 Quadrupole moment (field-independent basis, Debye-Ang):
   XX=            -55.3576   YY=            -49.9437   ZZ=            -55.0673
   XY=              2.6934   XZ=              3.3276   YZ=              0.9061

  Exact polarizability:  85.762  -1.401  84.737   0.433   2.969  60.596
 Approx polarizability: 126.092  -9.106 116.862  -3.677   3.038 100.538

                      1                      2                      3
                      A                      A                      A
 Frequencies --     62.2625                98.0623               139.0054
 Red. masses --      2.7918                 5.5748                 3.6043
 Frc consts  --      0.0064                 0.0316                 0.0410
 IR Inten    --      1.1762                 1.5812                 6.1738

                      4                      5                      6
                      A                      A                      A
 Frequencies --    189.9002               286.0109               350.0717
 Red. masses --      2.8752                 2.7615                 3.2151
 Frc consts  --      0.0611                 0.1331                 0.2321
 IR Inten    --      0.4073                 0.4232                 3.4847

                      7                      8                      9
                      A                      A                      A
 Frequencies --    403.2289               450.7558               488.2698
 Red. masses --      2.0130                 3.0619                 2.7533
 Frc consts  --      0.1928                 0.3665                 0.3867
 IR Inten    --      1.0024                 2.1624                 8.4234

                     10                     11                     12
                      A                      A                      A
 Frequencies --    528.7086               635.9436               671.2462
 Red. masses --      3.0750                 3.7953                 3.2243
 Frc consts  --      0.5064                 0.9043                 0.8560
 IR Inten    --      6.7726                 0.4412                 9.9231

                     13                     14                     15
                      A                      A                      A
 Frequencies --    715.4803               785.3267               857.7941
 Red. masses --      1.6539                 1.7417                 2.7258
 Frc consts  --      0.4988                 0.6329                 1.1817
 IR Inten    --     16.3365                 1.6635                10.3622

                     16                     17                     18
                      A                      A                      A
 Frequencies --    893.0422               918.0865               964.7920
 Red. masses --      3.2309                 2.7602                 2.1528
 Frc consts  --      1.5182                 1.3708                 1.1806
 IR Inten    --      7.8348                 2.3984                13.4280

                     19                     20                     21
                      A                      A                      A
 Frequencies --    980.2753               996.4607               999.4184
 Red. masses --      2.5187                 1.4768                 2.0818
 Frc consts  --      1.4260                 0.8640                 1.2252
 IR Inten    --     14.2931                 6.2862                 7.0683

                     22                     23                     24
                      A                      A                      A
 Frequencies --   1037.9444              1085.5164              1118.0491
 Red. masses --      1.9779                 3.0977                 2.1731
 Frc consts  --      1.2555                 2.1506                 1.6005
 IR Inten    --     11.8759                15.4206                12.3719

                     25                     26                     27
                      A                      A                      A
 Frequencies --   1157.2289              1221.2598              1240.9884
 Red. masses --      2.7601                 1.3245                 1.3385
 Frc consts  --      2.1778                 1.1639                 1.2145
 IR Inten    --    143.8841                26.5467                20.3869

                     28                     29                     30
                      A                      A                      A
 Frequencies --   1262.1555              1272.4343              1294.8650
 Red. masses --      1.1846                 1.1559                 1.1986
 Frc consts  --      1.1119                 1.1027                 1.1841
 IR Inten    --     13.2737                 4.3245                15.8254

                     31                     32                     33
                      A                      A                      A
 Frequencies --   1311.0296              1353.8557              1384.4103
 Red. masses --      1.4069                 1.2898                 1.2309
 Frc consts  --      1.4248                 1.3929                 1.3899
 IR Inten    --     10.4798                18.8176                 7.4051

                     34                     35                     36
                      A                      A                      A
 Frequencies --   1407.9779              1420.4451              1468.6118
 Red. masses --      1.2616                 1.4240                 1.0993
 Frc consts  --      1.4735                 1.6928                 1.3970
 IR Inten    --      9.9443                 2.1178                 4.2321

                     37                     38                     39
                      A                      A                      A
 Frequencies --   1479.4235              1499.0020              1508.5223
 Red. masses --      1.0884                 1.0875                 1.0844
 Frc consts  --      1.4035                 1.4398                 1.4540
 IR Inten    --      7.3399                 0.7761                 7.2849

                     40                     41                     42
                      A                      A                      A
 Frequencies --   1713.4068              1817.4347              2972.8202
 Red. masses --      6.7841                10.8230                 1.0707
 Frc consts  --     11.7345                21.0628                 5.5754
 IR Inten    --     12.3717               154.5166                73.7489

                     43                     44                     45
                      A                      A                      A
 Frequencies --   3013.9114              3032.2207              3053.9244
 Red. masses --      1.0585                 1.0648                 1.0901
 Frc consts  --      5.6651                 5.7685                 5.9902
 IR Inten    --     39.8948                10.3979                23.3794

                     46                     47                     48
                      A                      A                      A
 Frequencies --   3058.0357              3087.6210              3105.6794
 Red. masses --      1.0719                 1.0944                 1.0971
 Frc consts  --      5.9057                 6.1473                 6.2346
 IR Inten    --     32.3283                 3.1718                 9.7589

                     49                     50                     51
                      A                      A                      A
 Frequencies --   3110.2188              3151.4934              3174.6496
 Red. masses --      1.1012                 1.0842                 1.0960
 Frc consts  --      6.2760                 6.3444                 6.5081
 IR Inten    --     28.9460                 3.7604                27.8924

 - Thermochemistry -
 -------------------
 Temperature   298.150 Kelvin.  Pressure   1.00000 Atm.
 Atom     1 has atomic number  8 and mass  15.99491

 Molecular mass:   126.06808 amu.
 Principal axes and moments of inertia in atomic units:
                           1         2         3
     Eigenvalues --   872.66508 981.890151559.95958
           X            0.98925   0.14517   0.01776
           Y           -0.14540   0.98930   0.01231
           Z           -0.01579  -0.01476   0.99977
 This molecule is an asymmetric top.
 Rotational symmetry number  1.
 Warning -- assumption of classical behavior for rotation
           may cause significant error
 Rotational temperatures (Kelvin)      0.09925     0.08821     0.05552
 Rotational constants (GHZ):           2.06808     1.83803     1.15692
 Zero-point vibrational energy     420064.4 (Joules/Mol)
                                  100.39779 (Kcal/Mol)
 Warning -- explicit consideration of  10 degrees of freedom as
           vibrations may cause significant error
 Vibrational temperatures:     89.58   141.09   200.00   273.22   411.51
          (Kelvin)            503.67   580.16   648.54   702.51   760.69
                              914.98   965.77  1029.42  1129.91  1234.17
                             1284.89  1320.92  1388.12  1410.40  1433.68
                             1437.94  1493.37  1561.81  1608.62  1664.99
                             1757.12  1785.50  1815.96  1830.75  1863.02
                             1886.28  1947.89  1991.86  2025.76  2043.70
                             2113.00  2128.56  2156.73  2170.42  2465.21
                             2614.88  4277.22  4336.34  4362.68  4393.91
                             4399.83  4442.39  4468.37  4474.91  4534.29
                             4567.61

 Zero-point correction=                           0.159994 (Hartree/Particle)
 Thermal correction to Energy=                    0.168433
 Thermal correction to Enthalpy=                  0.169377
 Thermal correction to Gibbs Free Energy=         0.126448
 Sum of electronic and zero-point Energies=           -423.029945
 Sum of electronic and thermal Energies=              -423.021506
 Sum of electronic and thermal Enthalpies=            -423.020562
 Sum of electronic and thermal Free Energies=         -423.063491

                     E (Thermal)             CV                S
                      KCal/Mol        Cal/Mol-Kelvin    Cal/Mol-Kelvin
 Total                  105.693             31.583             90.352
 Electronic               0.000              0.000              0.000
 Translational            0.889              2.981             40.409
 Rotational               0.889              2.981             28.682
 Vibrational            103.916             25.622             21.262
 Vibration     1          0.597              1.972              4.384
 Vibration     2          0.604              1.951              3.492
 Vibration     3          0.615              1.914              2.818
 Vibration     4          0.633              1.854              2.229
 Vibration     5          0.684              1.700              1.497
 Vibration     6          0.727              1.575              1.166
 Vibration     7          0.769              1.463              0.951
 Vibration     8          0.810              1.359              0.793
 Vibration     9          0.844              1.276              0.688
 Vibration    10          0.884              1.186              0.590

 Optimization completed.
    -- Stationary point found.
 Normal termination of Gaussian 09 at Mon Jan 27 14:34:10 2020.
