 Gaussian 09, Revision D.01,
 Gaussian 09:  ES64L-G09RevD.01 24-Apr-2013

 -----------------------------
 # b3lyp 6-31G(2df,p) opt Freq
 -----------------------------

 -----
 titel
 -----
 Symbolic Z-matrix:
 Charge =  0 Multiplicity = 1

 SCF Done:  E(RB3LYP) =  -423.192012140     A.U. after   14 cycles
 Optimization completed.
    -- Stationary point found.
 Normal termination of Gaussian 09 at Tue Jan 28 08:12:29 2020.

 ----------------------------------------------------------------------
 #N Geom=AllCheck Guess=TCheck SCRF=Check GenChk RB3LYP/6-31G(2df,p) Fr
 eq
 ----------------------------------------------------------------------

 Structure from the checkpoint file:  "/scratch/puck/g09_00d28c3b-35b3-4247-9c1b-c0ecab5e1d30/Gau-14431.chk"
 -----
 titel
 -----
 Charge =  0 Multiplicity = 1

                         Standard orientation:
 ---------------------------------------------------------------------
 Center     Atomic      Atomic             Coordinates (Angstroms)
 Number     Number       Type             X           Y           Z
 ---------------------------------------------------------------------
      1          8           0        2.052947   -1.417321    0.395525
      2          6           0        1.447478   -0.454399   -0.454565
      3          6           0        1.737735    1.041224   -0.064977
      4          6           0        0.405787    1.635674    0.464118
      5          6           0       -0.635663    0.891166   -0.391836
      6          8           0       -1.945742    0.744036    0.134905
      7          6           0       -2.283105   -0.648353    0.158806
      8          6           0       -0.983485   -1.380669   -0.086984
      9          6           0       -0.054924   -0.495802   -0.429939
     10          1           0        1.578952   -1.396994    1.234456
     11          1           0        1.860315   -0.669229   -1.445786
     12          1           0        2.556012    1.089836    0.657124
     13          1           0        2.061082    1.589755   -0.956379
     14          1           0        0.241530    1.368324    1.513971
     15          1           0        0.360001    2.724221    0.380411
     16          1           0       -0.689512    1.357184   -1.391533
     17          1           0       -2.721921   -0.895338    1.135723
     18          1           0       -3.048063   -0.869121   -0.604567
     19          1           0       -0.858966   -2.445396    0.065404
 ---------------------------------------------------------------------

 SCF Done:  E(RB3LYP) =  -423.192012140     A.U. after    1 cycles

 The electronic state is 1-A.
 Alpha  occ. eigenvalues --  -19.13807 -19.13500 -10.24051 -10.23334 -10.22963
 Alpha  occ. eigenvalues --  -10.18972 -10.18553 -10.18548 -10.18360  -1.03382
 Alpha  occ. eigenvalues --   -1.02016  -0.83249  -0.77647  -0.71018  -0.68730
 Alpha  occ. eigenvalues --   -0.60343  -0.57898  -0.56017  -0.51265  -0.49068
 Alpha  occ. eigenvalues --   -0.45990  -0.44935  -0.43547  -0.41174  -0.40713
 Alpha  occ. eigenvalues --   -0.39218  -0.36382  -0.35247  -0.34405  -0.32829
 Alpha  occ. eigenvalues --   -0.31267  -0.27475  -0.26224  -0.23473
 Alpha virt. eigenvalues --    0.00318   0.07920   0.10451   0.10577   0.11602
 Alpha virt. eigenvalues --    0.12908   0.14794   0.15354   0.16857   0.17261
 Alpha virt. eigenvalues --    0.17701   0.19038   0.19735   0.20571   0.22846

 Mulliken charges:
               1
     1  O   -0.424512
     2  C    0.032448
     3  C   -0.249929
     4  C   -0.250080
     5  C    0.081959
     6  O   -0.284899
     7  C   -0.111073
     8  C   -0.265044
     9  C    0.267385
    10  H    0.274959
    11  H    0.101843
    12  H    0.112016
    13  H    0.106445
    14  H    0.102098
    15  H    0.101961
    16  H    0.076439
    17  H    0.110277
    18  H    0.104950
    19  H    0.112755
 Sum of Mulliken charges =   0.00000

 Dipole moment (field-independent basis, Debye):
    X=             -0.0820    Y=             -0.1676    Z=              0.1916  Tot=              0.2675
 Quadrupole moment (field-independent basis, Debye-Ang):
   XX=            -58.1580   YY=            -53.6492   ZZ=            -50.2993
   XY=              7.0140   XZ=              0.0354   YZ=             -2.1340

  Exact polarizability:  89.676  10.561  79.655  -3.378  -3.839  62.230
 Approx polarizability: 123.844  15.408 117.190  -8.075  -9.084  98.423

                      1                      2                      3
                      A                      A                      A
 Frequencies --     74.3697               150.8489               172.8959
 Red. masses --      3.5308                 2.5333                 2.9804
 Frc consts  --      0.0115                 0.0340                 0.0525
 IR Inten    --      4.6830                 0.7078                 1.5309

                      4                      5                      6
                      A                      A                      A
 Frequencies --    285.9754               314.7061               350.6365
 Red. masses --      2.1205                 1.2304                 3.3525
 Frc consts  --      0.1022                 0.0718                 0.2428
 IR Inten    --      7.0777                74.6007                12.4253

                      7                      8                      9
                      A                      A                      A
 Frequencies --    420.6699               475.6998               576.8085
 Red. masses --      2.6864                 4.4609                 2.8441
 Frc consts  --      0.2801                 0.5948                 0.5575
 IR Inten    --      2.6192                 1.6003                 3.8330

                     10                     11                     12
                      A                      A                      A
 Frequencies --    622.7000               683.7461               773.0691
 Red. masses --      3.2018                 3.7878                 3.3306
 Frc consts  --      0.7315                 1.0433                 1.1728
 IR Inten    --      5.3712                 8.2381                13.2236

                     13                     14                     15
                      A                      A                      A
 Frequencies --    786.9547               831.4373               858.5041
 Red. masses --      2.7490                 1.3886                 2.4332
 Frc consts  --      1.0030                 0.5656                 1.0566
 IR Inten    --      6.1434                10.5370                 3.8593

                     16                     17                     18
                      A                      A                      A
 Frequencies --    921.1997               933.3519               967.5661
 Red. masses --      1.9868                 2.3133                 2.8030
 Frc consts  --      0.9934                 1.1873                 1.5461
 IR Inten    --      8.7667                 0.8010                28.6025

                     19                     20                     21
                      A                      A                      A
 Frequencies --    973.2623              1019.7506              1027.7333
 Red. masses --      2.8666                 2.8633                 2.2373
 Frc consts  --      1.5998                 1.7543                 1.3923
 IR Inten    --      5.3514                15.5126                11.2154

                     22                     23                     24
                      A                      A                      A
 Frequencies --   1042.6627              1085.3389              1122.9862
 Red. masses --      1.9764                 2.5570                 3.9212
 Frc consts  --      1.2659                 1.7746                 2.9135
 IR Inten    --      3.6758                34.0695                85.2934

                     25                     26                     27
                      A                      A                      A
 Frequencies --   1152.2537              1172.6258              1186.1406
 Red. masses --      1.3714                 2.1402                 1.3515
 Frc consts  --      1.0728                 1.7339                 1.1203
 IR Inten    --     21.4989                36.4903                25.6100

                     28                     29                     30
                      A                      A                      A
 Frequencies --   1196.1156              1254.8854              1272.2820
 Red. masses --      1.1025                 1.4190                 1.6341
 Frc consts  --      0.9293                 1.3166                 1.5584
 IR Inten    --      0.6307                 1.7890                 3.7063

                     31                     32                     33
                      A                      A                      A
 Frequencies --   1282.3804              1302.9412              1327.3555
 Red. masses --      1.4212                 1.3996                 1.3054
 Frc consts  --      1.3771                 1.3999                 1.3551
 IR Inten    --      5.8915                 2.2323                 0.6314

                     34                     35                     36
                      A                      A                      A
 Frequencies --   1344.0608              1362.8630              1387.0881
 Red. masses --      1.8477                 1.3421                 1.4037
 Frc consts  --      1.9666                 1.4687                 1.5912
 IR Inten    --      8.5278                 3.2767                16.1552

                     37                     38                     39
                      A                      A                      A
 Frequencies --   1430.4288              1481.0552              1498.4385
 Red. masses --      1.2308                 1.0822                 1.1008
 Frc consts  --      1.4838                 1.3987                 1.4563
 IR Inten    --     55.0063                 3.7637                 3.4288

                     40                     41                     42
                      A                      A                      A
 Frequencies --   1520.2145              1735.5508              2942.5280
 Red. masses --      1.0876                 8.5177                 1.0811
 Frc consts  --      1.4809                15.1163                 5.5149
 IR Inten    --      0.8767                 0.6268                57.6379

                     43                     44                     45
                      A                      A                      A
 Frequencies --   2962.9477              3014.7592              3043.1631
 Red. masses --      1.0707                 1.0907                 1.0738
 Frc consts  --      5.5382                 5.8408                 5.8590
 IR Inten    --     88.4994                46.7395                 9.9709

                     46                     47                     48
                      A                      A                      A
 Frequencies --   3048.3612              3058.4908              3102.5562
 Red. masses --      1.0616                 1.0768                 1.0993
 Frc consts  --      5.8120                 5.9346                 6.2348
 IR Inten    --     19.6566                44.2535                24.6328

                     49                     50                     51
                      A                      A                      A
 Frequencies --   3112.3474              3215.9860              3798.8351
 Red. masses --      1.1030                 1.0955                 1.0658
 Frc consts  --      6.2953                 6.6755                 9.0621
 IR Inten    --     29.6371                 3.9271                10.2226

 - Thermochemistry -
 -------------------
 Temperature   298.150 Kelvin.  Pressure   1.00000 Atm.
 Atom     1 has atomic number  8 and mass  15.99491

 Molecular mass:   126.06808 amu.
 Principal axes and moments of inertia in atomic units:
                           1         2         3
     Eigenvalues --   631.004981176.878591640.55224
           X            0.99781   0.06611  -0.00332
           Y           -0.06614   0.99778  -0.00776
           Z            0.00280   0.00796   0.99996
 This molecule is an asymmetric top.
 Rotational symmetry number  1.
 Warning -- assumption of classical behavior for rotation
           may cause significant error
 Rotational temperatures (Kelvin)      0.13726     0.07360     0.05280
 Rotational constants (GHZ):           2.86011     1.53350     1.10008
 Zero-point vibrational energy     422757.5 (Joules/Mol)
                                  101.04146 (Kcal/Mol)
 Warning -- explicit consideration of   9 degrees of freedom as
           vibrations may cause significant error
 Vibrational temperatures:    107.00   217.04   248.76   411.45   452.79
          (Kelvin)            504.49   605.25   684.43   829.90   895.93
                              983.76  1112.27  1132.25  1196.25  1235.19
                             1325.40  1342.88  1392.11  1400.31  1467.19
                             1478.68  1500.16  1561.56  1615.72  1657.83
                             1687.14  1706.59  1720.94  1805.50  1830.53
                             1845.06  1874.64  1909.77  1933.80  1960.85
                             1995.71  2058.07  2130.91  2155.92  2187.25
                             2497.07  4233.64  4263.02  4337.56  4378.43
                             4385.91  4400.48  4463.88  4477.97  4627.08
                             5465.67

 Zero-point correction=                           0.161020 (Hartree/Particle)
 Thermal correction to Energy=                    0.168868
 Thermal correction to Enthalpy=                  0.169812
 Thermal correction to Gibbs Free Energy=         0.128470
 Sum of electronic and zero-point Energies=           -423.030992
 Sum of electronic and thermal Energies=              -423.023144
 Sum of electronic and thermal Enthalpies=            -423.022200
 Sum of electronic and thermal Free Energies=         -423.063542

                     E (Thermal)             CV                S
                      KCal/Mol        Cal/Mol-Kelvin    Cal/Mol-Kelvin
 Total                  105.966             30.516             87.012
 Electronic               0.000              0.000              0.000
 Translational            0.889              2.981             40.409
 Rotational               0.889              2.981             28.590
 Vibrational            104.189             24.554             18.013
 Vibration     1          0.599              1.966              4.034
 Vibration     2          0.618              1.902              2.661
 Vibration     3          0.626              1.876              2.404
 Vibration     4          0.684              1.700              1.498
 Vibration     5          0.702              1.646              1.337
 Vibration     6          0.728              1.574              1.163
 Vibration     7          0.783              1.425              0.890
 Vibration     8          0.832              1.304              0.722
 Vibration     9          0.933              1.081              0.491

 Optimization completed.
    -- Stationary point found.
 Normal termination of Gaussian 09 at Tue Jan 28 09:01:39 2020.
