 Gaussian 09, Revision D.01,
 Gaussian 09:  ES64L-G09RevD.01 24-Apr-2013

 -----------------------------
 # b3lyp 6-31G(2df,p) opt Freq
 -----------------------------

 -----
 titel
 -----
 Symbolic Z-matrix:
 Charge =  0 Multiplicity = 1

 SCF Done:  E(RB3LYP) =  -423.236945483     A.U. after   15 cycles
 Optimization completed.
    -- Stationary point found.
 Normal termination of Gaussian 09 at Tue Jan 28 12:40:31 2020.

 ----------------------------------------------------------------------
 #N Geom=AllCheck Guess=TCheck SCRF=Check GenChk RB3LYP/6-31G(2df,p) Fr
 eq
 ----------------------------------------------------------------------

 Structure from the checkpoint file:  "/scratch/puck/g09_be16e4aa-ce7f-4ede-a623-28d927909530/Gau-30188.chk"
 -----
 titel
 -----
 Charge =  0 Multiplicity = 1

                         Standard orientation:
 ---------------------------------------------------------------------
 Center     Atomic      Atomic             Coordinates (Angstroms)
 Number     Number       Type             X           Y           Z
 ---------------------------------------------------------------------
      1          6           0        3.082642   -0.588419    0.515939
      2          6           0        2.246604    0.072026   -0.594423
      3          6           0        0.801380    0.278889   -0.221848
      4          6           0        0.235041    1.477947   -0.118802
      5          6           0       -1.201201    1.665318    0.250529
      6          8           0       -2.031820    0.509945    0.076535
      7          6           0       -1.539806   -0.745113   -0.007727
      8          8           0       -2.301964   -1.665015   -0.130710
      9          6           0       -0.032579   -0.943633    0.062641
     10          1           0        4.122167   -0.704597    0.195788
     11          1           0        3.073825    0.019351    1.426305
     12          1           0        2.703767   -1.582731    0.771814
     13          1           0        2.690425    1.037171   -0.861069
     14          1           0        2.297551   -0.556321   -1.494880
     15          1           0        0.803241    2.387568   -0.293469
     16          1           0       -1.300916    1.993755    1.296023
     17          1           0       -1.660093    2.445522   -0.367329
     18          1           0        0.186081   -1.336911    1.065867
     19          1           0        0.201738   -1.764325   -0.623501
 ---------------------------------------------------------------------

 SCF Done:  E(RB3LYP) =  -423.236945483     A.U. after    1 cycles

 The electronic state is 1-A.
 Alpha  occ. eigenvalues --  -19.17905 -19.11175 -10.30352 -10.25386 -10.20545
 Alpha  occ. eigenvalues --  -10.20510 -10.19871 -10.19350 -10.18775  -1.09380
 Alpha  occ. eigenvalues --   -1.01067  -0.83881  -0.76931  -0.75484  -0.68689
 Alpha  occ. eigenvalues --   -0.63986  -0.58180  -0.52093  -0.51008  -0.49525
 Alpha  occ. eigenvalues --   -0.47320  -0.44953  -0.43835  -0.43565  -0.41616
 Alpha  occ. eigenvalues --   -0.39233  -0.38912  -0.37275  -0.36528  -0.34888
 Alpha  occ. eigenvalues --   -0.33133  -0.29084  -0.26410  -0.25067
 Alpha virt. eigenvalues --    0.00663   0.01910   0.07760   0.09986   0.11729
 Alpha virt. eigenvalues --    0.12483   0.13237   0.15077   0.15711   0.15836
 Alpha virt. eigenvalues --    0.16718   0.17427   0.18358   0.21221   0.22675

 Mulliken charges:
               1
     1  C   -0.377915
     2  C   -0.275762
     3  C    0.312372
     4  C   -0.188681
     5  C   -0.112160
     6  O   -0.224557
     7  C    0.416429
     8  O   -0.327615
     9  C   -0.451885
    10  H    0.120838
    11  H    0.122166
    12  H    0.124584
    13  H    0.105167
    14  H    0.109795
    15  H    0.095744
    16  H    0.126221
    17  H    0.132083
    18  H    0.149717
    19  H    0.143457
 Sum of Mulliken charges =   0.00000

 Dipole moment (field-independent basis, Debye):
    X=              3.7483    Y=              2.4203    Z=              0.4396  Tot=              4.4834
 Quadrupole moment (field-independent basis, Debye-Ang):
   XX=            -61.4360   YY=            -52.6644   ZZ=            -52.2882
   XY=             -6.8553   XZ=             -1.3697   YZ=             -0.1122

  Exact polarizability:  89.458  -4.692  90.110  -1.931   1.472  56.494
 Approx polarizability: 115.557  -5.989 143.621  -2.749   4.539  86.601

                      1                      2                      3
                      A                      A                      A
 Frequencies --     34.8186                69.8148               116.1342
 Red. masses --      2.4632                 2.6697                 5.1789
 Frc consts  --      0.0018                 0.0077                 0.0412
 IR Inten    --      5.9576                 0.4063                 0.2775

                      4                      5                      6
                      A                      A                      A
 Frequencies --    165.2859               217.2002               288.2619
 Red. masses --      2.5098                 1.2085                 2.2513
 Frc consts  --      0.0404                 0.0336                 0.1102
 IR Inten    --      1.3807                 0.6468                 1.1050

                      7                      8                      9
                      A                      A                      A
 Frequencies --    345.5208               421.6121               468.5241
 Red. masses --      2.4304                 2.8604                 5.4140
 Frc consts  --      0.1710                 0.2996                 0.7002
 IR Inten    --      0.2661                 0.5880                 3.0683

                     10                     11                     12
                      A                      A                      A
 Frequencies --    531.0254               544.4525               601.6943
 Red. masses --      3.3743                 4.5674                 3.9471
 Frc consts  --      0.5606                 0.7977                 0.8419
 IR Inten    --      2.7617                 5.2986                 7.7027

                     13                     14                     15
                      A                      A                      A
 Frequencies --    711.2550               782.9225               809.3349
 Red. masses --      4.1819                 1.2694                 2.7977
 Frc consts  --      1.2465                 0.4584                 1.0797
 IR Inten    --      1.8661                 4.3339                11.8391

                     16                     17                     18
                      A                      A                      A
 Frequencies --    835.1834               911.4155               960.7278
 Red. masses --      1.3060                 3.9418                 2.6623
 Frc consts  --      0.5367                 1.9292                 1.4478
 IR Inten    --     10.1707                 1.6352                 1.7191

                     19                     20                     21
                      A                      A                      A
 Frequencies --    967.5081               986.5055              1033.5374
 Red. masses --      1.9352                 2.2572                 1.8775
 Frc consts  --      1.0673                 1.2943                 1.1816
 IR Inten    --      1.3014                 5.9583                 9.8643

                     22                     23                     24
                      A                      A                      A
 Frequencies --   1072.6100              1098.1301              1122.9481
 Red. masses --      2.0885                 1.6172                 3.5402
 Frc consts  --      1.4157                 1.1490                 2.6303
 IR Inten    --      7.2399                14.3934                35.6742

                     25                     26                     27
                      A                      A                      A
 Frequencies --   1185.3575              1203.1525              1238.7993
 Red. masses --      1.8794                 1.5997                 2.5088
 Frc consts  --      1.5558                 1.3643                 2.2684
 IR Inten    --      4.3409                58.4663               162.8443

                     28                     29                     30
                      A                      A                      A
 Frequencies --   1258.6706              1277.2837              1315.5016
 Red. masses --      1.0760                 1.2350                 1.3829
 Frc consts  --      1.0044                 1.1871                 1.4101
 IR Inten    --      3.1181                 0.4080                 5.6989

                     31                     32                     33
                      A                      A                      A
 Frequencies --   1354.7344              1384.3210              1408.2330
 Red. masses --      1.5914                 1.9117                 1.2368
 Frc consts  --      1.7208                 2.1585                 1.4451
 IR Inten    --      5.1552                 2.1436                 1.4899

                     34                     35                     36
                      A                      A                      A
 Frequencies --   1428.8067              1453.6526              1480.1068
 Red. masses --      1.5365                 1.0856                 1.0730
 Frc consts  --      1.8481                 1.3516                 1.3849
 IR Inten    --     53.4434                 1.2140                 2.2669

                     37                     38                     39
                      A                      A                      A
 Frequencies --   1499.5335              1506.0187              1507.7802
 Red. masses --      1.0410                 1.0918                 1.0664
 Frc consts  --      1.3792                 1.4590                 1.4284
 IR Inten    --      4.6657                 5.7556                 3.0839

                     40                     41                     42
                      A                      A                      A
 Frequencies --   1759.5202              1842.7075              2994.6108
 Red. masses --      7.4718                12.4773                 1.0704
 Frc consts  --     13.6289                24.9623                 5.6555
 IR Inten    --      6.2288               348.8312                46.0104

                     43                     44                     45
                      A                      A                      A
 Frequencies --   3010.3941              3016.1961              3038.9884
 Red. masses --      1.0653                 1.0692                 1.0348
 Frc consts  --      5.6879                 5.7310                 5.6308
 IR Inten    --     23.7894                 6.2756                25.4175

                     46                     47                     48
                      A                      A                      A
 Frequencies --   3055.9938              3066.0521              3074.1977
 Red. masses --      1.0917                 1.0956                 1.0899
 Frc consts  --      6.0068                 6.0682                 6.0685
 IR Inten    --     25.0874                11.2701                 7.7042

                     49                     50                     51
                      A                      A                      A
 Frequencies --   3110.8850              3112.0114              3165.9016
 Red. masses --      1.1024                 1.1015                 1.0903
 Frc consts  --      6.2857                 6.2854                 6.4388
 IR Inten    --     32.3617                30.6663                10.9460

 - Thermochemistry -
 -------------------
 Temperature   298.150 Kelvin.  Pressure   1.00000 Atm.
 Atom     1 has atomic number  6 and mass  12.00000

 Molecular mass:   126.06808 amu.
 Principal axes and moments of inertia in atomic units:
                           1         2         3
     Eigenvalues --   620.225071603.194652091.36587
           X            0.99925  -0.03873   0.00111
           Y            0.03873   0.99924  -0.00526
           Z           -0.00090   0.00530   0.99999
 This molecule is an asymmetric top.
 Rotational symmetry number  1.
 Warning -- assumption of classical behavior for rotation
           may cause significant error
 Rotational temperatures (Kelvin)      0.13965     0.05403     0.04141
 Rotational constants (GHZ):           2.90982     1.12572     0.86295
 Zero-point vibrational energy     417770.9 (Joules/Mol)
                                   99.84963 (Kcal/Mol)
 Warning -- explicit consideration of  12 degrees of freedom as
           vibrations may cause significant error
 Vibrational temperatures:     50.10   100.45   167.09   237.81   312.50
          (Kelvin)            414.74   497.13   606.61   674.10   764.03
                              783.34   865.70  1023.34  1126.45  1164.45
                             1201.64  1311.32  1382.27  1392.03  1419.36
                             1487.03  1543.24  1579.96  1615.67  1705.46
                             1731.07  1782.35  1810.94  1837.72  1892.71
                             1949.16  1991.73  2026.13  2055.73  2091.48
                             2129.54  2157.49  2166.82  2169.36  2531.55
                             2651.24  4308.57  4331.28  4339.63  4372.42
                             4396.89  4411.36  4423.08  4475.86  4477.48
                             4555.02

 Zero-point correction=                           0.159121 (Hartree/Particle)
 Thermal correction to Energy=                    0.168126
 Thermal correction to Enthalpy=                  0.169071
 Thermal correction to Gibbs Free Energy=         0.124072
 Sum of electronic and zero-point Energies=           -423.077825
 Sum of electronic and thermal Energies=              -423.068819
 Sum of electronic and thermal Enthalpies=            -423.067875
 Sum of electronic and thermal Free Energies=         -423.112874

                     E (Thermal)             CV                S
                      KCal/Mol        Cal/Mol-Kelvin    Cal/Mol-Kelvin
 Total                  105.501             32.496             94.708
 Electronic               0.000              0.000              0.000
 Translational            0.889              2.981             40.409
 Rotational               0.889              2.981             29.121
 Vibrational            103.723             26.535             25.178
 Vibration     1          0.594              1.983              5.534
 Vibration     2          0.598              1.969              4.159
 Vibration     3          0.608              1.936              3.164
 Vibration     4          0.624              1.885              2.488
 Vibration     5          0.646              1.815              1.982
 Vibration     6          0.685              1.696              1.484
 Vibration     7          0.724              1.584              1.187
 Vibration     8          0.784              1.423              0.887
 Vibration     9          0.826              1.320              0.742
 Vibration    10          0.886              1.181              0.585
 Vibration    11          0.900              1.152              0.556
 Vibration    12          0.960              1.028              0.447

 Optimization completed.
    -- Stationary point found.
 Normal termination of Gaussian 09 at Tue Jan 28 13:21:13 2020.
