 Gaussian 09, Revision D.01,
 Gaussian 09:  ES64L-G09RevD.01 24-Apr-2013

 -----------------------------
 # b3lyp 6-31G(2df,p) opt Freq
 -----------------------------

 -----
 titel
 -----
 Symbolic Z-matrix:
 Charge =  0 Multiplicity = 1

 SCF Done:  E(RB3LYP) =  -423.182940399     A.U. after   14 cycles
 Optimization completed.
    -- Stationary point found.
 Normal termination of Gaussian 09 at Tue Jan 28 03:15:43 2020.

 ----------------------------------------------------------------------
 #N Geom=AllCheck Guess=TCheck SCRF=Check GenChk RB3LYP/6-31G(2df,p) Fr
 eq
 ----------------------------------------------------------------------

 Structure from the checkpoint file:  "/scratch/puck/g09_042335fc-2446-464d-88c7-9e0514ce6229/Gau-66707.chk"
 -----
 titel
 -----
 Charge =  0 Multiplicity = 1

                         Standard orientation:
 ---------------------------------------------------------------------
 Center     Atomic      Atomic             Coordinates (Angstroms)
 Number     Number       Type             X           Y           Z
 ---------------------------------------------------------------------
      1          6           0       -0.725463    2.069798    0.214305
      2          6           0       -0.868885    0.757534   -0.543815
      3          6           0       -2.173794   -0.104292   -0.366396
      4          6           0       -1.312959   -1.321853   -0.002712
      5          6           0       -0.483544   -1.012114    1.227200
      6          6           0       -0.065493   -0.470683   -0.100415
      7          8           0        1.151075   -0.867128   -0.695750
      8          6           0        2.257290   -0.203460   -0.311992
      9          8           0        2.309266    0.708887    0.463299
     10          1           0        0.280998    2.480005    0.100887
     11          1           0       -1.446580    2.807407   -0.154689
     12          1           0       -0.907383    1.934966    1.285299
     13          1           0       -0.694746    0.918726   -1.612734
     14          1           0       -2.855374    0.232904    0.421358
     15          1           0       -2.737009   -0.219098   -1.294453
     16          1           0       -1.472497   -2.339410   -0.335843
     17          1           0       -0.859408   -0.361835    2.012785
     18          1           0        0.125407   -1.838684    1.578420
     19          1           0        3.120952   -0.638633   -0.838477
 ---------------------------------------------------------------------

 SCF Done:  E(RB3LYP) =  -423.182940399     A.U. after    1 cycles

 The electronic state is 1-A.
 Alpha  occ. eigenvalues --  -19.19390 -19.13617 -10.31054 -10.24836 -10.19728
 Alpha  occ. eigenvalues --  -10.19619 -10.19243 -10.18919 -10.16881  -1.10905
 Alpha  occ. eigenvalues --   -1.02659  -0.90194  -0.76056  -0.70158  -0.67787
 Alpha  occ. eigenvalues --   -0.60960  -0.58241  -0.52659  -0.52382  -0.48741
 Alpha  occ. eigenvalues --   -0.47704  -0.44109  -0.43421  -0.43006  -0.41079
 Alpha  occ. eigenvalues --   -0.39043  -0.38228  -0.35675  -0.34304  -0.32823
 Alpha  occ. eigenvalues --   -0.31431  -0.28721  -0.27466  -0.26038
 Alpha virt. eigenvalues --    0.00484   0.08740   0.10393   0.11368   0.12654
 Alpha virt. eigenvalues --    0.13246   0.13764   0.15001   0.16803   0.17147
 Alpha virt. eigenvalues --    0.17876   0.18114   0.18889   0.20315   0.22283

 Mulliken charges:
               1
     1  C   -0.408501
     2  C   -0.044222
     3  C   -0.246479
     4  C   -0.147903
     5  C   -0.328220
     6  C    0.478490
     7  O   -0.255970
     8  C    0.148593
     9  O   -0.291815
    10  H    0.139127
    11  H    0.108728
    12  H    0.115416
    13  H    0.082678
    14  H    0.100179
    15  H    0.107162
    16  H    0.098986
    17  H    0.114814
    18  H    0.120060
    19  H    0.108879
 Sum of Mulliken charges =   0.00000

 Dipole moment (field-independent basis, Debye):
    X=             -1.1036    Y=             -1.1163    Z=             -0.8665  Tot=              1.7929
 Quadrupole moment (field-independent basis, Debye-Ang):
   XX=            -52.9374   YY=            -53.4007   ZZ=            -52.7362
   XY=             -3.5235   XZ=             -2.3318   YZ=             -1.7492

  Exact polarizability:  85.207   0.932  75.294   0.599   1.291  66.415
 Approx polarizability: 114.194   4.869 109.551   1.966   7.660 105.633

                      1                      2                      3
                      A                      A                      A
 Frequencies --     50.6325               126.0344               185.6288
 Red. masses --      6.4323                 3.4317                 3.4823
 Frc consts  --      0.0097                 0.0321                 0.0707
 IR Inten    --      1.3704                 1.1161                 3.9566

                      4                      5                      6
                      A                      A                      A
 Frequencies --    211.8672               229.3027               258.4711
 Red. masses --      1.4333                 1.5528                 3.1896
 Frc consts  --      0.0379                 0.0481                 0.1256
 IR Inten    --      1.8212                 4.8271                 2.3317

                      7                      8                      9
                      A                      A                      A
 Frequencies --    349.1256               387.8045               467.5632
 Red. masses --      2.6166                 2.3206                 2.7688
 Frc consts  --      0.1879                 0.2056                 0.3566
 IR Inten    --      2.1033                 4.4225                11.2262

                     10                     11                     12
                      A                      A                      A
 Frequencies --    492.4301               605.6335               669.3613
 Red. masses --      2.7076                 4.0938                 3.4179
 Frc consts  --      0.3868                 0.8847                 0.9022
 IR Inten    --      2.1029                 1.8965                 1.6951

                     13                     14                     15
                      A                      A                      A
 Frequencies --    781.0523               815.6769               846.0342
 Red. masses --      3.8928                 2.0921                 2.0829
 Frc consts  --      1.3992                 0.8201                 0.8784
 IR Inten    --     10.9306                 2.7138                 3.9057

                     16                     17                     18
                      A                      A                      A
 Frequencies --    873.6632               928.9821               959.4914
 Red. masses --      1.8274                 1.5730                 2.4753
 Frc consts  --      0.8218                 0.7998                 1.3426
 IR Inten    --      1.0992                 4.3036                 9.7517

                     19                     20                     21
                      A                      A                      A
 Frequencies --    973.5503              1016.5658              1026.2286
 Red. masses --      1.4079                 1.6673                 1.2923
 Frc consts  --      0.7862                 1.0152                 0.8018
 IR Inten    --      6.4057                 1.0890                 2.6511

                     22                     23                     24
                      A                      A                      A
 Frequencies --   1044.3480              1078.3627              1090.9864
 Red. masses --      1.6495                 1.5208                 2.1778
 Frc consts  --      1.0600                 1.0420                 1.5272
 IR Inten    --      0.5768                 2.7834                 7.2267

                     25                     26                     27
                      A                      A                      A
 Frequencies --   1111.8228              1144.5903              1167.0233
 Red. masses --      1.7532                 2.2009                 2.1682
 Frc consts  --      1.2769                 1.6988                 1.7398
 IR Inten    --      0.5582                 2.4543                37.9124

                     28                     29                     30
                      A                      A                      A
 Frequencies --   1189.7991              1228.6729              1232.1908
 Red. masses --      3.1619                 2.2267                 1.5559
 Frc consts  --      2.6372                 1.9805                 1.3919
 IR Inten    --    239.8640                99.9385                14.7427

                     31                     32                     33
                      A                      A                      A
 Frequencies --   1247.9536              1293.5994              1364.8220
 Red. masses --      1.5838                 1.7844                 2.2052
 Frc consts  --      1.4533                 1.7593                 2.4202
 IR Inten    --     18.9015                10.2324                 6.7875

                     34                     35                     36
                      A                      A                      A
 Frequencies --   1381.2003              1410.8302              1417.1904
 Red. masses --      1.5060                 1.2021                 1.2949
 Frc consts  --      1.6927                 1.4098                 1.5322
 IR Inten    --     32.7519                 2.2400                12.1178

                     37                     38                     39
                      A                      A                      A
 Frequencies --   1479.9144              1492.6062              1497.7080
 Red. masses --      1.1906                 1.0646                 1.0504
 Frc consts  --      1.5363                 1.3974                 1.3882
 IR Inten    --      2.2088                 4.3077                 3.8012

                     40                     41                     42
                      A                      A                      A
 Frequencies --   1504.1167              1826.1542              3029.1938
 Red. masses --      1.2362                 9.6837                 1.0906
 Frc consts  --      1.6479                19.0267                 5.8960
 IR Inten    --     15.9895               233.7339                78.9615

                     43                     44                     45
                      A                      A                      A
 Frequencies --   3036.6518              3050.0192              3052.0394
 Red. masses --      1.0375                 1.0614                 1.0854
 Frc consts  --      5.6368                 5.8176                 5.9567
 IR Inten    --     17.1413                45.7679                10.2133

                     46                     47                     48
                      A                      A                      A
 Frequencies --   3099.8118              3112.9249              3116.0839
 Red. masses --      1.0999                 1.1033                 1.0574
 Frc consts  --      6.2269                 6.2992                 6.0491
 IR Inten    --     22.8008                25.0362                16.1326

                     49                     50                     51
                      A                      A                      A
 Frequencies --   3124.8587              3194.6235              3209.5373
 Red. masses --      1.0997                 1.0958                 1.1115
 Frc consts  --      6.3270                 6.5893                 6.7459
 IR Inten    --     17.1576                 9.2559                10.2553

 - Thermochemistry -
 -------------------
 Temperature   298.150 Kelvin.  Pressure   1.00000 Atm.
 Atom     1 has atomic number  6 and mass  12.00000

 Molecular mass:   126.06808 amu.
 Principal axes and moments of inertia in atomic units:
                           1         2         3
     Eigenvalues --   688.779921231.371281564.29657
           X            0.99956  -0.02924  -0.00455
           Y            0.02918   0.99951  -0.01120
           Z            0.00488   0.01106   0.99993
 This molecule is an asymmetric top.
 Rotational symmetry number  1.
 Warning -- assumption of classical behavior for rotation
           may cause significant error
 Rotational temperatures (Kelvin)      0.12575     0.07034     0.05537
 Rotational constants (GHZ):           2.62020     1.46564     1.15371
 Zero-point vibrational energy     415611.0 (Joules/Mol)
                                   99.33342 (Kcal/Mol)
 Warning -- explicit consideration of  11 degrees of freedom as
           vibrations may cause significant error
 Vibrational temperatures:     72.85   181.34   267.08   304.83   329.92
          (Kelvin)            371.88   502.31   557.96   672.72   708.50
                              871.37   963.06  1123.76  1173.58  1217.25
                             1257.00  1336.60  1380.49  1400.72  1462.61
                             1476.51  1502.58  1551.52  1569.68  1599.66
                             1646.81  1679.08  1711.85  1767.78  1772.85
                             1795.52  1861.20  1963.67  1987.24  2029.87
                             2039.02  2129.26  2147.52  2154.87  2164.09
                             2627.43  4358.33  4369.06  4388.29  4391.20
                             4459.93  4478.80  4483.34  4495.97  4596.34
                             4617.80

 Zero-point correction=                           0.158298 (Hartree/Particle)
 Thermal correction to Energy=                    0.166968
 Thermal correction to Enthalpy=                  0.167912
 Thermal correction to Gibbs Free Energy=         0.124651
 Sum of electronic and zero-point Energies=           -423.024643
 Sum of electronic and thermal Energies=              -423.015972
 Sum of electronic and thermal Enthalpies=            -423.015028
 Sum of electronic and thermal Free Energies=         -423.058289

                     E (Thermal)             CV                S
                      KCal/Mol        Cal/Mol-Kelvin    Cal/Mol-Kelvin
 Total                  104.774             32.422             91.051
 Electronic               0.000              0.000              0.000
 Translational            0.889              2.981             40.409
 Rotational               0.889              2.981             28.675
 Vibrational            102.997             26.460             21.968
 Vibration     1          0.595              1.977              4.793
 Vibration     2          0.611              1.927              3.006
 Vibration     3          0.632              1.859              2.271
 Vibration     4          0.643              1.823              2.028
 Vibration     5          0.652              1.796              1.884
 Vibration     6          0.667              1.748              1.672
 Vibration     7          0.726              1.577              1.170
 Vibration     8          0.756              1.496              1.009
 Vibration     9          0.825              1.322              0.744
 Vibration    10          0.848              1.267              0.677
 Vibration    11          0.964              1.020              0.440

 Optimization completed.
    -- Stationary point found.
 Normal termination of Gaussian 09 at Tue Jan 28 04:15:28 2020.
