 Gaussian 09, Revision D.01,
 Gaussian 09:  ES64L-G09RevD.01 24-Apr-2013

 -----------------------------
 # b3lyp 6-31G(2df,p) opt Freq
 -----------------------------

 -----
 titel
 -----
 Symbolic Z-matrix:
 Charge =  0 Multiplicity = 1

 SCF Done:  E(RB3LYP) =  -423.152395928     A.U. after   14 cycles
 Optimization completed.
    -- Stationary point found.
 Normal termination of Gaussian 09 at Tue Jan 28 14:08:44 2020.

 ----------------------------------------------------------------------
 #N Geom=AllCheck Guess=TCheck SCRF=Check GenChk RB3LYP/6-31G(2df,p) Fr
 eq
 ----------------------------------------------------------------------

 Structure from the checkpoint file:  "/scratch/puck/g09_d2be71dc-d656-4c87-89c3-cb3a5ca2e49c/Gau-91404.chk"
 -----
 titel
 -----
 Charge =  0 Multiplicity = 1

                         Standard orientation:
 ---------------------------------------------------------------------
 Center     Atomic      Atomic             Coordinates (Angstroms)
 Number     Number       Type             X           Y           Z
 ---------------------------------------------------------------------
      1          6           0       -3.173558    0.414284   -0.251271
      2          8           0       -2.232404   -0.590573    0.073659
      3          6           0       -0.940730   -0.270560   -0.312862
      4          6           0        0.174475   -0.889049    0.467013
      5          8           0        1.296915   -1.293564   -0.261311
      6          6           0        2.452716   -0.477691   -0.103634
      7          6           0        2.167272    0.997878   -0.230594
      8          6           0        0.973207    1.491696    0.094766
      9          6           0       -0.081343    0.593294    0.616727
     10          1           0       -3.222363    0.585597   -1.336882
     11          1           0       -4.148535    0.066626    0.097500
     12          1           0       -2.932709    1.368410    0.239321
     13          1           0       -0.773971   -0.152457   -1.384523
     14          1           0       -0.097920   -1.549419    1.288277
     15          1           0        2.941665   -0.684261    0.864164
     16          1           0        3.145568   -0.804864   -0.885480
     17          1           0        2.971204    1.634069   -0.588374
     18          1           0        0.752810    2.551110   -0.004087
     19          1           0       -0.584060    0.899172    1.530427
 ---------------------------------------------------------------------

 SCF Done:  E(RB3LYP) =  -423.152395928     A.U. after    1 cycles

 The electronic state is 1-A.
 Alpha  occ. eigenvalues --  -19.14799 -19.14128 -10.23260 -10.23199 -10.23041
 Alpha  occ. eigenvalues --  -10.22634 -10.19179 -10.18725 -10.18329  -1.04693
 Alpha  occ. eigenvalues --   -1.03333  -0.84851  -0.78782  -0.70127  -0.66843
 Alpha  occ. eigenvalues --   -0.62453  -0.58598  -0.52454  -0.50999  -0.49431
 Alpha  occ. eigenvalues --   -0.48674  -0.45176  -0.44890  -0.43214  -0.41732
 Alpha  occ. eigenvalues --   -0.39862  -0.37604  -0.35825  -0.35199  -0.31968
 Alpha  occ. eigenvalues --   -0.27783  -0.27019  -0.25265  -0.22393
 Alpha virt. eigenvalues --    0.01214   0.09230   0.10133   0.11728   0.12553
 Alpha virt. eigenvalues --    0.13464   0.15047   0.15559   0.15981   0.17003
 Alpha virt. eigenvalues --    0.17397   0.18103   0.18835   0.19334   0.23184

 Mulliken charges:
               1
     1  C   -0.232709
     2  O   -0.236871
     3  C    0.072117
     4  C    0.038706
     5  O   -0.264473
     6  C   -0.115673
     7  C   -0.081072
     8  C   -0.081680
     9  C   -0.150278
    10  H    0.109844
    11  H    0.128727
    12  H    0.107280
    13  H    0.095591
    14  H    0.100414
    15  H    0.104552
    16  H    0.116508
    17  H    0.095127
    18  H    0.092144
    19  H    0.101747
 Sum of Mulliken charges =   0.00000

 Dipole moment (field-independent basis, Debye):
    X=              0.1040    Y=              1.9768    Z=              0.2025  Tot=              1.9898
 Quadrupole moment (field-independent basis, Debye-Ang):
   XX=            -47.2796   YY=            -55.0967   ZZ=            -52.6018
   XY=             -1.6521   XZ=              0.3359   YZ=             -1.1788

  Exact polarizability: 105.405  -2.252  71.018  -3.740  -1.270  59.711
 Approx polarizability: 140.364  -5.510 107.749  -7.823   0.988  92.325

                      1                      2                      3
                      A                      A                      A
 Frequencies --     90.7586               120.6881               169.1397
 Red. masses --      2.8418                 3.0703                 1.8979
 Frc consts  --      0.0138                 0.0263                 0.0320
 IR Inten    --      2.2418                 1.0241                 0.2296

                      4                      5                      6
                      A                      A                      A
 Frequencies --    192.5619               219.7433               317.1063
 Red. masses --      1.5800                 2.0646                 4.4907
 Frc consts  --      0.0345                 0.0587                 0.2661
 IR Inten    --      0.3978                 2.1289                 5.6292

                      7                      8                      9
                      A                      A                      A
 Frequencies --    373.0926               442.2919               484.3152
 Red. masses --      4.5619                 2.4317                 3.3078
 Frc consts  --      0.3741                 0.2803                 0.4571
 IR Inten    --      5.0808                 3.9603                 3.5373

                     10                     11                     12
                      A                      A                      A
 Frequencies --    513.5111               577.6432               698.9391
 Red. masses --      4.6520                 5.0430                 1.3821
 Frc consts  --      0.7227                 0.9914                 0.3978
 IR Inten    --      8.0118                 0.3398                31.1522

                     13                     14                     15
                      A                      A                      A
 Frequencies --    812.2590               868.1870               914.5031
 Red. masses --      3.3740                 2.6822                 3.4178
 Frc consts  --      1.3115                 1.1912                 1.6841
 IR Inten    --      4.0693                 4.8847                 0.6137

                     16                     17                     18
                      A                      A                      A
 Frequencies --    927.5008               942.0716               975.6249
 Red. masses --      3.1896                 2.9414                 1.6546
 Frc consts  --      1.6167                 1.5380                 0.9279
 IR Inten    --     15.0993                17.8678                 7.2451

                     19                     20                     21
                      A                      A                      A
 Frequencies --    991.0350              1036.4991              1045.1491
 Red. masses --      1.7468                 2.1695                 1.9058
 Frc consts  --      1.0108                 1.3732                 1.2266
 IR Inten    --      4.9166                 8.9220                14.2540

                     22                     23                     24
                      A                      A                      A
 Frequencies --   1076.0858              1080.4850              1096.0654
 Red. masses --      1.7262                 2.0711                 1.5069
 Frc consts  --      1.1777                 1.4246                 1.0666
 IR Inten    --      4.4850                30.8781                 3.2477

                     25                     26                     27
                      A                      A                      A
 Frequencies --   1153.1577              1166.9380              1183.3486
 Red. masses --      2.3119                 1.9212                 1.2960
 Frc consts  --      1.8113                 1.5414                 1.0692
 IR Inten    --    129.8906                48.3367                 3.5571

                     28                     29                     30
                      A                      A                      A
 Frequencies --   1198.0775              1228.6473              1241.3210
 Red. masses --      1.4547                 1.8056                 2.0633
 Frc consts  --      1.2303                 1.6059                 1.8732
 IR Inten    --     28.3404                21.5038               105.1481

                     31                     32                     33
                      A                      A                      A
 Frequencies --   1266.5915              1313.1409              1325.4446
 Red. masses --      1.1392                 1.2885                 1.2751
 Frc consts  --      1.0768                 1.3090                 1.3198
 IR Inten    --      4.6145                12.9559                 0.2795

                     34                     35                     36
                      A                      A                      A
 Frequencies --   1390.8287              1413.5064              1439.9310
 Red. masses --      1.4499                 1.7153                 1.9545
 Frc consts  --      1.6525                 2.0192                 2.3877
 IR Inten    --     15.3459                 5.1480                23.3839

                     37                     38                     39
                      A                      A                      A
 Frequencies --   1485.2341              1487.4594              1493.9113
 Red. masses --      1.1055                 1.1705                 1.1285
 Frc consts  --      1.4368                 1.5258                 1.4839
 IR Inten    --      3.2623                 4.6142                 1.9272

                     40                     41                     42
                      A                      A                      A
 Frequencies --   1507.8009              1709.6970              2956.3885
 Red. masses --      1.0792                 6.6704                 1.0723
 Frc consts  --      1.4455                11.4878                 5.5217
 IR Inten    --      6.1799                 5.0789                62.9572

                     43                     44                     45
                      A                      A                      A
 Frequencies --   2985.2925              3036.2719              3070.6451
 Red. masses --      1.0356                 1.1034                 1.0886
 Frc consts  --      5.4378                 5.9935                 6.0475
 IR Inten    --     54.9142                50.2232                31.6726

                     46                     47                     48
                      A                      A                      A
 Frequencies --   3099.3665              3120.7651              3121.3794
 Red. masses --      1.0881                 1.0959                 1.0899
 Frc consts  --      6.1585                 6.2882                 6.2567
 IR Inten    --     14.0631                14.2500                41.0108

                     49                     50                     51
                      A                      A                      A
 Frequencies --   3146.0131              3157.4137              3182.3681
 Red. masses --      1.0866                 1.0852                 1.0978
 Frc consts  --      6.3362                 6.3741                 6.5507
 IR Inten    --     14.0365                 9.9831                22.2955

 - Thermochemistry -
 -------------------
 Temperature   298.150 Kelvin.  Pressure   1.00000 Atm.
 Atom     1 has atomic number  6 and mass  12.00000

 Molecular mass:   126.06808 amu.
 Principal axes and moments of inertia in atomic units:
                           1         2         3
     Eigenvalues --   453.404341660.316361964.77562
           X            0.99992  -0.01244   0.00315
           Y            0.01250   0.99972  -0.02007
           Z           -0.00290   0.02011   0.99979
 This molecule is an asymmetric top.
 Rotational symmetry number  1.
 Warning -- assumption of classical behavior for rotation
           may cause significant error
 Rotational temperatures (Kelvin)      0.19103     0.05217     0.04408
 Rotational constants (GHZ):           3.98042     1.08699     0.91855
 Zero-point vibrational energy     417773.0 (Joules/Mol)
                                   99.85015 (Kcal/Mol)
 Warning -- explicit consideration of  11 degrees of freedom as
           vibrations may cause significant error
 Vibrational temperatures:    130.58   173.64   243.35   277.05   316.16
          (Kelvin)            456.24   536.80   636.36   696.82   738.83
                              831.10  1005.62  1168.66  1249.13  1315.76
                             1334.47  1355.43  1403.70  1425.88  1491.29
                             1503.73  1548.25  1554.57  1576.99  1659.13
                             1678.96  1702.57  1723.76  1767.75  1785.98
                             1822.34  1889.31  1907.02  2001.09  2033.72
                             2071.74  2136.92  2140.12  2149.40  2169.39
                             2459.87  4253.58  4295.16  4368.51  4417.97
                             4459.29  4490.08  4490.96  4526.41  4542.81
                             4578.71

 Zero-point correction=                           0.159121 (Hartree/Particle)
 Thermal correction to Energy=                    0.167541
 Thermal correction to Enthalpy=                  0.168485
 Thermal correction to Gibbs Free Energy=         0.125915
 Sum of electronic and zero-point Energies=           -422.993275
 Sum of electronic and thermal Energies=              -422.984855
 Sum of electronic and thermal Enthalpies=            -422.983911
 Sum of electronic and thermal Free Energies=         -423.026481

                     E (Thermal)             CV                S
                      KCal/Mol        Cal/Mol-Kelvin    Cal/Mol-Kelvin
 Total                  105.133             31.603             89.596
 Electronic               0.000              0.000              0.000
 Translational            0.889              2.981             40.409
 Rotational               0.889              2.981             28.783
 Vibrational            103.356             25.641             20.405
 Vibration     1          0.602              1.956              3.644
 Vibration     2          0.609              1.932              3.089
 Vibration     3          0.625              1.880              2.445
 Vibration     4          0.635              1.850              2.203
 Vibration     5          0.647              1.811              1.961
 Vibration     6          0.704              1.641              1.325
 Vibration     7          0.745              1.527              1.067
 Vibration     8          0.802              1.378              0.819
 Vibration     9          0.840              1.285              0.699
 Vibration    10          0.869              1.220              0.625
 Vibration    11          0.934              1.080              0.490

 Optimization completed.
    -- Stationary point found.
 Normal termination of Gaussian 09 at Tue Jan 28 14:52:23 2020.
