 Gaussian 09, Revision D.01,
 Gaussian 09:  ES64L-G09RevD.01 24-Apr-2013

 -----------------------------
 # b3lyp 6-31G(2df,p) opt Freq
 -----------------------------

 -----
 titel
 -----
 Symbolic Z-matrix:
 Charge =  0 Multiplicity = 1

 SCF Done:  E(RB3LYP) =  -423.192475632     A.U. after   14 cycles
 Optimization completed.
    -- Stationary point found.
 Normal termination of Gaussian 09 at Mon Jan 27 13:18:28 2020.

 ----------------------------------------------------------------------
 #N Geom=AllCheck Guess=TCheck SCRF=Check GenChk RB3LYP/6-31G(2df,p) Fr
 eq
 ----------------------------------------------------------------------

 Structure from the checkpoint file:  "/scratch/puck/g09_2f0b540c-b516-4611-a92a-a7c8ace1d9b5/Gau-75723.chk"
 -----
 titel
 -----
 Charge =  0 Multiplicity = 1

                         Standard orientation:
 ---------------------------------------------------------------------
 Center     Atomic      Atomic             Coordinates (Angstroms)
 Number     Number       Type             X           Y           Z
 ---------------------------------------------------------------------
      1          8           0        2.902416   -0.571635   -0.511379
      2          6           0        2.365189    0.008218    0.398906
      3          6           0        0.880642    0.071380    0.632627
      4          6           0        0.257686    1.473809    0.293107
      5          6           0       -0.674645    0.783134   -0.746897
      6          8           0       -2.039141    0.699957   -0.384384
      7          6           0       -2.202383   -0.394030    0.514423
      8          6           0       -1.183177   -1.452813    0.062947
      9          6           0       -0.015940   -0.598835   -0.441053
     10          1           0        2.966877    0.585925    1.139113
     11          1           0        0.684826   -0.238944    1.666061
     12          1           0       -0.272927    1.963941    1.111494
     13          1           0        0.964579    2.184103   -0.144408
     14          1           0       -0.623808    1.182156   -1.761853
     15          1           0       -2.009148   -0.079274    1.552777
     16          1           0       -3.242644   -0.723626    0.452136
     17          1           0       -0.903192   -2.139343    0.867183
     18          1           0       -1.595794   -2.043755   -0.760360
     19          1           0        0.560795   -1.062937   -1.240399
 ---------------------------------------------------------------------

 SCF Done:  E(RB3LYP) =  -423.192475632     A.U. after    1 cycles

 The electronic state is 1-A.
 Alpha  occ. eigenvalues --  -19.14256 -19.14080 -10.27262 -10.23287 -10.23042
 Alpha  occ. eigenvalues --  -10.20185 -10.19446 -10.18989 -10.18937  -1.04897
 Alpha  occ. eigenvalues --   -1.03941  -0.84717  -0.76762  -0.70754  -0.66650
 Alpha  occ. eigenvalues --   -0.60844  -0.57472  -0.53957  -0.51937  -0.48201
 Alpha  occ. eigenvalues --   -0.47063  -0.46097  -0.43961  -0.42541  -0.41300
 Alpha  occ. eigenvalues --   -0.39191  -0.37334  -0.36112  -0.34643  -0.33887
 Alpha  occ. eigenvalues --   -0.31096  -0.29779  -0.25785  -0.24803
 Alpha virt. eigenvalues --   -0.02353   0.07550   0.08249   0.11633   0.12119
 Alpha virt. eigenvalues --    0.13050   0.13448   0.14217   0.15210   0.16097
 Alpha virt. eigenvalues --    0.17433   0.18714   0.19544   0.20757   0.21670

 Mulliken charges:
               1
     1  O   -0.242581
     2  C    0.136975
     3  C   -0.100113
     4  C   -0.277459
     5  C    0.121083
     6  O   -0.256290
     7  C   -0.087814
     8  C   -0.243788
     9  C   -0.047396
    10  H    0.076380
    11  H    0.088658
    12  H    0.117218
    13  H    0.112190
    14  H    0.086112
    15  H    0.089693
    16  H    0.112578
    17  H    0.103466
    18  H    0.112573
    19  H    0.098514
 Sum of Mulliken charges =   0.00000

 Dipole moment (field-independent basis, Debye):
    X=             -0.8292    Y=              0.1001    Z=              1.8660  Tot=              2.0444
 Quadrupole moment (field-independent basis, Debye-Ang):
   XX=            -61.9384   YY=            -52.7523   ZZ=            -51.4408
   XY=              6.3942   XZ=              2.3603   YZ=             -0.6786

  Exact polarizability:  86.709   3.180  71.267  -0.956   2.590  68.075
 Approx polarizability: 115.498  -2.357 105.362  -4.912   5.707 109.444

                      1                      2                      3
                      A                      A                      A
 Frequencies --     54.9120                96.2625               176.6524
 Red. masses --      4.6454                 2.9075                 3.5949
 Frc consts  --      0.0083                 0.0159                 0.0661
 IR Inten    --      3.6899                 3.7620                 5.1893

                      4                      5                      6
                      A                      A                      A
 Frequencies --    213.8022               246.2246               361.9273
 Red. masses --      3.0621                 2.4227                 2.4741
 Frc consts  --      0.0825                 0.0865                 0.1909
 IR Inten    --      5.1744                 0.6202                 1.5344

                      7                      8                      9
                      A                      A                      A
 Frequencies --    424.0641               598.0453               638.2131
 Red. masses --      2.1234                 4.4063                 3.3524
 Frc consts  --      0.2250                 0.9285                 0.8045
 IR Inten    --      2.8272                13.3126                 3.1983

                     10                     11                     12
                      A                      A                      A
 Frequencies --    657.6097               761.0369               773.1544
 Red. masses --      3.0998                 3.1030                 2.0509
 Frc consts  --      0.7898                 1.0589                 0.7223
 IR Inten    --      7.3361                 9.9004                 3.1223

                     13                     14                     15
                      A                      A                      A
 Frequencies --    859.1994               883.2778               888.7177
 Red. masses --      2.0630                 2.3422                 2.6470
 Frc consts  --      0.8973                 1.0766                 1.2318
 IR Inten    --      1.8612                 4.9023                 2.6860

                     16                     17                     18
                      A                      A                      A
 Frequencies --    917.8006               930.8275               970.5276
 Red. masses --      1.7245                 2.1804                 2.4792
 Frc consts  --      0.8559                 1.1131                 1.3759
 IR Inten    --     11.7150                 8.8782                 2.5979

                     19                     20                     21
                      A                      A                      A
 Frequencies --    976.4483              1008.0022              1043.5968
 Red. masses --      2.3475                 1.7841                 2.0121
 Frc consts  --      1.3187                 1.0680                 1.2911
 IR Inten    --     11.2570                 9.2160                 3.1523

                     22                     23                     24
                      A                      A                      A
 Frequencies --   1061.4898              1110.2558              1133.0232
 Red. masses --      2.2529                 2.1442                 2.9083
 Frc consts  --      1.4956                 1.5573                 2.1997
 IR Inten    --     39.8128                12.5737                57.0561

                     25                     26                     27
                      A                      A                      A
 Frequencies --   1150.5841              1186.4413              1214.3477
 Red. masses --      1.9447                 1.4155                 1.3361
 Frc consts  --      1.5169                 1.1740                 1.1608
 IR Inten    --     27.4944                 9.2727                 1.1951

                     28                     29                     30
                      A                      A                      A
 Frequencies --   1230.6894              1237.6563              1254.1580
 Red. masses --      1.4318                 1.3532                 1.4536
 Frc consts  --      1.2777                 1.2213                 1.3471
 IR Inten    --      5.6361                 0.7243                 5.4973

                     31                     32                     33
                      A                      A                      A
 Frequencies --   1270.5283              1283.2098              1325.0219
 Red. masses --      1.4840                 1.3534                 1.3678
 Frc consts  --      1.4114                 1.3130                 1.4149
 IR Inten    --      4.5759                 6.6560                 1.5044

                     34                     35                     36
                      A                      A                      A
 Frequencies --   1349.0071              1367.8907              1394.1937
 Red. masses --      1.3536                 1.6072                 1.3818
 Frc consts  --      1.4514                 1.7719                 1.5824
 IR Inten    --      2.3244                17.1877                 6.6798

                     37                     38                     39
                      A                      A                      A
 Frequencies --   1421.5369              1470.3225              1485.0033
 Red. masses --      1.2017                 1.1029                 1.0955
 Frc consts  --      1.4308                 1.4048                 1.4234
 IR Inten    --     11.3791                 3.4307                 2.6814

                     40                     41                     42
                      A                      A                      A
 Frequencies --   1522.5802              1821.4407              2859.4131
 Red. masses --      1.0921                10.3598                 1.0822
 Frc consts  --      1.4916                20.2503                 5.2134
 IR Inten    --      1.0269               162.8926               135.7993

                     43                     44                     45
                      A                      A                      A
 Frequencies --   2972.5467              3037.1375              3054.1455
 Red. masses --      1.0723                 1.0840                 1.0604
 Frc consts  --      5.5822                 5.8912                 5.8275
 IR Inten    --     54.2373                17.4423                22.8519

                     46                     47                     48
                      A                      A                      A
 Frequencies --   3061.5259              3088.5353              3093.1932
 Red. masses --      1.0605                 1.0883                 1.0920
 Frc consts  --      5.8563                 6.1163                 6.1556
 IR Inten    --     20.7619                44.7816                22.6412

                     49                     50                     51
                      A                      A                      A
 Frequencies --   3103.7356              3124.5338              3125.2048
 Red. masses --      1.1047                 1.1006                 1.0937
 Frc consts  --      6.2698                 6.3307                 6.2936
 IR Inten    --     26.1500                 6.6168                21.4235

 - Thermochemistry -
 -------------------
 Temperature   298.150 Kelvin.  Pressure   1.00000 Atm.
 Atom     1 has atomic number  8 and mass  15.99491

 Molecular mass:   126.06808 amu.
 Principal axes and moments of inertia in atomic units:
                           1         2         3
     Eigenvalues --   497.237141531.208751739.21474
           X            0.99947   0.03258   0.00098
           Y           -0.03259   0.99941   0.01054
           Z           -0.00064  -0.01057   0.99994
 This molecule is an asymmetric top.
 Rotational symmetry number  1.
 Warning -- assumption of classical behavior for rotation
           may cause significant error
 Rotational temperatures (Kelvin)      0.17419     0.05657     0.04980
 Rotational constants (GHZ):           3.62954     1.17864     1.03768
 Zero-point vibrational energy     420425.5 (Joules/Mol)
                                  100.48410 (Kcal/Mol)
 Warning -- explicit consideration of   8 degrees of freedom as
           vibrations may cause significant error
 Vibrational temperatures:     79.01   138.50   254.16   307.61   354.26
          (Kelvin)            520.73   610.13   860.45   918.25   946.15
                             1094.96  1112.40  1236.19  1270.84  1278.66
                             1320.51  1339.25  1396.37  1404.89  1450.29
                             1501.50  1527.25  1597.41  1630.17  1655.43
                             1707.02  1747.17  1770.69  1780.71  1804.45
                             1828.00  1846.25  1906.41  1940.92  1968.09
                             2005.93  2045.27  2115.46  2136.59  2190.65
                             2620.64  4114.05  4276.83  4369.76  4394.23
                             4404.85  4443.71  4450.41  4465.58  4495.50
                             4496.47

 Zero-point correction=                           0.160132 (Hartree/Particle)
 Thermal correction to Energy=                    0.168083
 Thermal correction to Enthalpy=                  0.169027
 Thermal correction to Gibbs Free Energy=         0.126855
 Sum of electronic and zero-point Energies=           -423.032344
 Sum of electronic and thermal Energies=              -423.024393
 Sum of electronic and thermal Enthalpies=            -423.023449
 Sum of electronic and thermal Free Energies=         -423.065620

                     E (Thermal)             CV                S
                      KCal/Mol        Cal/Mol-Kelvin    Cal/Mol-Kelvin
 Total                  105.473             29.868             88.757
 Electronic               0.000              0.000              0.000
 Translational            0.889              2.981             40.409
 Rotational               0.889              2.981             28.673
 Vibrational            103.696             23.906             19.676
 Vibration     1          0.596              1.976              4.632
 Vibration     2          0.603              1.952              3.529
 Vibration     3          0.628              1.871              2.364
 Vibration     4          0.644              1.820              2.011
 Vibration     5          0.661              1.769              1.757
 Vibration     6          0.736              1.551              1.114
 Vibration     7          0.786              1.418              0.878
 Vibration     8          0.956              1.036              0.453

 Normal termination of Gaussian 09 at Mon Jan 27 14:05:17 2020.
