 Gaussian 09, Revision D.01,
 Gaussian 09:  ES64L-G09RevD.01 24-Apr-2013

 -----------------------------
 # b3lyp 6-31G(2df,p) opt Freq
 -----------------------------

 -----
 titel
 -----
 Symbolic Z-matrix:
 Charge =  0 Multiplicity = 1

 SCF Done:  E(RB3LYP) =  -423.170263753     A.U. after   14 cycles
 Optimization completed.
    -- Stationary point found.
 Normal termination of Gaussian 09 at Tue Jan 28 13:30:06 2020.

 ----------------------------------------------------------------------
 #N Geom=AllCheck Guess=TCheck SCRF=Check GenChk RB3LYP/6-31G(2df,p) Fr
 eq
 ----------------------------------------------------------------------

 Structure from the checkpoint file:  "/scratch/puck/g09_327a7266-288e-415d-b3f8-cd0ef335803a/Gau-31208.chk"
 -----
 titel
 -----
 Charge =  0 Multiplicity = 1

                         Standard orientation:
 ---------------------------------------------------------------------
 Center     Atomic      Atomic             Coordinates (Angstroms)
 Number     Number       Type             X           Y           Z
 ---------------------------------------------------------------------
      1          6           0       -3.248741   -0.563933    0.142432
      2          6           0       -2.029958    0.292434    0.497090
      3          6           0       -0.889734    0.165955   -0.517141
      4          6           0       -0.030070   -1.145366   -0.497026
      5          6           0        1.192365   -0.324086   -0.053794
      6          6           0        2.258626   -0.628245    0.916089
      7          8           0        2.528958   -0.507248   -0.477222
      8          6           0        0.389437    0.965947   -0.174159
      9          8           0        0.640109    2.128476   -0.043935
     10          1           0       -4.037763   -0.454181    0.892709
     11          1           0       -3.665167   -0.272573   -0.827861
     12          1           0       -2.988481   -1.626294    0.085624
     13          1           0       -2.318393    1.348161    0.559363
     14          1           0       -1.659812    0.015998    1.493164
     15          1           0       -1.252875    0.421536   -1.519488
     16          1           0       -0.359593   -1.904070    0.216845
     17          1           0        0.101787   -1.608913   -1.476619
     18          1           0        2.654095    0.170706    1.541049
     19          1           0        2.322124   -1.636431    1.323526
 ---------------------------------------------------------------------

 SCF Done:  E(RB3LYP) =  -423.170263753     A.U. after    1 cycles

 The electronic state is 1-A.
 Alpha  occ. eigenvalues --  -19.16988 -19.14386 -10.26972 -10.25097 -10.24906
 Alpha  occ. eigenvalues --  -10.20165 -10.19842 -10.19642 -10.18393  -1.09132
 Alpha  occ. eigenvalues --   -1.04972  -0.85108  -0.76928  -0.67963  -0.66282
 Alpha  occ. eigenvalues --   -0.63789  -0.59530  -0.53053  -0.50337  -0.48282
 Alpha  occ. eigenvalues --   -0.47224  -0.44899  -0.44264  -0.42118  -0.39959
 Alpha  occ. eigenvalues --   -0.39254  -0.37891  -0.37403  -0.35690  -0.34462
 Alpha  occ. eigenvalues --   -0.33254  -0.30983  -0.29079  -0.24025
 Alpha virt. eigenvalues --   -0.03985   0.08294   0.09722   0.11046   0.11543
 Alpha virt. eigenvalues --    0.12496   0.13594   0.13823   0.14783   0.15059
 Alpha virt. eigenvalues --    0.17111   0.18128   0.18952   0.19970   0.20786

 Mulliken charges:
               1
     1  C   -0.383363
     2  C   -0.184978
     3  C   -0.110485
     4  C   -0.367384
     5  C    0.344053
     6  C   -0.246585
     7  O   -0.254035
     8  C    0.324902
     9  O   -0.304732
    10  H    0.118848
    11  H    0.119632
    12  H    0.119485
    13  H    0.119823
    14  H    0.098621
    15  H    0.105646
    16  H    0.113715
    17  H    0.125999
    18  H    0.136169
    19  H    0.124669
 Sum of Mulliken charges =   0.00000

 Dipole moment (field-independent basis, Debye):
    X=             -1.9022    Y=             -2.4800    Z=              1.0688  Tot=              3.3032
 Quadrupole moment (field-independent basis, Debye-Ang):
   XX=            -55.1077   YY=            -58.5130   ZZ=            -50.6823
   XY=             -2.1382   XZ=              4.1848   YZ=             -1.0829

  Exact polarizability:  92.055  -1.207  75.324   6.134  -0.409  65.106
 Approx polarizability: 116.393  -1.369 117.750   6.100  -0.484 101.465

                      1                      2                      3
                      A                      A                      A
 Frequencies --     37.2612                95.1395               141.1127
 Red. masses --      3.4031                 2.2470                 3.5635
 Frc consts  --      0.0028                 0.0120                 0.0418
 IR Inten    --      0.8154                 0.3218                 2.5866

                      4                      5                      6
                      A                      A                      A
 Frequencies --    201.8318               227.1788               235.9750
 Red. masses --      3.0087                 1.5273                 5.0787
 Frc consts  --      0.0722                 0.0464                 0.1666
 IR Inten    --      3.8423                 0.9853                 2.0120

                      7                      8                      9
                      A                      A                      A
 Frequencies --    290.9438               319.2885               366.5073
 Red. masses --      2.4005                 3.1100                 2.0720
 Frc consts  --      0.1197                 0.1868                 0.1640
 IR Inten    --      0.7829                 2.3732                 0.6298

                     10                     11                     12
                      A                      A                      A
 Frequencies --    496.9079               581.4478               706.0943
 Red. masses --      3.0885                 3.4869                 3.7711
 Frc consts  --      0.4493                 0.6946                 1.1077
 IR Inten    --      0.0446                 4.3932                 3.7323

                     13                     14                     15
                      A                      A                      A
 Frequencies --    752.6987               777.9437               805.4113
 Red. masses --      5.8200                 1.6438                 1.5744
 Frc consts  --      1.9427                 0.5861                 0.6017
 IR Inten    --     12.4646                 1.4718                 0.2842

                     16                     17                     18
                      A                      A                      A
 Frequencies --    833.5827               883.2656               919.7639
 Red. masses --      2.6355                 2.2372                 2.5430
 Frc consts  --      1.0790                 1.0284                 1.2675
 IR Inten    --     36.1728                 1.0116                14.1747

                     19                     20                     21
                      A                      A                      A
 Frequencies --    957.6307               969.5727              1024.1183
 Red. masses --      2.4219                 1.5413                 4.0363
 Frc consts  --      1.3086                 0.8537                 2.4942
 IR Inten    --      3.4730                22.7119                48.6797

                     22                     23                     24
                      A                      A                      A
 Frequencies --   1069.7616              1093.2548              1122.6892
 Red. masses --      1.9543                 1.5594                 1.7682
 Frc consts  --      1.3177                 1.0981                 1.3131
 IR Inten    --     15.1248                13.7715                 0.5325

                     25                     26                     27
                      A                      A                      A
 Frequencies --   1134.1324              1149.2582              1159.6184
 Red. masses --      1.4816                 1.9937                 1.3622
 Frc consts  --      1.1228                 1.5515                 1.0793
 IR Inten    --      5.8021                21.5754                 0.5348

                     28                     29                     30
                      A                      A                      A
 Frequencies --   1177.0497              1217.2361              1244.8533
 Red. masses --      2.0130                 1.5752                 1.4916
 Frc consts  --      1.6431                 1.3751                 1.3619
 IR Inten    --      3.2498                 5.7012                 5.8588

                     31                     32                     33
                      A                      A                      A
 Frequencies --   1274.7557              1326.6090              1369.3438
 Red. masses --      1.4248                 1.2770                 1.4682
 Frc consts  --      1.3642                 1.3241                 1.6220
 IR Inten    --      2.2140                 1.2815                11.8933

                     34                     35                     36
                      A                      A                      A
 Frequencies --   1410.1462              1415.2030              1473.8309
 Red. masses --      2.2443                 1.4177                 1.1041
 Frc consts  --      2.6294                 1.6729                 1.4131
 IR Inten    --     10.1539                 2.0329                 3.1344

                     37                     38                     39
                      A                      A                      A
 Frequencies --   1487.2915              1498.9290              1505.5105
 Red. masses --      1.0703                 1.0401                 1.0665
 Frc consts  --      1.3950                 1.3768                 1.4243
 IR Inten    --      1.0207                 5.2758                 3.1262

                     40                     41                     42
                      A                      A                      A
 Frequencies --   1517.2573              1888.2562              3020.8181
 Red. masses --      1.3713                12.9155                 1.0639
 Frc consts  --      1.8599                27.1322                 5.7200
 IR Inten    --      4.5352               211.3748                14.5436

                     43                     44                     45
                      A                      A                      A
 Frequencies --   3032.3879              3044.9933              3064.5246
 Red. masses --      1.0357                 1.0818                 1.0985
 Frc consts  --      5.6112                 5.9097                 6.0784
 IR Inten    --     24.3080                 9.6628                11.4283

                     46                     47                     48
                      A                      A                      A
 Frequencies --   3070.9948              3084.0751              3101.6733
 Red. masses --      1.0598                 1.0490                 1.1021
 Frc consts  --      5.8889                 5.8786                 6.2466
 IR Inten    --     12.3845                20.3269                40.8557

                     49                     50                     51
                      A                      A                      A
 Frequencies --   3105.7740              3125.9811              3179.8603
 Red. masses --      1.1013                 1.1071                 1.1205
 Frc consts  --      6.2589                 6.3738                 6.6753
 IR Inten    --     31.4248                13.1979                13.1036

 - Thermochemistry -
 -------------------
 Temperature   298.150 Kelvin.  Pressure   1.00000 Atm.
 Atom     1 has atomic number  6 and mass  12.00000

 Molecular mass:   126.06808 amu.
 Principal axes and moments of inertia in atomic units:
                           1         2         3
     Eigenvalues --   587.897141683.007642012.08802
           X            0.99993   0.00545   0.01002
           Y           -0.00543   0.99998  -0.00219
           Z           -0.01003   0.00214   0.99995
 This molecule is an asymmetric top.
 Rotational symmetry number  1.
 Warning -- assumption of classical behavior for rotation
           may cause significant error
 Rotational temperatures (Kelvin)      0.14733     0.05146     0.04305
 Rotational constants (GHZ):           3.06982     1.07233     0.89695
 Zero-point vibrational energy     412650.3 (Joules/Mol)
                                   98.62579 (Kcal/Mol)
 Warning -- explicit consideration of  11 degrees of freedom as
           vibrations may cause significant error
 Vibrational temperatures:     53.61   136.88   203.03   290.39   326.86
          (Kelvin)            339.51   418.60   459.38   527.32   714.94
                              836.57  1015.91  1082.96  1119.29  1158.81
                             1199.34  1270.82  1323.33  1377.82  1395.00
                             1473.48  1539.15  1572.95  1615.30  1631.76
                             1653.52  1668.43  1693.51  1751.33  1791.06
                             1834.09  1908.69  1970.18  2028.88  2036.16
                             2120.51  2139.88  2156.62  2166.09  2182.99
                             2716.78  4346.28  4362.92  4381.06  4409.16
                             4418.47  4437.29  4462.61  4468.51  4497.58
                             4575.10

 Zero-point correction=                           0.157170 (Hartree/Particle)
 Thermal correction to Energy=                    0.166338
 Thermal correction to Enthalpy=                  0.167282
 Thermal correction to Gibbs Free Energy=         0.122393
 Sum of electronic and zero-point Energies=           -423.013094
 Sum of electronic and thermal Energies=              -423.003926
 Sum of electronic and thermal Enthalpies=            -423.002982
 Sum of electronic and thermal Free Energies=         -423.047871

                     E (Thermal)             CV                S
                      KCal/Mol        Cal/Mol-Kelvin    Cal/Mol-Kelvin
 Total                  104.378             33.276             94.476
 Electronic               0.000              0.000              0.000
 Translational            0.889              2.981             40.409
 Rotational               0.889              2.981             29.078
 Vibrational            102.601             27.315             24.990
 Vibration     1          0.594              1.982              5.400
 Vibration     2          0.603              1.953              3.552
 Vibration     3          0.615              1.912              2.789
 Vibration     4          0.639              1.837              2.116
 Vibration     5          0.651              1.800              1.901
 Vibration     6          0.655              1.786              1.833
 Vibration     7          0.687              1.691              1.468
 Vibration     8          0.705              1.637              1.314
 Vibration     9          0.739              1.541              1.094
 Vibration    10          0.852              1.257              0.666
 Vibration    11          0.938              1.071              0.483

 Optimization completed.
    -- Stationary point found.
 Normal termination of Gaussian 09 at Tue Jan 28 14:09:18 2020.
