 Gaussian 09, Revision D.01,
 Gaussian 09:  ES64L-G09RevD.01 24-Apr-2013

 -----------------------------
 # b3lyp 6-31G(2df,p) opt Freq
 -----------------------------

 -----
 titel
 -----
 Symbolic Z-matrix:
 Charge =  0 Multiplicity = 1

 SCF Done:  E(RB3LYP) =  -423.164251891     A.U. after   14 cycles
 SCF Done:  E(RB3LYP) =  -423.164251984     A.U. after    6 cycles
 SCF Done:  E(RB3LYP) =  -423.164252184     A.U. after    7 cycles
 SCF Done:  E(RB3LYP) =  -423.164252392     A.U. after    7 cycles
 SCF Done:  E(RB3LYP) =  -423.164252508     A.U. after    7 cycles
 SCF Done:  E(RB3LYP) =  -423.164252786     A.U. after    7 cycles
 SCF Done:  E(RB3LYP) =  -423.164253880     A.U. after    9 cycles
 SCF Done:  E(RB3LYP) =  -423.164254527     A.U. after    8 cycles
 SCF Done:  E(RB3LYP) =  -423.164254797     A.U. after    8 cycles
 SCF Done:  E(RB3LYP) =  -423.164255060     A.U. after    9 cycles
 SCF Done:  E(RB3LYP) =  -423.164255234     A.U. after    7 cycles
 SCF Done:  E(RB3LYP) =  -423.164255366     A.U. after    7 cycles
 SCF Done:  E(RB3LYP) =  -423.164255400     A.U. after    6 cycles
 SCF Done:  E(RB3LYP) =  -423.164255439     A.U. after    8 cycles
 Optimization completed on the basis of negligible forces.
    -- Stationary point found.
 Normal termination of Gaussian 09 at Mon Jan 27 16:02:49 2020.

 ----------------------------------------------------------------------
 #N Geom=AllCheck Guess=TCheck SCRF=Check GenChk RB3LYP/6-31G(2df,p) Fr
 eq
 ----------------------------------------------------------------------

 Structure from the checkpoint file:  "/scratch/puck/g09_cd2268c0-a4d7-450d-a20b-6a47b0ff2186/Gau-4289.chk"
 -----
 titel
 -----
 Charge =  0 Multiplicity = 1

                         Standard orientation:
 ---------------------------------------------------------------------
 Center     Atomic      Atomic             Coordinates (Angstroms)
 Number     Number       Type             X           Y           Z
 ---------------------------------------------------------------------
      1          6           0        4.216854   -1.007287    0.147728
      2          6           0        2.906841   -0.407561   -0.059401
      3          6           0        1.828452    0.094728   -0.249595
      4          6           0        0.507699    0.701780   -0.419018
      5          8           0        0.399583    1.942816    0.279610
      6          6           0       -0.612161   -0.276347   -0.002861
      7          6           0       -2.008863    0.327077   -0.214811
      8          6           0       -3.089388   -0.514118    0.419223
      9          8           0       -4.052784   -0.956047   -0.151700
     10          1           0        4.180176   -1.800391    0.902311
     11          1           0        4.598576   -1.447415   -0.779882
     12          1           0        4.944444   -0.260285    0.483164
     13          1           0        0.360592    0.965544   -1.474330
     14          1           0        0.806600    1.820075    1.144429
     15          1           0       -0.501757   -1.204449   -0.574117
     16          1           0       -0.466579   -0.535729    1.053951
     17          1           0       -2.023595    1.315838    0.263405
     18          1           0       -2.239008    0.454996   -1.276692
     19          1           0       -2.930439   -0.711964    1.506892
 ---------------------------------------------------------------------

 SCF Done:  E(RB3LYP) =  -423.164255439     A.U. after    1 cycles

 The electronic state is 1-A.
 Alpha  occ. eigenvalues --  -19.14855 -19.13613 -10.26892 -10.26242 -10.21326
 Alpha  occ. eigenvalues --  -10.20049 -10.19231 -10.18907 -10.17752  -1.04303
 Alpha  occ. eigenvalues --   -1.03101  -0.80947  -0.78464  -0.73979  -0.68670
 Alpha  occ. eigenvalues --   -0.62511  -0.57688  -0.53928  -0.48837  -0.47248
 Alpha  occ. eigenvalues --   -0.46591  -0.44902  -0.43639  -0.43541  -0.42322
 Alpha  occ. eigenvalues --   -0.40627  -0.40193  -0.37113  -0.35642  -0.34187
 Alpha  occ. eigenvalues --   -0.29290  -0.26646  -0.26069  -0.24657
 Alpha virt. eigenvalues --   -0.01824   0.03005   0.05013   0.08900   0.10284
 Alpha virt. eigenvalues --    0.10907   0.12132   0.13862   0.15516   0.15726
 Alpha virt. eigenvalues --    0.16772   0.17474   0.18008   0.20026   0.21713

 Mulliken charges:
               1
     1  C   -0.500363
     2  C    0.112019
     3  C    0.018696
     4  C   -0.060047
     5  O   -0.416792
     6  C   -0.202400
     7  C   -0.276139
     8  C    0.155145
     9  O   -0.239470
    10  H    0.151079
    11  H    0.155325
    12  H    0.153895
    13  H    0.117482
    14  H    0.284959
    15  H    0.121446
    16  H    0.101647
    17  H    0.137594
    18  H    0.119448
    19  H    0.066476
 Sum of Mulliken charges =   0.00000

 Dipole moment (field-independent basis, Debye):
    X=              3.7374    Y=             -0.2828    Z=              1.4356  Tot=              4.0136
 Quadrupole moment (field-independent basis, Debye-Ang):
   XX=            -59.8661   YY=            -56.6972   ZZ=            -49.8502
   XY=             -7.5767   XZ=             -0.8273   YZ=              0.7927

  Exact polarizability: 116.994  -7.667  67.595   4.895  -0.833  64.752
 Approx polarizability: 151.568 -13.876 102.898  13.793   0.034  99.455

                      1                      2                      3
                      A                      A                      A
 Frequencies --     21.2551                47.4822                66.6268
 Red. masses --      1.0237                 5.7956                 3.7673
 Frc consts  --      0.0003                 0.0077                 0.0099
 IR Inten    --      0.0272                 4.0580                 1.8959

                      4                      5                      6
                      A                      A                      A
 Frequencies --     79.9984               101.1304               168.9648
 Red. masses --      2.3332                 3.3336                 3.2569
 Frc consts  --      0.0088                 0.0201                 0.0548
 IR Inten    --      3.3294                 2.6593                 0.6316

                      7                      8                      9
                      A                      A                      A
 Frequencies --    198.7368               280.4529               287.7159
 Red. masses --      4.1182                 1.2706                 3.1172
 Frc consts  --      0.0958                 0.0589                 0.1520
 IR Inten    --      2.7286                65.9620                33.5937

                     10                     11                     12
                      A                      A                      A
 Frequencies --    324.0309               345.5177               411.8609
 Red. masses --      3.1295                 3.0411                 4.7477
 Frc consts  --      0.1936                 0.2139                 0.4745
 IR Inten    --      2.8892                21.5320                 6.4197

                     13                     14                     15
                      A                      A                      A
 Frequencies --    501.4103               550.3929               559.5992
 Red. masses --      2.9839                 3.2707                 4.3426
 Frc consts  --      0.4420                 0.5838                 0.8012
 IR Inten    --      3.6143                 5.5453                19.2420

                     16                     17                     18
                      A                      A                      A
 Frequencies --    753.5583               805.8083               836.9171
 Red. masses --      1.8201                 2.2503                 1.7691
 Frc consts  --      0.6089                 0.8609                 0.7301
 IR Inten    --      1.8479                12.7062                 3.5076

                     19                     20                     21
                      A                      A                      A
 Frequencies --    945.4577              1002.7394              1051.1361
 Red. masses --      2.3724                 3.0710                 1.4564
 Frc consts  --      1.2495                 1.8193                 0.9481
 IR Inten    --     25.3315                32.4724                 7.9843

                     22                     23                     24
                      A                      A                      A
 Frequencies --   1054.2023              1058.2295              1087.5913
 Red. masses --      1.5131                 2.8137                 2.1777
 Frc consts  --      0.9908                 1.8565                 1.5177
 IR Inten    --     10.6798                59.3003                26.4312

                     25                     26                     27
                      A                      A                      A
 Frequencies --   1102.5857              1163.8130              1193.8044
 Red. masses --      2.8272                 2.7317                 1.4907
 Frc consts  --      2.0250                 2.1800                 1.2517
 IR Inten    --      3.2493                 4.5880                42.0842

                     28                     29                     30
                      A                      A                      A
 Frequencies --   1243.3389              1260.9192              1318.0315
 Red. masses --      1.3002                 1.2542                 1.2547
 Frc consts  --      1.1842                 1.1749                 1.2843
 IR Inten    --      1.7937                22.2067                 0.2930

                     31                     32                     33
                      A                      A                      A
 Frequencies --   1336.0188              1374.8288              1413.4136
 Red. masses --      1.3413                 1.3914                 1.2723
 Frc consts  --      1.4106                 1.5496                 1.4976
 IR Inten    --     21.2062                 1.3030                24.3706

                     34                     35                     36
                      A                      A                      A
 Frequencies --   1420.2684              1432.1485              1465.0553
 Red. masses --      1.2416                 1.1982                 1.0846
 Frc consts  --      1.4756                 1.4480                 1.3716
 IR Inten    --     51.8983                 7.0749                 2.7386

                     37                     38                     39
                      A                      A                      A
 Frequencies --   1476.3323              1478.0287              1485.3433
 Red. masses --      1.0394                 1.0396                 1.0982
 Frc consts  --      1.3347                 1.3381                 1.4276
 IR Inten    --      6.9574                 5.5674                 4.4440

                     40                     41                     42
                      A                      A                      A
 Frequencies --   1836.1532              2366.6980              2841.1810
 Red. masses --     10.0868                11.8701                 1.0811
 Frc consts  --     20.0365                39.1734                 5.1419
 IR Inten    --    212.5799                15.5197               113.6985

                     43                     44                     45
                      A                      A                      A
 Frequencies --   3021.3747              3028.0273              3030.1021
 Red. masses --      1.0712                 1.0638                 1.0348
 Frc consts  --      5.7613                 5.7466                 5.5980
 IR Inten    --      1.2984                 5.9854                25.6006

                     46                     47                     48
                      A                      A                      A
 Frequencies --   3034.9661              3076.9711              3092.3074
 Red. masses --      1.0710                 1.0982                 1.1005
 Frc consts  --      5.8123                 6.1260                 6.1999
 IR Inten    --     39.0265                11.6798                 8.7557

                     49                     50                     51
                      A                      A                      A
 Frequencies --   3092.9532              3102.6771              3805.7681
 Red. masses --      1.1000                 1.1012                 1.0662
 Frc consts  --      6.2002                 6.2460                 9.0983
 IR Inten    --      7.4766                22.9872                23.4433

 - Thermochemistry -
 -------------------
 Temperature   298.150 Kelvin.  Pressure   1.00000 Atm.
 Atom     1 has atomic number  6 and mass  12.00000

 Molecular mass:   126.06808 amu.
 Principal axes and moments of inertia in atomic units:
                           1         2         3
     Eigenvalues --   472.328663183.026653526.47130
           X            0.99982  -0.01887   0.00106
           Y            0.01888   0.99975  -0.01202
           Z           -0.00083   0.01203   0.99993
 This molecule is an asymmetric top.
 Rotational symmetry number  1.
 Warning -- assumption of classical behavior for rotation
           may cause significant error
 Rotational temperatures (Kelvin)      0.18338     0.02721     0.02456
 Rotational constants (GHZ):           3.82094     0.56699     0.51177
 Zero-point vibrational energy     406933.2 (Joules/Mol)
                                   97.25938 (Kcal/Mol)
 Warning -- explicit consideration of  15 degrees of freedom as
           vibrations may cause significant error
 Vibrational temperatures:     30.58    68.32    95.86   115.10   145.50
          (Kelvin)            243.10   285.94   403.51   413.96   466.21
                              497.12   592.58   721.42   791.89   805.14
                             1084.20  1159.38  1204.14  1360.30  1442.72
                             1512.35  1516.76  1522.55  1564.80  1586.37
                             1674.47  1717.62  1788.89  1814.18  1896.35
                             1922.23  1978.07  2033.58  2043.45  2060.54
                             2107.89  2124.11  2126.55  2137.08  2641.81
                             3405.15  4087.82  4347.08  4356.65  4359.64
                             4366.63  4427.07  4449.14  4450.06  4464.05
                             5475.64

 Zero-point correction=                           0.154993 (Hartree/Particle)
 Thermal correction to Energy=                    0.166170
 Thermal correction to Enthalpy=                  0.167114
 Thermal correction to Gibbs Free Energy=         0.115934
 Sum of electronic and zero-point Energies=           -423.009263
 Sum of electronic and thermal Energies=              -422.998085
 Sum of electronic and thermal Enthalpies=            -422.997141
 Sum of electronic and thermal Free Energies=         -423.048321

                     E (Thermal)             CV                S
                      KCal/Mol        Cal/Mol-Kelvin    Cal/Mol-Kelvin
 Total                  104.273             37.225            107.718
 Electronic               0.000              0.000              0.000
 Translational            0.889              2.981             40.409
 Rotational               0.889              2.981             30.051
 Vibrational            102.496             31.263             37.258
 Vibration     1          0.593              1.985              6.513
 Vibration     2          0.595              1.979              4.920
 Vibration     3          0.598              1.970              4.251
 Vibration     4          0.600              1.963              3.891
 Vibration     5          0.604              1.948              3.432
 Vibration     6          0.625              1.881              2.447
 Vibration     7          0.637              1.842              2.145
 Vibration     8          0.680              1.710              1.531
 Vibration     9          0.685              1.697              1.487
 Vibration    10          0.709              1.627              1.290
 Vibration    11          0.724              1.584              1.187
 Vibration    12          0.776              1.444              0.920
 Vibration    13          0.857              1.247              0.655
 Vibration    14          0.906              1.139              0.543
 Vibration    15          0.915              1.119              0.525

 Optimization completed on the basis of negligible forces.
    -- Stationary point found.
 Normal termination of Gaussian 09 at Mon Jan 27 17:23:21 2020.
