 Gaussian 09, Revision D.01,
 Gaussian 09:  ES64L-G09RevD.01 24-Apr-2013

 -----------------------------
 # b3lyp 6-31G(2df,p) opt Freq
 -----------------------------

 -----
 titel
 -----
 Symbolic Z-matrix:
 Charge =  0 Multiplicity = 1

 SCF Done:  E(RB3LYP) =  -423.128998640     A.U. after   13 cycles
 Optimization completed.
    -- Stationary point found.
 Normal termination of Gaussian 09 at Tue Jan 28 02:51:40 2020.

 ----------------------------------------------------------------------
 #N Geom=AllCheck Guess=TCheck SCRF=Check GenChk RB3LYP/6-31G(2df,p) Fr
 eq
 ----------------------------------------------------------------------

 Structure from the checkpoint file:  "/scratch/puck/g09_9e886d70-1ebe-4cbb-8d36-1fc4800076b8/Gau-190007.chk"
 -----
 titel
 -----
 Charge =  0 Multiplicity = 1

                         Standard orientation:
 ---------------------------------------------------------------------
 Center     Atomic      Atomic             Coordinates (Angstroms)
 Number     Number       Type             X           Y           Z
 ---------------------------------------------------------------------
      1          8           0       -2.737511   -0.371610   -0.534965
      2          6           0       -1.588689   -0.216515    0.264112
      3          6           0       -1.088560    1.264706    0.265167
      4          6           0        0.311214    0.707127    0.045672
      5          6           0        1.633117    0.955099   -0.667506
      6          6           0        2.174949   -0.516063   -0.467132
      7          6           0        0.998723   -1.090094    0.387456
      8          8           0        0.762844    0.031063    1.287203
      9          6           0       -0.232730   -0.666986   -0.415733
     10          1           0       -3.003023   -1.296527   -0.502491
     11          1           0       -1.730158   -0.619209    1.271459
     12          1           0       -1.473190    1.775440   -0.622378
     13          1           0       -1.258880    1.871557    1.156357
     14          1           0        1.506552    1.226911   -1.718350
     15          1           0        2.261226    1.702584   -0.177960
     16          1           0        2.325447   -1.048110   -1.410824
     17          1           0        3.106764   -0.540687    0.101483
     18          1           0        1.150414   -2.050582    0.885548
     19          1           0       -0.335956   -0.920646   -1.472968
 ---------------------------------------------------------------------

 SCF Done:  E(RB3LYP) =  -423.128998640     A.U. after    1 cycles

 The electronic state is 1-A.
 Alpha  occ. eigenvalues --  -19.13943 -19.12640 -10.23709 -10.23673 -10.23484
 Alpha  occ. eigenvalues --  -10.18623 -10.18513 -10.18487 -10.17872  -1.04795
 Alpha  occ. eigenvalues --   -1.02106  -0.81560  -0.77805  -0.70970  -0.65619
 Alpha  occ. eigenvalues --   -0.61062  -0.56761  -0.52508  -0.52035  -0.48623
 Alpha  occ. eigenvalues --   -0.46842  -0.45520  -0.43930  -0.39907  -0.37948
 Alpha  occ. eigenvalues --   -0.37741  -0.35651  -0.34284  -0.33998  -0.32169
 Alpha  occ. eigenvalues --   -0.30910  -0.27326  -0.26411  -0.23825
 Alpha virt. eigenvalues --    0.07479   0.09457   0.09559   0.11401   0.12569
 Alpha virt. eigenvalues --    0.14119   0.14622   0.14904   0.15996   0.16694
 Alpha virt. eigenvalues --    0.17582   0.19174   0.19552   0.21092   0.21458

 Mulliken charges:
               1
     1  O   -0.433557
     2  C    0.112375
     3  C   -0.350278
     4  C    0.428091
     5  C   -0.313654
     6  C   -0.210646
     7  C    0.040650
     8  O   -0.343510
     9  C   -0.090765
    10  H    0.282584
    11  H    0.085283
    12  H    0.119155
    13  H    0.110729
    14  H    0.102824
    15  H    0.109127
    16  H    0.098399
    17  H    0.109058
    18  H    0.071561
    19  H    0.072573
 Sum of Mulliken charges =   0.00000

 Dipole moment (field-independent basis, Debye):
    X=              0.2229    Y=             -1.2823    Z=             -1.0184  Tot=              1.6526
 Quadrupole moment (field-independent basis, Debye-Ang):
   XX=            -53.8877   YY=            -48.6288   ZZ=            -55.4668
   XY=              2.9286   XZ=             -2.7227   YZ=             -0.0586

  Exact polarizability:  86.219  -1.446  73.219  -1.120  -0.388  65.606
 Approx polarizability: 112.420  -1.869 109.944   2.380   0.778 106.554

                      1                      2                      3
                      A                      A                      A
 Frequencies --    145.4793               246.9248               276.8376
 Red. masses --      3.2369                 2.1516                 1.3733
 Frc consts  --      0.0404                 0.0773                 0.0620
 IR Inten    --      1.3663                 0.4887                71.5958

                      4                      5                      6
                      A                      A                      A
 Frequencies --    318.3253               326.1392               398.1859
 Red. masses --      2.1331                 2.1658                 4.3651
 Frc consts  --      0.1274                 0.1357                 0.4078
 IR Inten    --     32.5069                 3.5497                10.2540

                      7                      8                      9
                      A                      A                      A
 Frequencies --    458.0473               493.1611               593.0842
 Red. masses --      3.4447                 2.3425                 4.4993
 Frc consts  --      0.4258                 0.3357                 0.9324
 IR Inten    --      3.7945                14.6590                 2.5331

                     10                     11                     12
                      A                      A                      A
 Frequencies --    677.7253               743.1687               793.3692
 Red. masses --      3.9477                 3.3942                 2.9974
 Frc consts  --      1.0683                 1.1045                 1.1116
 IR Inten    --      7.9337                 8.6863                11.4004

                     13                     14                     15
                      A                      A                      A
 Frequencies --    823.0545               860.5884               868.9132
 Red. masses --      1.5176                 2.3997                 2.7256
 Frc consts  --      0.6057                 1.0471                 1.2125
 IR Inten    --      5.4742                13.9227                 2.0680

                     16                     17                     18
                      A                      A                      A
 Frequencies --    884.5157               902.2695               935.0959
 Red. masses --      3.5907                 2.4078                 3.3159
 Frc consts  --      1.6552                 1.1549                 1.7083
 IR Inten    --     15.5060                 6.0154                10.9734

                     19                     20                     21
                      A                      A                      A
 Frequencies --    963.6353               977.9055              1017.8075
 Red. masses --      2.5179                 2.6407                 2.2838
 Frc consts  --      1.3776                 1.4879                 1.3939
 IR Inten    --      5.5885                10.0187                37.0656

                     22                     23                     24
                      A                      A                      A
 Frequencies --   1031.1092              1046.4909              1105.8924
 Red. masses --      1.7830                 1.6021                 1.9576
 Frc consts  --      1.1169                 1.0338                 1.4106
 IR Inten    --     30.7493                 3.6449                41.5365

                     25                     26                     27
                      A                      A                      A
 Frequencies --   1138.2618              1151.8623              1161.5993
 Red. masses --      1.7010                 1.9039                 1.5189
 Frc consts  --      1.2985                 1.4883                 1.2075
 IR Inten    --     28.1373                 8.3829                 1.3465

                     28                     29                     30
                      A                      A                      A
 Frequencies --   1199.5592              1222.0720              1232.1095
 Red. masses --      1.6295                 1.3378                 1.2834
 Frc consts  --      1.3815                 1.1772                 1.1479
 IR Inten    --     13.4197                 6.5177                 1.3417

                     31                     32                     33
                      A                      A                      A
 Frequencies --   1244.2759              1249.1319              1272.2244
 Red. masses --      1.2952                 1.3221                 1.5604
 Frc consts  --      1.1815                 1.2154                 1.4881
 IR Inten    --     20.7141                12.0660                 8.3836

                     34                     35                     36
                      A                      A                      A
 Frequencies --   1290.5569              1304.0747              1321.6129
 Red. masses --      1.5253                 1.5292                 2.0067
 Frc consts  --      1.4968                 1.5322                 2.0651
 IR Inten    --     11.5384                21.2461                 7.9528

                     37                     38                     39
                      A                      A                      A
 Frequencies --   1333.0412              1413.3657              1466.6863
 Red. masses --      2.3623                 1.4268                 1.1739
 Frc consts  --      2.4733                 1.6793                 1.4878
 IR Inten    --     48.6077                 5.9617                 3.7315

                     40                     41                     42
                      A                      A                      A
 Frequencies --   1476.0510              1498.5735              3055.4287
 Red. masses --      1.0914                 1.1253                 1.0868
 Frc consts  --      1.4009                 1.4890                 5.9777
 IR Inten    --      0.4061                 1.6347                29.6288

                     43                     44                     45
                      A                      A                      A
 Frequencies --   3060.6720              3065.5440              3069.7916
 Red. masses --      1.0594                 1.0578                 1.0599
 Frc consts  --      5.8474                 5.8572                 5.8847
 IR Inten    --     15.5623                28.6353                42.9819

                     46                     47                     48
                      A                      A                      A
 Frequencies --   3086.7561              3095.5869              3110.1713
 Red. masses --      1.0857                 1.0907                 1.1067
 Frc consts  --      6.0949                 6.1583                 6.3074
 IR Inten    --     56.6699                35.3892                 1.3008

                     49                     50                     51
                      A                      A                      A
 Frequencies --   3126.2696              3131.1187              3811.4492
 Red. masses --      1.1066                 1.1081                 1.0660
 Frc consts  --      6.3724                 6.4008                 9.1239
 IR Inten    --     34.5946                25.2555                23.3844

 - Thermochemistry -
 -------------------
 Temperature   298.150 Kelvin.  Pressure   1.00000 Atm.
 Atom     1 has atomic number  8 and mass  15.99491

 Molecular mass:   126.06808 amu.
 Principal axes and moments of inertia in atomic units:
                           1         2         3
     Eigenvalues --   491.083581329.607641420.25404
           X            0.99976  -0.00246  -0.02174
           Y            0.00203   0.99980  -0.02010
           Z            0.02178   0.02006   0.99956
 This molecule is an asymmetric top.
 Rotational symmetry number  1.
 Warning -- assumption of classical behavior for rotation
           may cause significant error
 Rotational temperatures (Kelvin)      0.17637     0.06514     0.06098
 Rotational constants (GHZ):           3.67502     1.35735     1.27072
 Zero-point vibrational energy     421537.5 (Joules/Mol)
                                  100.74989 (Kcal/Mol)
 Warning -- explicit consideration of   9 degrees of freedom as
           vibrations may cause significant error
 Vibrational temperatures:    209.31   355.27   398.31   458.00   469.24
          (Kelvin)            572.90   659.03   709.55   853.31   975.09
                             1069.25  1141.48  1184.19  1238.19  1250.17
                             1272.62  1298.16  1345.39  1386.45  1406.99
                             1464.40  1483.53  1505.67  1591.13  1637.70
                             1657.27  1671.28  1725.90  1758.29  1772.73
                             1790.23  1797.22  1830.44  1856.82  1876.27
                             1901.50  1917.95  2033.52  2110.23  2123.71
                             2156.11  4396.07  4403.62  4410.63  4416.74
                             4441.15  4453.85  4474.84  4498.00  4504.98
                             5483.82

 Zero-point correction=                           0.160555 (Hartree/Particle)
 Thermal correction to Energy=                    0.167798
 Thermal correction to Enthalpy=                  0.168742
 Thermal correction to Gibbs Free Energy=         0.129303
 Sum of electronic and zero-point Energies=           -422.968443
 Sum of electronic and thermal Energies=              -422.961201
 Sum of electronic and thermal Enthalpies=            -422.960256
 Sum of electronic and thermal Free Energies=         -422.999696

                     E (Thermal)             CV                S
                      KCal/Mol        Cal/Mol-Kelvin    Cal/Mol-Kelvin
 Total                  105.295             30.067             83.008
 Electronic               0.000              0.000              0.000
 Translational            0.889              2.981             40.409
 Rotational               0.889              2.981             28.319
 Vibrational            103.517             24.105             14.281
 Vibration     1          0.617              1.908              2.731
 Vibration     2          0.661              1.768              1.752
 Vibration     3          0.678              1.716              1.553
 Vibration     4          0.705              1.639              1.319
 Vibration     5          0.710              1.623              1.279
 Vibration     6          0.764              1.474              0.969
 Vibration     7          0.816              1.343              0.772
 Vibration     8          0.849              1.265              0.675
 Vibration     9          0.951              1.047              0.462

 Optimization completed.
    -- Stationary point found.
 Normal termination of Gaussian 09 at Tue Jan 28 03:40:36 2020.
