 Gaussian 09, Revision D.01,
 Gaussian 09:  ES64L-G09RevD.01 24-Apr-2013

 -----------------------------
 # b3lyp 6-31G(2df,p) opt Freq
 -----------------------------

 -----
 titel
 -----
 Symbolic Z-matrix:
 Charge =  0 Multiplicity = 1

 SCF Done:  E(RB3LYP) =  -423.183499167     A.U. after   14 cycles
 Optimization completed.
    -- Stationary point found.
 Normal termination of Gaussian 09 at Tue Jan 28 09:15:51 2020.

 ----------------------------------------------------------------------
 #N Geom=AllCheck Guess=TCheck SCRF=Check GenChk RB3LYP/6-31G(2df,p) Fr
 eq
 ----------------------------------------------------------------------

 Structure from the checkpoint file:  "/scratch/puck/g09_98992096-940d-4be9-a2d5-20d0653b5f7a/Gau-57776.chk"
 -----
 titel
 -----
 Charge =  0 Multiplicity = 1

                         Standard orientation:
 ---------------------------------------------------------------------
 Center     Atomic      Atomic             Coordinates (Angstroms)
 Number     Number       Type             X           Y           Z
 ---------------------------------------------------------------------
      1          6           0        2.714315   -0.026929   -0.000062
      2          8           0        1.529437    0.743776    0.000110
      3          6           0        0.349053    0.042191    0.000038
      4          6           0       -0.092382   -1.023355   -1.073715
      5          6           0       -1.166408   -1.356732   -0.000016
      6          6           0       -0.092468   -1.023348    1.073765
      7          6           0       -2.037143   -0.085504   -0.000050
      8          6           0       -0.889797    0.942728   -0.000015
      9          8           0       -0.938778    2.140366   -0.000022
     10          1           0        2.791349   -0.662668   -0.892888
     11          1           0        3.545947    0.680551   -0.000185
     12          1           0        2.791608   -0.662665    0.892748
     13          1           0       -0.422262   -0.666057   -2.052927
     14          1           0        0.646043   -1.820056   -1.186882
     15          1           0       -1.675708   -2.317878   -0.000040
     16          1           0       -0.422425   -0.666043    2.052948
     17          1           0        0.645962   -1.820037    1.186995
     18          1           0       -2.668369    0.023699   -0.887414
     19          1           0       -2.668431    0.023703    0.887269
 ---------------------------------------------------------------------

 SCF Done:  E(RB3LYP) =  -423.183499167     A.U. after    1 cycles

 The electronic state is 1-A.
 Alpha  occ. eigenvalues --  -19.15298 -19.12643 -10.26165 -10.24890 -10.23172
 Alpha  occ. eigenvalues --  -10.20831 -10.19800 -10.19800 -10.19208  -1.05529
 Alpha  occ. eigenvalues --   -1.03243  -0.89595  -0.72986  -0.71492  -0.67789
 Alpha  occ. eigenvalues --   -0.64638  -0.56705  -0.53590  -0.50646  -0.47091
 Alpha  occ. eigenvalues --   -0.46164  -0.46117  -0.44605  -0.41762  -0.39836
 Alpha  occ. eigenvalues --   -0.39476  -0.38331  -0.37833  -0.35137  -0.34317
 Alpha  occ. eigenvalues --   -0.32707  -0.30966  -0.26052  -0.23124
 Alpha virt. eigenvalues --   -0.00476   0.08067   0.09241   0.10674   0.12332
 Alpha virt. eigenvalues --    0.14324   0.14512   0.15016   0.15126   0.16672
 Alpha virt. eigenvalues --    0.17121   0.18133   0.19617   0.20366   0.22098

 Mulliken charges:
               1
     1  C   -0.260272
     2  O   -0.290512
     3  C    0.331496
     4  C   -0.303132
     5  C   -0.031422
     6  C   -0.303129
     7  C   -0.333612
     8  C    0.405870
     9  O   -0.333346
    10  H    0.112221
    11  H    0.136239
    12  H    0.112218
    13  H    0.107640
    14  H    0.106872
    15  H    0.077936
    16  H    0.107640
    17  H    0.106870
    18  H    0.125211
    19  H    0.125212
 Sum of Mulliken charges =   0.00000

 Dipole moment (field-independent basis, Debye):
    X=              0.5010    Y=             -3.9669    Z=             -0.0002  Tot=              3.9984
 Quadrupole moment (field-independent basis, Debye-Ang):
   XX=            -48.1411   YY=            -60.6896   ZZ=            -51.5546
   XY=              0.8583   XZ=             -0.0005   YZ=             -0.0001

  Exact polarizability:  85.334  -0.846  75.271   0.000   0.000  65.886
 Approx polarizability: 111.312  -1.489 121.181   0.000   0.000 100.621

                      1                      2                      3
                      A                      A                      A
 Frequencies --     79.9979               138.5377               187.2456
 Red. masses --      2.2104                 3.6783                 1.2055
 Frc consts  --      0.0083                 0.0416                 0.0249
 IR Inten    --      2.2972                 1.9305                 0.6185

                      4                      5                      6
                      A                      A                      A
 Frequencies --    193.3448               337.6862               384.4414
 Red. masses --      3.9363                 4.5780                 2.6308
 Frc consts  --      0.0867                 0.3076                 0.2291
 IR Inten    --      0.8546                 4.5452                 4.0357

                      7                      8                      9
                      A                      A                      A
 Frequencies --    394.8766               449.0343               559.2469
 Red. masses --      2.3840                 2.1936                 4.3919
 Frc consts  --      0.2190                 0.2606                 0.8093
 IR Inten    --      2.0094                 0.5724                 1.4133

                     10                     11                     12
                      A                      A                      A
 Frequencies --    579.9251               625.7990               636.3274
 Red. masses --      3.4564                 2.4297                 4.6700
 Frc consts  --      0.6849                 0.5606                 1.1141
 IR Inten    --      6.9168                 0.7874                 7.5361

                     13                     14                     15
                      A                      A                      A
 Frequencies --    765.4644               816.8646               890.7523
 Red. masses --      2.9583                 3.3569                 2.5352
 Frc consts  --      1.0213                 1.3197                 1.1852
 IR Inten    --     16.6183                 2.6099                 2.8911

                     16                     17                     18
                      A                      A                      A
 Frequencies --    895.9639               907.1078               965.3874
 Red. masses --      1.6626                 3.2911                 1.4409
 Frc consts  --      0.7863                 1.5956                 0.7912
 IR Inten    --      2.6874                 1.2092                 1.8122

                     19                     20                     21
                      A                      A                      A
 Frequencies --    981.0091               982.7041              1021.2258
 Red. masses --      1.8750                 1.9558                 2.8962
 Frc consts  --      1.0632                 1.1128                 1.7796
 IR Inten    --      0.7606                 3.0948                22.3245

                     22                     23                     24
                      A                      A                      A
 Frequencies --   1066.6474              1077.9846              1117.2516
 Red. masses --      1.4472                 2.0557                 2.9729
 Frc consts  --      0.9701                 1.4075                 2.1864
 IR Inten    --      0.0361                18.8635                88.0580

                     25                     26                     27
                      A                      A                      A
 Frequencies --   1123.9504              1170.0608              1180.3465
 Red. masses --      1.2337                 1.8770                 1.3583
 Frc consts  --      0.9182                 1.5140                 1.1150
 IR Inten    --      0.0193                39.2154                 0.0150

                     28                     29                     30
                      A                      A                      A
 Frequencies --   1181.3243              1215.1817              1244.9149
 Red. masses --      1.3102                 1.5350                 1.9556
 Frc consts  --      1.0773                 1.3355                 1.7857
 IR Inten    --      2.7408                 1.1656                25.5260

                     31                     32                     33
                      A                      A                      A
 Frequencies --   1247.3132              1275.8652              1305.1689
 Red. masses --      1.5713                 2.0146                 1.7499
 Frc consts  --      1.4403                 1.9322                 1.7563
 IR Inten    --      0.0463                29.1301                56.0750

                     34                     35                     36
                      A                      A                      A
 Frequencies --   1350.2983              1461.4347              1482.7261
 Red. masses --      3.0820                 1.0926                 1.0930
 Frc consts  --      3.3109                 1.3748                 1.4158
 IR Inten    --    100.8782                 3.7263                 0.5570

                     37                     38                     39
                      A                      A                      A
 Frequencies --   1486.7284              1491.6504              1504.8346
 Red. masses --      1.1865                 1.0491                 1.0564
 Frc consts  --      1.5452                 1.3753                 1.4094
 IR Inten    --      2.8572                 6.4068                14.6690

                     40                     41                     42
                      A                      A                      A
 Frequencies --   1521.7747              1880.9145              2994.9741
 Red. masses --      1.1572                12.8284                 1.0355
 Frc consts  --      1.5789                26.7399                 5.4726
 IR Inten    --      2.7421               252.2565                41.0472

                     43                     44                     45
                      A                      A                      A
 Frequencies --   3047.6473              3054.7405              3058.9634
 Red. masses --      1.0980                 1.0586                 1.0609
 Frc consts  --      6.0089                 5.8202                 5.8487
 IR Inten    --     17.5825                19.3335                72.8616

                     46                     47                     48
                      A                      A                      A
 Frequencies --   3062.4536              3101.6820              3121.5547
 Red. masses --      1.0574                 1.1047                 1.1104
 Frc consts  --      5.8430                 6.2618                 6.3747
 IR Inten    --      5.1041                10.7033                11.7393

                     49                     50                     51
                      A                      A                      A
 Frequencies --   3123.1756              3126.3105              3137.5124
 Red. masses --      1.1057                 1.1004                 1.0912
 Frc consts  --      6.3546                 6.3369                 6.3291
 IR Inten    --     40.6129                17.7155                33.5788

 - Thermochemistry -
 -------------------
 Temperature   298.150 Kelvin.  Pressure   1.00000 Atm.
 Atom     1 has atomic number  6 and mass  12.00000

 Molecular mass:   126.06808 amu.
 Principal axes and moments of inertia in atomic units:
                           1         2         3
     Eigenvalues --   700.571751093.195931492.37995
           X            0.99999   0.00468   0.00000
           Y           -0.00468   0.99999   0.00000
           Z            0.00000   0.00000   1.00000
 This molecule is an asymmetric top.
 Rotational symmetry number  1.
 Warning -- assumption of classical behavior for rotation
           may cause significant error
 Rotational temperatures (Kelvin)      0.12363     0.07923     0.05804
 Rotational constants (GHZ):           2.57610     1.65089     1.20930
 Zero-point vibrational energy     418742.8 (Joules/Mol)
                                  100.08193 (Kcal/Mol)
 Warning -- explicit consideration of  10 degrees of freedom as
           vibrations may cause significant error
 Vibrational temperatures:    115.10   199.32   269.40   278.18   485.85
          (Kelvin)            553.12   568.14   646.06   804.63   834.38
                              900.38   915.53  1101.33  1175.28  1281.59
                             1289.09  1305.12  1388.98  1411.45  1413.89
                             1469.31  1534.67  1550.98  1607.47  1617.11
                             1683.45  1698.25  1699.66  1748.37  1791.15
                             1794.60  1835.68  1877.84  1942.78  2102.68
                             2133.31  2139.07  2146.15  2165.12  2189.49
                             2706.21  4309.09  4384.88  4395.08  4401.16
                             4406.18  4462.62  4491.22  4493.55  4498.06
                             4514.17

 Zero-point correction=                           0.159491 (Hartree/Particle)
 Thermal correction to Energy=                    0.167579
 Thermal correction to Enthalpy=                  0.168524
 Thermal correction to Gibbs Free Energy=         0.126790
 Sum of electronic and zero-point Energies=           -423.024008
 Sum of electronic and thermal Energies=              -423.015920
 Sum of electronic and thermal Enthalpies=            -423.014976
 Sum of electronic and thermal Free Energies=         -423.056709

                     E (Thermal)             CV                S
                      KCal/Mol        Cal/Mol-Kelvin    Cal/Mol-Kelvin
 Total                  105.158             31.288             87.836
 Electronic               0.000              0.000              0.000
 Translational            0.889              2.981             40.409
 Rotational               0.889              2.981             28.526
 Vibrational            103.380             25.326             18.901
 Vibration     1          0.600              1.963              3.891
 Vibration     2          0.614              1.915              2.824
 Vibration     3          0.632              1.857              2.255
 Vibration     4          0.635              1.849              2.196
 Vibration     5          0.718              1.600              1.223
 Vibration     6          0.753              1.503              1.022
 Vibration     7          0.762              1.481              0.982
 Vibration     8          0.808              1.363              0.799
 Vibration     9          0.915              1.119              0.525
 Vibration    10          0.937              1.075              0.486

 Optimization completed.
    -- Stationary point found.
 Normal termination of Gaussian 09 at Tue Jan 28 10:03:03 2020.
