 Gaussian 09, Revision D.01,
 Gaussian 09:  ES64L-G09RevD.01 24-Apr-2013

 -----------------------------
 # b3lyp 6-31G(2df,p) opt Freq
 -----------------------------

 -----
 titel
 -----
 Symbolic Z-matrix:
 Charge =  0 Multiplicity = 1

 SCF Done:  E(RB3LYP) =  -423.159396074     A.U. after   13 cycles
 Optimization completed.
    -- Stationary point found.
 Normal termination of Gaussian 09 at Mon Jan 27 22:01:21 2020.

 ----------------------------------------------------------------------
 #N Geom=AllCheck Guess=TCheck SCRF=Check GenChk RB3LYP/6-31G(2df,p) Fr
 eq
 ----------------------------------------------------------------------

 Structure from the checkpoint file:  "/scratch/puck/g09_b240bf6e-f4cc-4341-a299-1f49a789243d/Gau-26425.chk"
 -----
 titel
 -----
 Charge =  0 Multiplicity = 1

                         Standard orientation:
 ---------------------------------------------------------------------
 Center     Atomic      Atomic             Coordinates (Angstroms)
 Number     Number       Type             X           Y           Z
 ---------------------------------------------------------------------
      1          6           0        2.436073   -0.297417    0.165250
      2          6           0        0.973506   -0.016801   -0.070022
      3          8           0        0.332358   -1.055380   -0.792098
      4          6           0       -0.694449   -1.642117   -0.029031
      5          8           0       -1.756188   -0.751581    0.228865
      6          6           0       -1.295840    0.562342    0.510378
      7          6           0       -0.926786    1.434217   -0.739476
      8          6           0        0.535943    1.402951   -0.304513
      9          6           0        0.161372    0.660519    0.995724
     10          1           0        2.949772   -0.447572   -0.789379
     11          1           0        2.916751    0.534380    0.688440
     12          1           0        2.566914   -1.203630    0.765725
     13          1           0       -1.102413   -2.472469   -0.609480
     14          1           0       -0.278910   -2.014085    0.922530
     15          1           0       -2.038935    1.024551    1.161047
     16          1           0       -1.163447    0.990059   -1.708756
     17          1           0       -1.364732    2.432932   -0.672334
     18          1           0        1.261374    2.196638   -0.436521
     19          1           0        0.505356    0.792716    2.014733
 ---------------------------------------------------------------------

 SCF Done:  E(RB3LYP) =  -423.159396074     A.U. after    1 cycles

 The electronic state is 1-A.
 Alpha  occ. eigenvalues --  -19.14571 -19.13736 -10.26948 -10.24422 -10.23766
 Alpha  occ. eigenvalues --  -10.19417 -10.19273 -10.18304 -10.18049  -1.07375
 Alpha  occ. eigenvalues --   -1.00194  -0.89306  -0.75309  -0.70322  -0.67377
 Alpha  occ. eigenvalues --   -0.64403  -0.55889  -0.52351  -0.52116  -0.50702
 Alpha  occ. eigenvalues --   -0.49036  -0.43640  -0.43239  -0.41544  -0.40263
 Alpha  occ. eigenvalues --   -0.39127  -0.37598  -0.36690  -0.35678  -0.33396
 Alpha  occ. eigenvalues --   -0.28197  -0.26887  -0.25869  -0.24546
 Alpha virt. eigenvalues --    0.08749   0.09465   0.10469   0.12017   0.13428
 Alpha virt. eigenvalues --    0.14907   0.15290   0.15698   0.16440   0.16498
 Alpha virt. eigenvalues --    0.17505   0.18650   0.19913   0.21128   0.21724

 Mulliken charges:
               1
     1  C   -0.468844
     2  C    0.435028
     3  O   -0.293006
     4  C    0.011461
     5  O   -0.266525
     6  C    0.104970
     7  C   -0.256717
     8  C   -0.118820
     9  C   -0.188459
    10  H    0.131593
    11  H    0.118522
    12  H    0.122277
    13  H    0.115649
    14  H    0.081387
    15  H    0.089724
    16  H    0.110005
    17  H    0.101008
    18  H    0.085735
    19  H    0.085012
 Sum of Mulliken charges =   0.00000

 Dipole moment (field-independent basis, Debye):
    X=              1.1389    Y=              0.9117    Z=              1.1068  Tot=              1.8312
 Quadrupole moment (field-independent basis, Debye-Ang):
   XX=            -54.1931   YY=            -50.5067   ZZ=            -53.4368
   XY=             -0.5966   XZ=              0.8754   YZ=             -0.4106

  Exact polarizability:  78.383  -1.214  77.901   1.061  -1.365  64.924
 Approx polarizability: 107.260   0.452 111.039  -1.358  -0.785 103.369

                      1                      2                      3
                      A                      A                      A
 Frequencies --    179.6047               217.7751               246.9299
 Red. masses --      3.9950                 1.0481                 2.4382
 Frc consts  --      0.0759                 0.0293                 0.0876
 IR Inten    --      1.8103                 0.0415                 2.8809

                      4                      5                      6
                      A                      A                      A
 Frequencies --    268.7818               354.6782               391.8362
 Red. masses --      2.3198                 2.6284                 2.7718
 Frc consts  --      0.0987                 0.1948                 0.2507
 IR Inten    --      1.3515                 2.3909                 1.8778

                      7                      8                      9
                      A                      A                      A
 Frequencies --    490.9460               518.0304               541.7729
 Red. masses --      3.7518                 3.6049                 5.4504
 Frc consts  --      0.5328                 0.5700                 0.9426
 IR Inten    --      6.4037                 0.6306                 1.1021

                     10                     11                     12
                      A                      A                      A
 Frequencies --    666.3625               698.3702               804.9715
 Red. masses --      3.9788                 5.6186                 2.2112
 Frc consts  --      1.0409                 1.6145                 0.8442
 IR Inten    --      4.4132                 7.5253                 3.3571

                     13                     14                     15
                      A                      A                      A
 Frequencies --    829.1401               842.3337               858.2363
 Red. masses --      2.8642                 1.8512                 2.4442
 Frc consts  --      1.1601                 0.7739                 1.0607
 IR Inten    --      4.3840                 1.1392                 5.2171

                     16                     17                     18
                      A                      A                      A
 Frequencies --    917.6482               962.5483               973.3954
 Red. masses --      1.8431                 1.3343                 2.8114
 Frc consts  --      0.9144                 0.7284                 1.5695
 IR Inten    --     24.2241                 0.3636                17.5044

                     19                     20                     21
                      A                      A                      A
 Frequencies --   1000.6262              1009.0291              1039.0761
 Red. masses --      1.6565                 2.5488                 2.2050
 Frc consts  --      0.9772                 1.5290                 1.4027
 IR Inten    --     22.8011                23.4005                44.3015

                     22                     23                     24
                      A                      A                      A
 Frequencies --   1043.8125              1079.2881              1107.6221
 Red. masses --      3.3037                 2.0622                 1.9909
 Frc consts  --      2.1208                 1.4153                 1.4391
 IR Inten    --     19.3660                10.4040                 0.8555

                     25                     26                     27
                      A                      A                      A
 Frequencies --   1124.1537              1137.5818              1174.1391
 Red. masses --      2.8962                 2.3927                 1.8197
 Frc consts  --      2.1564                 1.8243                 1.4780
 IR Inten    --    106.7412                10.4239                43.5154

                     28                     29                     30
                      A                      A                      A
 Frequencies --   1205.3513              1239.3150              1252.1603
 Red. masses --      1.6308                 1.5297                 1.5619
 Frc consts  --      1.3960                 1.3842                 1.4429
 IR Inten    --      5.8763                40.5490                20.7060

                     31                     32                     33
                      A                      A                      A
 Frequencies --   1272.1292              1288.8377              1300.1598
 Red. masses --      2.4170                 1.6702                 1.2301
 Frc consts  --      2.3046                 1.6346                 1.2252
 IR Inten    --     42.4529                 7.0588                 7.6451

                     34                     35                     36
                      A                      A                      A
 Frequencies --   1369.8290              1409.1040              1419.1670
 Red. masses --      1.2753                 1.7811                 1.9494
 Frc consts  --      1.4099                 2.0836                 2.3132
 IR Inten    --     22.0258                15.9324                 6.1306

                     37                     38                     39
                      A                      A                      A
 Frequencies --   1443.3207              1478.4607              1480.8103
 Red. masses --      1.2314                 1.1052                 1.0504
 Frc consts  --      1.5114                 1.4234                 1.3570
 IR Inten    --     11.9260                 3.6211                 1.4915

                     40                     41                     42
                      A                      A                      A
 Frequencies --   1501.6701              1520.3919              2956.4242
 Red. masses --      1.0982                 1.1035                 1.0701
 Frc consts  --      1.4591                 1.5029                 5.5105
 IR Inten    --      1.3361                 1.2225                82.3379

                     43                     44                     45
                      A                      A                      A
 Frequencies --   3036.1141              3065.3408              3101.4587
 Red. masses --      1.0350                 1.0578                 1.0901
 Frc consts  --      5.6214                 5.8561                 6.1781
 IR Inten    --     23.8029                32.7491                30.3831

                     46                     47                     48
                      A                      A                      A
 Frequencies --   3103.1307              3106.5961              3114.7929
 Red. masses --      1.1013                 1.0950                 1.1015
 Frc consts  --      6.2483                 6.2262                 6.2962
 IR Inten    --     19.9175                38.2536                16.3460

                     49                     50                     51
                      A                      A                      A
 Frequencies --   3124.2348              3174.8069              3187.1876
 Red. masses --      1.1071                 1.0895                 1.0963
 Frc consts  --      6.3667                 6.4702                 6.5616
 IR Inten    --     24.1699                15.9452                15.8381

 - Thermochemistry -
 -------------------
 Temperature   298.150 Kelvin.  Pressure   1.00000 Atm.
 Atom     1 has atomic number  6 and mass  12.00000

 Molecular mass:   126.06808 amu.
 Principal axes and moments of inertia in atomic units:
                           1         2         3
     Eigenvalues --   675.03479 907.508531255.28948
           X            0.99889  -0.04304   0.01936
           Y            0.04344   0.99883  -0.02121
           Z           -0.01842   0.02203   0.99959
 This molecule is an asymmetric top.
 Rotational symmetry number  1.
 Warning -- assumption of classical behavior for rotation
           may cause significant error
 Rotational temperatures (Kelvin)      0.12831     0.09544     0.06900
 Rotational constants (GHZ):           2.67355     1.98868     1.43771
 Zero-point vibrational energy     422458.1 (Joules/Mol)
                                  100.96991 (Kcal/Mol)
 Warning -- explicit consideration of   9 degrees of freedom as
           vibrations may cause significant error
 Vibrational temperatures:    258.41   313.33   355.28   386.72   510.30
          (Kelvin)            563.76   706.36   745.33   779.49   958.75
                             1004.80  1158.17  1192.95  1211.93  1234.81
                             1320.29  1384.89  1400.50  1439.68  1451.77
                             1495.00  1501.81  1552.85  1593.62  1617.40
                             1636.72  1689.32  1734.23  1783.10  1801.58
                             1830.31  1854.35  1870.64  1970.88  2027.38
                             2041.86  2076.61  2127.17  2130.55  2160.57
                             2187.50  4253.63  4368.29  4410.34  4462.30
                             4464.71  4469.69  4481.49  4495.07  4567.83
                             4585.65

 Zero-point correction=                           0.160906 (Hartree/Particle)
 Thermal correction to Energy=                    0.168156
 Thermal correction to Enthalpy=                  0.169101
 Thermal correction to Gibbs Free Energy=         0.129726
 Sum of electronic and zero-point Energies=           -422.998490
 Sum of electronic and thermal Energies=              -422.991240
 Sum of electronic and thermal Enthalpies=            -422.990295
 Sum of electronic and thermal Free Energies=         -423.029670

                     E (Thermal)             CV                S
                      KCal/Mol        Cal/Mol-Kelvin    Cal/Mol-Kelvin
 Total                  105.520             29.704             82.870
 Electronic               0.000              0.000              0.000
 Translational            0.889              2.981             40.409
 Rotational               0.889              2.981             28.133
 Vibrational            103.742             23.742             14.329
 Vibration     1          0.629              1.867              2.333
 Vibration     2          0.646              1.814              1.978
 Vibration     3          0.661              1.768              1.752
 Vibration     4          0.673              1.731              1.604
 Vibration     5          0.731              1.566              1.145
 Vibration     6          0.759              1.488              0.993
 Vibration     7          0.847              1.270              0.681
 Vibration     8          0.873              1.210              0.615
 Vibration     9          0.897              1.158              0.561

 Normal termination of Gaussian 09 at Mon Jan 27 22:51:38 2020.
