 Gaussian 09, Revision D.01,
 Gaussian 09:  ES64L-G09RevD.01 24-Apr-2013

 -----------------------------
 # b3lyp 6-31G(2df,p) opt Freq
 -----------------------------

 -----
 titel
 -----
 Symbolic Z-matrix:
 Charge =  0 Multiplicity = 1

 SCF Done:  E(RB3LYP) =  -423.145980305     A.U. after   14 cycles
 Optimization completed.
    -- Stationary point found.
 Normal termination of Gaussian 09 at Tue Jan 28 11:41:14 2020.

 ----------------------------------------------------------------------
 #N Geom=AllCheck Guess=TCheck SCRF=Check GenChk RB3LYP/6-31G(2df,p) Fr
 eq
 ----------------------------------------------------------------------

 Structure from the checkpoint file:  "/scratch/puck/g09_46838b1e-914a-4e56-9eb5-03c12f237f56/Gau-26369.chk"
 -----
 titel
 -----
 Charge =  0 Multiplicity = 1

                         Standard orientation:
 ---------------------------------------------------------------------
 Center     Atomic      Atomic             Coordinates (Angstroms)
 Number     Number       Type             X           Y           Z
 ---------------------------------------------------------------------
      1          8           0       -3.239160    0.051492   -0.244536
      2          6           0       -2.059465   -0.729173   -0.126226
      3          6           0       -1.005364    0.132800    0.537135
      4          6           0       -0.366011    1.333819   -0.265796
      5          6           0        1.020919    0.951401    0.370208
      6          8           0        2.199492    0.730384   -0.379256
      7          6           0        2.498599   -0.677319   -0.307567
      8          6           0        1.211785   -1.346277    0.159099
      9          6           0        0.413735   -0.390055    0.619127
     10          1           0       -3.906445   -0.475644   -0.693327
     11          1           0       -2.233729   -1.631417    0.482854
     12          1           0       -1.691876   -1.060224   -1.110316
     13          1           0       -1.384638    0.489760    1.500835
     14          1           0       -0.370758    1.132317   -1.339256
     15          1           0       -0.758420    2.331748   -0.062188
     16          1           0        1.234115    1.570834    1.252925
     17          1           0        2.794581   -1.026730   -1.305593
     18          1           0        3.354569   -0.844807    0.366322
     19          1           0        0.994755   -2.392026   -0.017804
 ---------------------------------------------------------------------

 SCF Done:  E(RB3LYP) =  -423.145980305     A.U. after    1 cycles

 The electronic state is 1-A.
 Alpha  occ. eigenvalues --  -19.13769 -19.13149 -10.23125 -10.22931 -10.22432
 Alpha  occ. eigenvalues --  -10.20179 -10.18620 -10.18535 -10.18338  -1.02853
 Alpha  occ. eigenvalues --   -1.01869  -0.85220  -0.76090  -0.71974  -0.66182
 Alpha  occ. eigenvalues --   -0.60533  -0.57737  -0.53988  -0.51607  -0.48106
 Alpha  occ. eigenvalues --   -0.46852  -0.45985  -0.43772  -0.42328  -0.40270
 Alpha  occ. eigenvalues --   -0.36749  -0.35283  -0.34970  -0.33437  -0.33240
 Alpha  occ. eigenvalues --   -0.30047  -0.27096  -0.25621  -0.22703
 Alpha virt. eigenvalues --    0.00871   0.07191   0.10335   0.11207   0.12261
 Alpha virt. eigenvalues --    0.12654   0.13973   0.15536   0.16131   0.16936
 Alpha virt. eigenvalues --    0.17761   0.18608   0.19411   0.20055   0.22007

 Mulliken charges:
               1
     1  O   -0.420570
     2  C   -0.093555
     3  C   -0.060702
     4  C   -0.267674
     5  C    0.094873
     6  O   -0.280936
     7  C   -0.105389
     8  C   -0.245192
     9  C    0.202868
    10  H    0.288786
    11  H    0.089753
    12  H    0.087827
    13  H    0.095586
    14  H    0.114668
    15  H    0.107163
    16  H    0.078353
    17  H    0.110320
    18  H    0.102856
    19  H    0.100965
 Sum of Mulliken charges =   0.00000

 Dipole moment (field-independent basis, Debye):
    X=             -1.2781    Y=             -2.0592    Z=             -0.1890  Tot=              2.4310
 Quadrupole moment (field-independent basis, Debye-Ang):
   XX=            -52.7136   YY=            -51.3663   ZZ=            -52.5954
   XY=              1.0316   XZ=              3.0240   YZ=              2.8971

  Exact polarizability:  95.027  -9.194  79.573  -2.852   4.882  60.695
 Approx polarizability: 124.058 -17.978 123.922  -8.558  10.112  96.629

                      1                      2                      3
                      A                      A                      A
 Frequencies --     83.6143               114.2579               133.4506
 Red. masses --      4.4958                 3.5439                 2.8717
 Frc consts  --      0.0185                 0.0273                 0.0301
 IR Inten    --      1.3786                 2.4372                 1.6692

                      4                      5                      6
                      A                      A                      A
 Frequencies --    220.6635               254.1554               312.6411
 Red. masses --      1.9488                 1.2184                 3.0277
 Frc consts  --      0.0559                 0.0464                 0.1744
 IR Inten    --     34.4172                75.4204                 1.7218

                      7                      8                      9
                      A                      A                      A
 Frequencies --    361.5352               420.9512               448.8905
 Red. masses --      3.6379                 2.8213                 3.2536
 Frc consts  --      0.2802                 0.2946                 0.3863
 IR Inten    --      6.5391                 2.8926                 2.8850

                     10                     11                     12
                      A                      A                      A
 Frequencies --    664.1812               703.3278               738.0764
 Red. masses --      2.6171                 3.4219                 3.9011
 Frc consts  --      0.6802                 0.9973                 1.2521
 IR Inten    --      7.5001                18.4559                 4.0343

                     13                     14                     15
                      A                      A                      A
 Frequencies --    795.0724               809.3613               870.5156
 Red. masses --      3.1351                 1.3747                 3.4682
 Frc consts  --      1.1676                 0.5306                 1.5485
 IR Inten    --      6.9799                18.8174                 2.3654

                     16                     17                     18
                      A                      A                      A
 Frequencies --    919.1652               925.0509               961.8501
 Red. masses --      1.6369                 1.8832                 3.0302
 Frc consts  --      0.8148                 0.9495                 1.6517
 IR Inten    --      1.9877                 4.9135                22.9213

                     19                     20                     21
                      A                      A                      A
 Frequencies --    980.5211              1014.7351              1033.6458
 Red. masses --      3.1449                 2.7578                 2.0040
 Frc consts  --      1.7814                 1.6731                 1.2615
 IR Inten    --      5.6546                 5.2711                29.7323

                     22                     23                     24
                      A                      A                      A
 Frequencies --   1073.0043              1078.1511              1115.9872
 Red. masses --      2.5077                 3.4692                 1.5913
 Frc consts  --      1.7011                 2.3759                 1.1677
 IR Inten    --     34.2396                18.5099                 2.7966

                     25                     26                     27
                      A                      A                      A
 Frequencies --   1125.4984              1143.2428              1184.4153
 Red. masses --      3.2065                 1.8061                 1.2828
 Frc consts  --      2.3931                 1.3908                 1.0603
 IR Inten    --     87.4827                32.0069                 4.2098

                     28                     29                     30
                      A                      A                      A
 Frequencies --   1197.2788              1230.7464              1240.1407
 Red. masses --      1.1024                 1.2974                 1.4329
 Frc consts  --      0.9311                 1.1579                 1.2984
 IR Inten    --      1.4785                16.3113                 1.6220

                     31                     32                     33
                      A                      A                      A
 Frequencies --   1258.6551              1266.8330              1294.1822
 Red. masses --      1.2531                 1.2859                 1.6202
 Frc consts  --      1.1696                 1.2159                 1.5989
 IR Inten    --      4.4276                23.4443                 3.5222

                     34                     35                     36
                      A                      A                      A
 Frequencies --   1342.7491              1351.5665              1388.0182
 Red. masses --      1.3583                 1.4760                 1.4321
 Frc consts  --      1.4429                 1.5886                 1.6256
 IR Inten    --      0.5789                 5.8275                19.5748

                     37                     38                     39
                      A                      A                      A
 Frequencies --   1460.2804              1469.7065              1517.8283
 Red. masses --      1.5510                 1.1094                 1.0892
 Frc consts  --      1.9486                 1.4119                 1.4784
 IR Inten    --      8.3523                 2.1079                 1.2877

                     40                     41                     42
                      A                      A                      A
 Frequencies --   1522.3883              1723.4086              2963.1904
 Red. masses --      1.0821                 8.3035                 1.0563
 Frc consts  --      1.4776                14.5308                 5.4646
 IR Inten    --      3.2790                 4.8195                45.2849

                     43                     44                     45
                      A                      A                      A
 Frequencies --   2969.2347              2994.6811              2999.4709
 Red. masses --      1.0696                 1.1031                 1.0839
 Frc consts  --      5.5561                 5.8287                 5.7456
 IR Inten    --     98.0438                45.3211                54.6543

                     46                     47                     48
                      A                      A                      A
 Frequencies --   3028.0340              3053.4643              3070.7144
 Red. masses --      1.0921                 1.0844                 1.0565
 Frc consts  --      5.8997                 5.9571                 5.8695
 IR Inten    --     41.4278                31.4552                27.9393

                     49                     50                     51
                      A                      A                      A
 Frequencies --   3139.7365              3212.7387              3831.8138
 Red. masses --      1.1105                 1.0957                 1.0664
 Frc consts  --      6.4497                 6.6634                 9.2251
 IR Inten    --     25.8344                 6.3810                23.4695

 - Thermochemistry -
 -------------------
 Temperature   298.150 Kelvin.  Pressure   1.00000 Atm.
 Atom     1 has atomic number  8 and mass  15.99491

 Molecular mass:   126.06808 amu.
 Principal axes and moments of inertia in atomic units:
                           1         2         3
     Eigenvalues --   437.189441747.687702007.73865
           X            0.99999  -0.00465   0.00233
           Y            0.00455   0.99924   0.03876
           Z           -0.00250  -0.03875   0.99925
 This molecule is an asymmetric top.
 Rotational symmetry number  1.
 Warning -- assumption of classical behavior for rotation
           may cause significant error
 Rotational temperatures (Kelvin)      0.19812     0.04956     0.04314
 Rotational constants (GHZ):           4.12805     1.03265     0.89889
 Zero-point vibrational energy     418769.7 (Joules/Mol)
                                  100.08835 (Kcal/Mol)
 Warning -- explicit consideration of   9 degrees of freedom as
           vibrations may cause significant error
 Vibrational temperatures:    120.30   164.39   192.01   317.49   365.67
          (Kelvin)            449.82   520.17   605.65   645.85   955.61
                             1011.93  1061.93  1143.93  1164.49  1252.48
                             1322.47  1330.94  1383.89  1410.75  1459.98
                             1487.18  1543.81  1551.22  1605.65  1619.34
                             1644.87  1704.11  1722.61  1770.77  1784.28
                             1810.92  1822.69  1862.04  1931.91  1944.60
                             1997.05  2101.02  2114.58  2183.81  2190.37
                             2479.60  4263.36  4272.06  4308.67  4315.56
                             4356.66  4393.25  4418.07  4517.37  4622.41
                             5513.12

 Zero-point correction=                           0.159501 (Hartree/Particle)
 Thermal correction to Energy=                    0.167872
 Thermal correction to Enthalpy=                  0.168816
 Thermal correction to Gibbs Free Energy=         0.126186
 Sum of electronic and zero-point Energies=           -422.986479
 Sum of electronic and thermal Energies=              -422.978109
 Sum of electronic and thermal Enthalpies=            -422.977164
 Sum of electronic and thermal Free Energies=         -423.019794

                     E (Thermal)             CV                S
                      KCal/Mol        Cal/Mol-Kelvin    Cal/Mol-Kelvin
 Total                  105.341             31.469             89.722
 Electronic               0.000              0.000              0.000
 Translational            0.889              2.981             40.409
 Rotational               0.889              2.981             28.819
 Vibrational            103.564             25.507             20.495
 Vibration     1          0.601              1.960              3.804
 Vibration     2          0.607              1.938              3.195
 Vibration     3          0.613              1.920              2.896
 Vibration     4          0.647              1.810              1.954
 Vibration     5          0.665              1.756              1.702
 Vibration     6          0.701              1.650              1.348
 Vibration     7          0.736              1.551              1.115
 Vibration     8          0.783              1.425              0.889
 Vibration     9          0.808              1.363              0.799

 Optimization completed.
    -- Stationary point found.
 Normal termination of Gaussian 09 at Tue Jan 28 12:22:42 2020.
