 Gaussian 09, Revision D.01,
 Gaussian 09:  ES64L-G09RevD.01 24-Apr-2013

 -----------------------------
 # b3lyp 6-31G(2df,p) opt Freq
 -----------------------------

 -----
 titel
 -----
 Symbolic Z-matrix:
 Charge =  0 Multiplicity = 1

 SCF Done:  E(RB3LYP) =  -423.158624429     A.U. after   13 cycles
 Optimization completed.
    -- Stationary point found.
 Normal termination of Gaussian 09 at Mon Jan 27 22:47:48 2020.

 ----------------------------------------------------------------------
 #N Geom=AllCheck Guess=TCheck SCRF=Check GenChk RB3LYP/6-31G(2df,p) Fr
 eq
 ----------------------------------------------------------------------

 Structure from the checkpoint file:  "/scratch/puck/g09_efdf78d6-764b-4495-bfd5-2e67448bf4ab/Gau-100999.chk"
 -----
 titel
 -----
 Charge =  0 Multiplicity = 1

                         Standard orientation:
 ---------------------------------------------------------------------
 Center     Atomic      Atomic             Coordinates (Angstroms)
 Number     Number       Type             X           Y           Z
 ---------------------------------------------------------------------
      1          8           0        2.474433   -0.614375   -0.013571
      2          6           0        1.099377   -0.791808    0.251245
      3          6           0        0.492350    0.328497    1.094166
      4          6           0       -1.040999    0.356480    0.946363
      5          6           0       -1.763801   -0.907535    0.481970
      6          6           0       -1.152399   -1.191414   -0.921245
      7          6           0        0.149471   -0.378660   -0.925817
      8          6           0       -0.168492    0.931304   -0.126361
      9          8           0       -0.121719    2.236920   -0.570883
     10          1           0        2.608885    0.312377   -0.245251
     11          1           0        1.000844   -1.821335    0.611847
     12          1           0        0.972742    0.812593    1.937657
     13          1           0       -1.528535    1.045064    1.628855
     14          1           0       -1.603432   -1.743605    1.170619
     15          1           0       -2.845023   -0.746511    0.428115
     16          1           0       -0.979294   -2.257893   -1.096410
     17          1           0       -1.823256   -0.836108   -1.712206
     18          1           0        0.655989   -0.285680   -1.886987
     19          1           0       -0.973673    2.459546   -0.962537
 ---------------------------------------------------------------------

 SCF Done:  E(RB3LYP) =  -423.158624429     A.U. after    1 cycles

 The electronic state is 1-A.
 Alpha  occ. eigenvalues --  -19.15323 -19.13089 -10.23603 -10.22828 -10.19153
 Alpha  occ. eigenvalues --  -10.18602 -10.18408 -10.18267 -10.18162  -1.03838
 Alpha  occ. eigenvalues --   -1.01499  -0.89958  -0.76050  -0.72657  -0.64839
 Alpha  occ. eigenvalues --   -0.59830  -0.57509  -0.55910  -0.52321  -0.47869
 Alpha  occ. eigenvalues --   -0.46034  -0.45199  -0.42160  -0.41140  -0.39876
 Alpha  occ. eigenvalues --   -0.37544  -0.35952  -0.35081  -0.33919  -0.32624
 Alpha  occ. eigenvalues --   -0.30746  -0.26328  -0.24912  -0.24242
 Alpha virt. eigenvalues --    0.07030   0.09014   0.09692   0.10655   0.11692
 Alpha virt. eigenvalues --    0.14245   0.14614   0.15480   0.16620   0.17174
 Alpha virt. eigenvalues --    0.17799   0.19694   0.20721   0.21966   0.22856

 Mulliken charges:
               1
     1  O   -0.442585
     2  C    0.155871
     3  C   -0.166525
     4  C   -0.125111
     5  C   -0.237170
     6  C   -0.224345
     7  C   -0.143006
     8  C    0.357207
     9  O   -0.467309
    10  H    0.280886
    11  H    0.077900
    12  H    0.090403
    13  H    0.087212
    14  H    0.106317
    15  H    0.097441
    16  H    0.101429
    17  H    0.093391
    18  H    0.072102
    19  H    0.285891
 Sum of Mulliken charges =   0.00000

 Dipole moment (field-independent basis, Debye):
    X=             -2.3859    Y=              0.7043    Z=             -0.3768  Tot=              2.5161
 Quadrupole moment (field-independent basis, Debye-Ang):
   XX=            -54.4222   YY=            -53.8980   ZZ=            -51.6623
   XY=              0.4927   XZ=              0.8236   YZ=             -0.7206

  Exact polarizability:  79.117   1.018  73.457   0.483   0.359  69.214
 Approx polarizability: 113.531  -0.408 108.817   1.047  -3.401 104.881

                      1                      2                      3
                      A                      A                      A
 Frequencies --    134.9426               210.1031               236.7878
 Red. masses --      4.4265                 1.7740                 2.4757
 Frc consts  --      0.0475                 0.0461                 0.0818
 IR Inten    --      1.4533                 7.5373                25.6349

                      4                      5                      6
                      A                      A                      A
 Frequencies --    281.5655               310.3016               359.4050
 Red. masses --      1.3718                 1.5064                 2.7433
 Frc consts  --      0.0641                 0.0855                 0.2088
 IR Inten    --     61.8253                 7.3094                48.9568

                      7                      8                      9
                      A                      A                      A
 Frequencies --    384.5920               422.7116               488.9803
 Red. masses --      2.4982                 3.1055                 3.4244
 Frc consts  --      0.2177                 0.3269                 0.4824
 IR Inten    --     26.1598                14.2515                 0.9915

                     10                     11                     12
                      A                      A                      A
 Frequencies --    592.7258               649.4201               704.4487
 Red. masses --      4.4294                 2.7994                 3.4129
 Frc consts  --      0.9169                 0.6956                 0.9979
 IR Inten    --     15.4948                 0.9137                 3.7023

                     13                     14                     15
                      A                      A                      A
 Frequencies --    777.4930               827.2835               848.7553
 Red. masses --      3.8286                 2.3561                 1.9995
 Frc consts  --      1.3636                 0.9501                 0.8487
 IR Inten    --      6.7428                 3.5204                 4.0460

                     16                     17                     18
                      A                      A                      A
 Frequencies --    865.4664               900.7508               925.3284
 Red. masses --      1.9190                 2.4616                 2.2444
 Frc consts  --      0.8469                 1.1768                 1.1323
 IR Inten    --      8.1816                 3.5077                20.0355

                     19                     20                     21
                      A                      A                      A
 Frequencies --    968.0887               995.9456              1013.0660
 Red. masses --      1.7652                 1.8910                 1.9250
 Frc consts  --      0.9747                 1.1051                 1.1640
 IR Inten    --      1.3887                13.0484                10.3288

                     22                     23                     24
                      A                      A                      A
 Frequencies --   1030.7772              1049.8130              1058.7516
 Red. masses --      1.6950                 2.0874                 1.6450
 Frc consts  --      1.0611                 1.3555                 1.0865
 IR Inten    --     12.9789                 7.1659                 3.9447

                     25                     26                     27
                      A                      A                      A
 Frequencies --   1102.2203              1138.1906              1158.6249
 Red. masses --      2.3081                 1.4315                 1.8578
 Frc consts  --      1.6521                 1.0926                 1.4694
 IR Inten    --     59.3053                15.7605                34.4240

                     28                     29                     30
                      A                      A                      A
 Frequencies --   1173.3275              1219.3720              1247.9868
 Red. masses --      2.1972                 1.6935                 1.7873
 Frc consts  --      1.7822                 1.4835                 1.6401
 IR Inten    --     24.1755                 6.5834                53.4902

                     31                     32                     33
                      A                      A                      A
 Frequencies --   1248.9959              1262.6371              1288.3206
 Red. masses --      1.3214                 1.5313                 1.4193
 Frc consts  --      1.2146                 1.4384                 1.3879
 IR Inten    --      1.6915                 2.6824                 5.8485

                     34                     35                     36
                      A                      A                      A
 Frequencies --   1301.3941              1314.6520              1333.5206
 Red. masses --      1.6628                 1.5550                 1.4992
 Frc consts  --      1.6592                 1.5834                 1.5708
 IR Inten    --     46.5166                41.7662                 5.7523

                     37                     38                     39
                      A                      A                      A
 Frequencies --   1338.1493              1431.7349              1474.9368
 Red. masses --      1.4668                 1.3773                 2.9035
 Frc consts  --      1.5475                 1.6634                 3.7215
 IR Inten    --      0.1560                89.9541                37.9613

                     40                     41                     42
                      A                      A                      A
 Frequencies --   1487.1951              1506.4731              3032.3050
 Red. masses --      1.1154                 1.1004                 1.0625
 Frc consts  --      1.4535                 1.4714                 5.7561
 IR Inten    --      3.9968                 3.8226                34.8664

                     43                     44                     45
                      A                      A                      A
 Frequencies --   3044.1386              3054.3098              3072.8413
 Red. masses --      1.0646                 1.0834                 1.0995
 Frc consts  --      5.8127                 5.9547                 6.1166
 IR Inten    --     28.7514                52.4976                13.7361

                     46                     47                     48
                      A                      A                      A
 Frequencies --   3089.9659              3114.8611              3167.0818
 Red. masses --      1.1044                 1.0890                 1.0901
 Frc consts  --      6.2130                 6.2253                 6.4423
 IR Inten    --     48.3852                21.2960                 6.7937

                     49                     50                     51
                      A                      A                      A
 Frequencies --   3176.9180              3786.4032              3789.7694
 Red. masses --      1.0926                 1.0655                 1.0661
 Frc consts  --      6.4970                 9.0005                 9.0218
 IR Inten    --     20.0691                14.5887                18.2074

 - Thermochemistry -
 -------------------
 Temperature   298.150 Kelvin.  Pressure   1.00000 Atm.
 Atom     1 has atomic number  8 and mass  15.99491

 Molecular mass:   126.06808 amu.
 Principal axes and moments of inertia in atomic units:
                           1         2         3
     Eigenvalues --   812.716671006.795791307.79599
           X            0.99682   0.07971   0.00190
           Y           -0.07973   0.99659   0.02121
           Z           -0.00020  -0.02129   0.99977
 This molecule is an asymmetric top.
 Rotational symmetry number  1.
 Warning -- assumption of classical behavior for rotation
           may cause significant error
 Rotational temperatures (Kelvin)      0.10657     0.08603     0.06623
 Rotational constants (GHZ):           2.22063     1.79256     1.37999
 Zero-point vibrational energy     421048.6 (Joules/Mol)
                                  100.63303 (Kcal/Mol)
 Warning -- explicit consideration of  10 degrees of freedom as
           vibrations may cause significant error
 Vibrational temperatures:    194.15   302.29   340.68   405.11   446.45
          (Kelvin)            517.10   553.34   608.19   703.53   852.80
                              934.37  1013.54  1118.64  1190.27  1221.17
                             1245.21  1295.98  1331.34  1392.86  1432.94
                             1457.57  1483.06  1510.44  1523.31  1585.85
                             1637.60  1667.00  1688.15  1754.40  1795.57
                             1797.02  1816.65  1853.60  1872.41  1891.49
                             1918.64  1925.30  2059.94  2122.10  2139.74
                             2167.48  4362.81  4379.83  4394.47  4421.13
                             4445.77  4481.58  4556.72  4570.87  5447.78
                             5452.63

 Zero-point correction=                           0.160369 (Hartree/Particle)
 Thermal correction to Energy=                    0.168186
 Thermal correction to Enthalpy=                  0.169130
 Thermal correction to Gibbs Free Energy=         0.128549
 Sum of electronic and zero-point Energies=           -422.998255
 Sum of electronic and thermal Energies=              -422.990438
 Sum of electronic and thermal Enthalpies=            -422.989494
 Sum of electronic and thermal Free Energies=         -423.030075

                     E (Thermal)             CV                S
                      KCal/Mol        Cal/Mol-Kelvin    Cal/Mol-Kelvin
 Total                  105.538             31.661             85.410
 Electronic               0.000              0.000              0.000
 Translational            0.889              2.981             40.409
 Rotational               0.889              2.981             28.461
 Vibrational            103.761             25.699             16.541
 Vibration     1          0.613              1.918              2.874
 Vibration     2          0.642              1.825              2.043
 Vibration     3          0.656              1.784              1.827
 Vibration     4          0.681              1.708              1.524
 Vibration     5          0.699              1.654              1.361
 Vibration     6          0.734              1.556              1.125
 Vibration     7          0.754              1.503              1.021
 Vibration     8          0.785              1.421              0.883
 Vibration     9          0.845              1.274              0.686
 Vibration    10          0.950              1.047              0.462

 Normal termination of Gaussian 09 at Mon Jan 27 23:34:27 2020.
