 Gaussian 09, Revision D.01,
 Gaussian 09:  ES64L-G09RevD.01 24-Apr-2013

 -----------------------------
 # b3lyp 6-31G(2df,p) opt Freq
 -----------------------------

 -----
 titel
 -----
 Symbolic Z-matrix:
 Charge =  0 Multiplicity = 1

 SCF Done:  E(RB3LYP) =  -423.196980671     A.U. after   14 cycles
 Optimization completed.
    -- Stationary point found.
 Normal termination of Gaussian 09 at Tue Jan 28 12:37:56 2020.

 ----------------------------------------------------------------------
 #N Geom=AllCheck Guess=TCheck SCRF=Check GenChk RB3LYP/6-31G(2df,p) Fr
 eq
 ----------------------------------------------------------------------

 Structure from the checkpoint file:  "/scratch/puck/g09_17ab7ca3-9dd3-4072-9c61-545f298f2e5d/Gau-1453.chk"
 -----
 titel
 -----
 Charge =  0 Multiplicity = 1

                         Standard orientation:
 ---------------------------------------------------------------------
 Center     Atomic      Atomic             Coordinates (Angstroms)
 Number     Number       Type             X           Y           Z
 ---------------------------------------------------------------------
      1          6           0       -3.070362   -0.403768   -0.510748
      2          6           0       -1.936312   -0.815944    0.436105
      3          6           0       -0.564630   -0.610376   -0.175475
      4          6           0        0.631432   -0.512127    0.802803
      5          6           0        1.879448   -0.400161   -0.020801
      6          8           0        2.964166   -0.881861   -0.069117
      7          8           0        1.373970    0.616840   -0.825698
      8          6           0        0.160128    0.678844   -0.005815
      9          6           0       -0.326163    2.041571    0.353261
     10          1           0       -4.047176   -0.591789   -0.055676
     11          1           0       -3.013715    0.660190   -0.761419
     12          1           0       -3.024026   -0.967639   -1.448188
     13          1           0       -2.012425   -0.257898    1.377300
     14          1           0       -2.044773   -1.874016    0.703426
     15          1           0       -0.396581   -1.142048   -1.110131
     16          1           0        0.548835   -0.758906    1.851706
     17          1           0        0.461103    2.614746    0.851328
     18          1           0       -0.628412    2.587430   -0.546816
     19          1           0       -1.189166    1.981861    1.021002
 ---------------------------------------------------------------------

 SCF Done:  E(RB3LYP) =  -423.196980671     A.U. after    1 cycles

 The electronic state is 1-A.
 Alpha  occ. eigenvalues --  -19.17085 -19.13029 -10.30596 -10.26653 -10.22012
 Alpha  occ. eigenvalues --  -10.21208 -10.20539 -10.20335 -10.19013  -1.10292
 Alpha  occ. eigenvalues --   -1.03087  -0.86845  -0.77615  -0.75472  -0.66872
 Alpha  occ. eigenvalues --   -0.62823  -0.57644  -0.53340  -0.53034  -0.48474
 Alpha  occ. eigenvalues --   -0.46879  -0.45095  -0.43025  -0.42264  -0.41741
 Alpha  occ. eigenvalues --   -0.41110  -0.39585  -0.37709  -0.36418  -0.35881
 Alpha  occ. eigenvalues --   -0.33602  -0.29661  -0.27409  -0.26690
 Alpha virt. eigenvalues --    0.00807   0.07003   0.08499   0.10271   0.11765
 Alpha virt. eigenvalues --    0.12037   0.14086   0.14281   0.14947   0.15296
 Alpha virt. eigenvalues --    0.16679   0.17495   0.18739   0.18949   0.20788

 Mulliken charges:
               1
     1  C   -0.381018
     2  C   -0.221161
     3  C   -0.068346
     4  C   -0.359626
     5  C    0.464028
     6  O   -0.332049
     7  O   -0.297153
     8  C    0.454014
     9  C   -0.492783
    10  H    0.120650
    11  H    0.122604
    12  H    0.125509
    13  H    0.100723
    14  H    0.114516
    15  H    0.107927
    16  H    0.122422
    17  H    0.141780
    18  H    0.142691
    19  H    0.135271
 Sum of Mulliken charges =   0.00000

 Dipole moment (field-independent basis, Debye):
    X=             -4.4856    Y=              0.8380    Z=              1.4710  Tot=              4.7945
 Quadrupole moment (field-independent basis, Debye-Ang):
   XX=            -63.5559   YY=            -51.9416   ZZ=            -52.3991
   XY=              3.0211   XZ=              1.8670   YZ=              1.1786

  Exact polarizability:  94.439  -3.149  72.874   0.865  -1.386  62.901
 Approx polarizability: 129.128  -8.784 108.111   0.811  -5.408  99.420

                      1                      2                      3
                      A                      A                      A
 Frequencies --     85.8505               135.6757               154.4773
 Red. masses --      2.8984                 3.7451                 2.8379
 Frc consts  --      0.0126                 0.0406                 0.0399
 IR Inten    --      1.0963                 1.5843                 0.2448

                      4                      5                      6
                      A                      A                      A
 Frequencies --    182.6293               209.6544               256.4455
 Red. masses --      1.3267                 1.1794                 1.6108
 Frc consts  --      0.0261                 0.0305                 0.0624
 IR Inten    --      0.4719                 0.0304                 0.5586

                      7                      8                      9
                      A                      A                      A
 Frequencies --    291.7159               348.4112               412.2745
 Red. masses --      3.1669                 3.2624                 3.0722
 Frc consts  --      0.1588                 0.2333                 0.3077
 IR Inten    --      0.7556                 1.1701                 0.6380

                     10                     11                     12
                      A                      A                      A
 Frequencies --    472.6909               540.2788               640.7006
 Red. masses --      3.9951                 4.1936                 3.8188
 Frc consts  --      0.5259                 0.7212                 0.9236
 IR Inten    --      1.4710                 3.6517                 2.9833

                     13                     14                     15
                      A                      A                      A
 Frequencies --    680.4205               769.3178               793.7103
 Red. masses --      5.1975                 1.5351                 5.3050
 Frc consts  --      1.4178                 0.5353                 1.9690
 IR Inten    --      0.8767                 3.6728                20.1552

                     16                     17                     18
                      A                      A                      A
 Frequencies --    836.6449               884.0661               894.2367
 Red. masses --      2.1402                 1.9284                 3.1374
 Frc consts  --      0.8827                 0.8880                 1.4782
 IR Inten    --     11.0890                13.5793                67.9327

                     19                     20                     21
                      A                      A                      A
 Frequencies --    951.5628               978.0766              1000.9358
 Red. masses --      1.5142                 2.0317                 3.4839
 Frc consts  --      0.8078                 1.1451                 2.0565
 IR Inten    --      8.2346                 4.7761                19.3278

                     22                     23                     24
                      A                      A                      A
 Frequencies --   1036.2029              1054.7054              1087.3895
 Red. masses --      2.2049                 1.4063                 2.6213
 Frc consts  --      1.3948                 0.9217                 1.8261
 IR Inten    --      8.9603                 7.8193                 9.2035

                     25                     26                     27
                      A                      A                      A
 Frequencies --   1124.9837              1127.9169              1148.1149
 Red. masses --      1.9274                 1.7193                 1.7002
 Frc consts  --      1.4372                 1.2887                 1.3204
 IR Inten    --     12.2323                 6.9089                26.8376

                     28                     29                     30
                      A                      A                      A
 Frequencies --   1208.3332              1230.6417              1283.7279
 Red. masses --      2.0292                 2.9979                 1.2616
 Frc consts  --      1.7456                 2.6750                 1.2250
 IR Inten    --     20.4703                50.2960                 1.9152

                     31                     32                     33
                      A                      A                      A
 Frequencies --   1329.5649              1375.7360              1412.5996
 Red. masses --      1.3598                 1.5463                 1.2460
 Frc consts  --      1.4163                 1.7243                 1.4649
 IR Inten    --      6.2548                 5.0764                 0.8578

                     34                     35                     36
                      A                      A                      A
 Frequencies --   1415.7506              1466.8160              1475.8808
 Red. masses --      1.2961                 2.8463                 1.0589
 Frc consts  --      1.5305                 3.6081                 1.3589
 IR Inten    --      3.7422                12.2250                 3.4599

                     37                     38                     39
                      A                      A                      A
 Frequencies --   1488.3925              1497.2639              1500.6732
 Red. masses --      1.1044                 1.0493                 1.1297
 Frc consts  --      1.4415                 1.3859                 1.4989
 IR Inten    --      1.9589                 8.0691                 1.3953

                     40                     41                     42
                      A                      A                      A
 Frequencies --   1507.4748              1940.3675              3028.5271
 Red. masses --      1.0974                12.7508                 1.0595
 Frc consts  --      1.4693                28.2850                 5.7257
 IR Inten    --      5.8556               537.9105                17.8097

                     43                     44                     45
                      A                      A                      A
 Frequencies --   3038.3320              3041.6783              3058.9696
 Red. masses --      1.0352                 1.0363                 1.1014
 Frc consts  --      5.6302                 5.6491                 6.0722
 IR Inten    --     22.8036                14.6146                13.2520

                     46                     47                     48
                      A                      A                      A
 Frequencies --   3106.9560              3107.4483              3112.5820
 Red. masses --      1.1009                 1.1014                 1.1018
 Frc consts  --      6.2614                 6.2662                 6.2890
 IR Inten    --     21.7128                15.8808                31.3332

                     49                     50                     51
                      A                      A                      A
 Frequencies --   3126.5383              3128.6647              3222.4333
 Red. masses --      1.0982                 1.0915                 1.0954
 Frc consts  --      6.3251                 6.2947                 6.7018
 IR Inten    --     14.0010                13.8256                 1.2039

 - Thermochemistry -
 -------------------
 Temperature   298.150 Kelvin.  Pressure   1.00000 Atm.
 Atom     1 has atomic number  6 and mass  12.00000

 Molecular mass:   126.06808 amu.
 Principal axes and moments of inertia in atomic units:
                           1         2         3
     Eigenvalues --   557.497921653.948511941.58539
           X            0.99985   0.01478   0.00909
           Y           -0.01501   0.99958   0.02497
           Z           -0.00872  -0.02511   0.99965
 This molecule is an asymmetric top.
 Rotational symmetry number  1.
 Warning -- assumption of classical behavior for rotation
           may cause significant error
 Rotational temperatures (Kelvin)      0.15536     0.05237     0.04461
 Rotational constants (GHZ):           3.23722     1.09117     0.92952
 Zero-point vibrational energy     413934.5 (Joules/Mol)
                                   98.93272 (Kcal/Mol)
 Warning -- explicit consideration of  11 degrees of freedom as
           vibrations may cause significant error
 Vibrational temperatures:    123.52   195.21   222.26   262.76   301.65
          (Kelvin)            368.97   419.71   501.29   593.17   680.10
                              777.34   921.82   978.97  1106.88  1141.97
                             1203.74  1271.97  1286.61  1369.08  1407.23
                             1440.12  1490.86  1517.48  1564.51  1618.60
                             1622.82  1651.88  1738.52  1770.62  1847.00
                             1912.94  1979.37  2032.41  2036.95  2110.42
                             2123.46  2141.46  2154.23  2159.13  2168.92
                             2791.75  4357.37  4371.48  4376.29  4401.17
                             4470.21  4470.92  4478.31  4498.39  4501.45
                             4636.36

 Zero-point correction=                           0.157659 (Hartree/Particle)
 Thermal correction to Energy=                    0.166692
 Thermal correction to Enthalpy=                  0.167637
 Thermal correction to Gibbs Free Energy=         0.123885
 Sum of electronic and zero-point Energies=           -423.039321
 Sum of electronic and thermal Energies=              -423.030288
 Sum of electronic and thermal Enthalpies=            -423.029344
 Sum of electronic and thermal Free Energies=         -423.073096

                     E (Thermal)             CV                S
                      KCal/Mol        Cal/Mol-Kelvin    Cal/Mol-Kelvin
 Total                  104.601             33.556             92.083
 Electronic               0.000              0.000              0.000
 Translational            0.889              2.981             40.409
 Rotational               0.889              2.981             28.972
 Vibrational            102.824             27.594             22.703
 Vibration     1          0.601              1.959              3.752
 Vibration     2          0.614              1.918              2.864
 Vibration     3          0.620              1.898              2.616
 Vibration     4          0.630              1.863              2.301
 Vibration     5          0.642              1.826              2.047
 Vibration     6          0.666              1.752              1.686
 Vibration     7          0.687              1.689              1.464
 Vibration     8          0.726              1.578              1.173
 Vibration     9          0.776              1.444              0.919
 Vibration    10          0.830              1.311              0.730
 Vibration    11          0.895              1.161              0.565

 Normal termination of Gaussian 09 at Tue Jan 28 13:25:26 2020.
