 Gaussian 09, Revision D.01,
 Gaussian 09:  ES64L-G09RevD.01 24-Apr-2013

 -----------------------------
 # b3lyp 6-31G(2df,p) opt Freq
 -----------------------------

 -----
 titel
 -----
 Symbolic Z-matrix:
 Charge =  0 Multiplicity = 1

 SCF Done:  E(RB3LYP) =  -423.149995924     A.U. after   13 cycles
 Optimization completed.
    -- Stationary point found.
 Normal termination of Gaussian 09 at Tue Jan 28 12:10:03 2020.

 ----------------------------------------------------------------------
 #N Geom=AllCheck Guess=TCheck SCRF=Check GenChk RB3LYP/6-31G(2df,p) Fr
 eq
 ----------------------------------------------------------------------

 Structure from the checkpoint file:  "/scratch/puck/g09_c5bca3b7-38b0-4290-93e3-870ea679d7db/Gau-18859.chk"
 -----
 titel
 -----
 Charge =  0 Multiplicity = 1

                         Standard orientation:
 ---------------------------------------------------------------------
 Center     Atomic      Atomic             Coordinates (Angstroms)
 Number     Number       Type             X           Y           Z
 ---------------------------------------------------------------------
      1          8           0       -2.796831    0.093287   -0.523091
      2          6           0       -1.927890   -0.122013    0.581800
      3          6           0       -0.475833   -0.003590    0.201707
      4          6           0        0.042215    1.333639   -0.329919
      5          8           0        1.427207    1.385427    0.033823
      6          6           0        1.809664    0.058701    0.348480
      7          6           0        1.612798   -0.911729   -0.864642
      8          6           0        0.243940   -1.266023   -0.279553
      9          6           0        0.600495   -0.614607    1.048589
     10          1           0       -2.563169   -0.549091   -1.201583
     11          1           0       -2.193905    0.650241    1.312219
     12          1           0       -2.112143   -1.099323    1.056045
     13          1           0       -0.071402    1.427514   -1.417669
     14          1           0       -0.476579    2.178464    0.137943
     15          1           0        2.784378    0.080423    0.833403
     16          1           0        1.666905   -0.460134   -1.860481
     17          1           0        2.299344   -1.761435   -0.813555
     18          1           0       -0.303738   -2.188827   -0.441438
     19          1           0        0.494956   -0.953802    2.070490
 ---------------------------------------------------------------------

 SCF Done:  E(RB3LYP) =  -423.149995924     A.U. after    1 cycles

 The electronic state is 1-A.
 Alpha  occ. eigenvalues --  -19.13735 -19.13396 -10.23642 -10.23406 -10.22407
 Alpha  occ. eigenvalues --  -10.20165 -10.20115 -10.19276 -10.18553  -1.03856
 Alpha  occ. eigenvalues --   -1.01816  -0.89280  -0.76604  -0.68586  -0.67529
 Alpha  occ. eigenvalues --   -0.63244  -0.56897  -0.53534  -0.53114  -0.48916
 Alpha  occ. eigenvalues --   -0.46859  -0.45368  -0.43447  -0.42947  -0.40879
 Alpha  occ. eigenvalues --   -0.39343  -0.37892  -0.35371  -0.33575  -0.30466
 Alpha  occ. eigenvalues --   -0.28992  -0.27390  -0.26675  -0.24068
 Alpha virt. eigenvalues --    0.07188   0.09028   0.09857   0.10843   0.11435
 Alpha virt. eigenvalues --    0.14179   0.14615   0.15258   0.15884   0.16850
 Alpha virt. eigenvalues --    0.17796   0.18587   0.19234   0.20623   0.20981

 Mulliken charges:
               1
     1  O   -0.416465
     2  C   -0.171441
     3  C    0.297137
     4  C   -0.146935
     5  O   -0.263606
     6  C    0.081831
     7  C   -0.262470
     8  C   -0.127642
     9  C   -0.142282
    10  H    0.282062
    11  H    0.114738
    12  H    0.087889
    13  H    0.100514
    14  H    0.106897
    15  H    0.085905
    16  H    0.098872
    17  H    0.104101
    18  H    0.081348
    19  H    0.089548
 Sum of Mulliken charges =   0.00000

 Dipole moment (field-independent basis, Debye):
    X=              0.2949    Y=             -2.2209    Z=              0.1471  Tot=              2.2452
 Quadrupole moment (field-independent basis, Debye-Ang):
   XX=            -58.6190   YY=            -53.8710   ZZ=            -50.3099
   XY=             -0.6054   XZ=              0.3165   YZ=              0.9251

  Exact polarizability:  81.407  -4.171  71.357  -0.629   0.680  68.853
 Approx polarizability: 110.761  -5.124 108.080   3.088   1.881 107.018

                      1                      2                      3
                      A                      A                      A
 Frequencies --     91.5886               149.0020               219.6753
 Red. masses --      3.7223                 3.8046                 2.4574
 Frc consts  --      0.0184                 0.0498                 0.0699
 IR Inten    --      2.3637                 0.9240                 1.4812

                      4                      5                      6
                      A                      A                      A
 Frequencies --    299.2797               336.9888               385.3741
 Red. masses --      1.5356                 1.8781                 2.0334
 Frc consts  --      0.0810                 0.1257                 0.1779
 IR Inten    --     40.9074                30.2181                52.7205

                      7                      8                      9
                      A                      A                      A
 Frequencies --    412.1787               447.0606               645.3255
 Red. masses --      3.3644                 2.3081                 3.7630
 Frc consts  --      0.3368                 0.2718                 0.9233
 IR Inten    --      1.1530                 1.2078                11.8400

                     10                     11                     12
                      A                      A                      A
 Frequencies --    665.5709               708.8469               804.3231
 Red. masses --      5.6889                 3.7916                 3.3195
 Frc consts  --      1.4848                 1.1225                 1.2653
 IR Inten    --      2.9744                 5.3714                 3.0520

                     13                     14                     15
                      A                      A                      A
 Frequencies --    846.4185               853.8624               873.4304
 Red. masses --      2.2432                 1.5337                 1.9665
 Frc consts  --      0.9469                 0.6588                 0.8839
 IR Inten    --     12.7421                 1.6059                 7.9977

                     16                     17                     18
                      A                      A                      A
 Frequencies --    898.2207               950.2703               975.1591
 Red. masses --      2.0899                 2.0398                 2.2962
 Frc consts  --      0.9934                 1.0853                 1.2865
 IR Inten    --      7.2878                17.9560                12.8021

                     19                     20                     21
                      A                      A                      A
 Frequencies --    990.0694              1004.0137              1010.9042
 Red. masses --      1.9333                 1.4388                 2.4514
 Frc consts  --      1.1165                 0.8545                 1.4760
 IR Inten    --      3.0618                 0.3973                35.2480

                     22                     23                     24
                      A                      A                      A
 Frequencies --   1052.0422              1060.7934              1087.8165
 Red. masses --      3.8640                 2.9185                 2.5752
 Frc consts  --      2.5197                 1.9350                 1.7955
 IR Inten    --     46.4115                62.8156                15.3977

                     25                     26                     27
                      A                      A                      A
 Frequencies --   1100.6215              1118.9552              1175.6625
 Red. masses --      1.9542                 2.2916                 1.4802
 Frc consts  --      1.3947                 1.6905                 1.2054
 IR Inten    --     21.9003                10.7531                 3.3936

                     28                     29                     30
                      A                      A                      A
 Frequencies --   1183.1013              1208.3746              1224.7248
 Red. masses --      1.3416                 1.3428                 1.2499
 Frc consts  --      1.1064                 1.1552                 1.1046
 IR Inten    --     25.9148                 3.6661                 3.8327

                     31                     32                     33
                      A                      A                      A
 Frequencies --   1258.7166              1275.5028              1287.8783
 Red. masses --      1.4737                 1.9299                 1.6665
 Frc consts  --      1.3756                 1.8499                 1.6286
 IR Inten    --     11.0710                 2.5111                 6.1093

                     34                     35                     36
                      A                      A                      A
 Frequencies --   1332.7936              1355.8280              1382.1414
 Red. masses --      1.7519                 1.5920                 1.3937
 Frc consts  --      1.8335                 1.7243                 1.5687
 IR Inten    --      3.3381                10.6690                 4.6068

                     37                     38                     39
                      A                      A                      A
 Frequencies --   1415.9318              1427.1379              1486.4846
 Red. masses --      1.5386                 1.7611                 1.1147
 Frc consts  --      1.8174                 2.1133                 1.4511
 IR Inten    --     17.8933                59.6539                 0.8277

                     40                     41                     42
                      A                      A                      A
 Frequencies --   1502.3359              1522.4154              2975.6273
 Red. masses --      1.0867                 1.0882                 1.0700
 Frc consts  --      1.4451                 1.4860                 5.5819
 IR Inten    --      1.5052                 0.2671                52.3150

                     43                     44                     45
                      A                      A                      A
 Frequencies --   3014.1840              3043.9761              3055.3030
 Red. masses --      1.0606                 1.0584                 1.1031
 Frc consts  --      5.6772                 5.7783                 6.0672
 IR Inten    --     52.6912                39.8768                26.8238

                     46                     47                     48
                      A                      A                      A
 Frequencies --   3065.1780              3099.0254              3132.3007
 Red. masses --      1.0930                 1.1073                 1.0907
 Frc consts  --      6.0502                 6.2658                 6.3047
 IR Inten    --     45.4309                20.5222                36.7474

                     49                     50                     51
                      A                      A                      A
 Frequencies --   3160.0692              3203.0024              3808.6307
 Red. masses --      1.0907                 1.0961                 1.0660
 Frc consts  --      6.4171                 6.6252                 9.1104
 IR Inten    --     22.6980                 9.5858                12.4942

 - Thermochemistry -
 -------------------
 Temperature   298.150 Kelvin.  Pressure   1.00000 Atm.
 Atom     1 has atomic number  8 and mass  15.99491

 Molecular mass:   126.06808 amu.
 Principal axes and moments of inertia in atomic units:
                           1         2         3
     Eigenvalues --   551.424251298.665391489.43129
           X            0.99980  -0.01526  -0.01315
           Y            0.01526   0.99988   0.00047
           Z            0.01314  -0.00067   0.99991
 This molecule is an asymmetric top.
 Rotational symmetry number  1.
 Warning -- assumption of classical behavior for rotation
           may cause significant error
 Rotational temperatures (Kelvin)      0.15707     0.06669     0.05815
 Rotational constants (GHZ):           3.27287     1.38969     1.21170
 Zero-point vibrational energy     422186.8 (Joules/Mol)
                                  100.90506 (Kcal/Mol)
 Warning -- explicit consideration of   8 degrees of freedom as
           vibrations may cause significant error
 Vibrational temperatures:    131.78   214.38   316.06   430.60   484.85
          (Kelvin)            554.47   593.03   643.22   928.48   957.61
                             1019.87  1157.24  1217.81  1228.52  1256.67
                             1292.34  1367.23  1403.03  1424.49  1444.55
                             1454.46  1513.65  1526.24  1565.12  1583.55
                             1609.92  1691.51  1702.22  1738.58  1762.10
                             1811.01  1835.16  1852.97  1917.59  1950.73
                             1988.59  2037.21  2053.33  2138.72  2161.52
                             2190.41  4281.26  4336.73  4379.60  4395.89
                             4410.10  4458.80  4506.68  4546.63  4608.40
                             5479.76

 Zero-point correction=                           0.160802 (Hartree/Particle)
 Thermal correction to Energy=                    0.168429
 Thermal correction to Enthalpy=                  0.169373
 Thermal correction to Gibbs Free Energy=         0.128696
 Sum of electronic and zero-point Energies=           -422.989193
 Sum of electronic and thermal Energies=              -422.981567
 Sum of electronic and thermal Enthalpies=            -422.980622
 Sum of electronic and thermal Free Energies=         -423.021300

                     E (Thermal)             CV                S
                      KCal/Mol        Cal/Mol-Kelvin    Cal/Mol-Kelvin
 Total                  105.691             30.232             85.613
 Electronic               0.000              0.000              0.000
 Translational            0.889              2.981             40.409
 Rotational               0.889              2.981             28.458
 Vibrational            103.914             24.271             16.747
 Vibration     1          0.602              1.955              3.626
 Vibration     2          0.618              1.904              2.685
 Vibration     3          0.647              1.811              1.962
 Vibration     4          0.692              1.675              1.421
 Vibration     5          0.718              1.602              1.226
 Vibration     6          0.754              1.501              1.018
 Vibration     7          0.776              1.444              0.919
 Vibration     8          0.806              1.367              0.805

 Normal termination of Gaussian 09 at Tue Jan 28 13:03:35 2020.
