 Gaussian 09, Revision D.01,
 Gaussian 09:  ES64L-G09RevD.01 24-Apr-2013

 -----------------------------
 # b3lyp 6-31G(2df,p) opt Freq
 -----------------------------

 -----
 titel
 -----
 Symbolic Z-matrix:
 Charge =  0 Multiplicity = 1

 SCF Done:  E(RB3LYP) =  -423.165098853     A.U. after   14 cycles
 Optimization completed.
    -- Stationary point found.
 Normal termination of Gaussian 09 at Tue Jan 28 08:13:32 2020.

 ----------------------------------------------------------------------
 #N Geom=AllCheck Guess=TCheck SCRF=Check GenChk RB3LYP/6-31G(2df,p) Fr
 eq
 ----------------------------------------------------------------------

 Structure from the checkpoint file:  "/scratch/puck/g09_532033ed-5333-4d20-b13d-63f4f892d18c/Gau-91866.chk"
 -----
 titel
 -----
 Charge =  0 Multiplicity = 1

                         Standard orientation:
 ---------------------------------------------------------------------
 Center     Atomic      Atomic             Coordinates (Angstroms)
 Number     Number       Type             X           Y           Z
 ---------------------------------------------------------------------
      1          6           0        3.205949   -0.414221    0.094744
      2          6           0        1.742135   -0.776409   -0.136781
      3          6           0        0.805560    0.410450   -0.012712
      4          8           0        1.181139    1.534969    0.250386
      5          6           0       -0.637547    0.132248   -0.222465
      6          6           0       -1.656785    1.159556   -0.633414
      7          6           0       -1.834343    0.451260    0.677447
      8          6           0       -2.219686   -1.003088    0.428739
      9          8           0       -1.107969   -1.193177   -0.490879
     10          1           0        3.353270   -0.002017    1.096370
     11          1           0        3.843191   -1.296042   -0.014479
     12          1           0        3.538313    0.344474   -0.618499
     13          1           0        1.583137   -1.221443   -1.128838
     14          1           0        1.394429   -1.549341    0.561192
     15          1           0       -1.307189    2.182787   -0.555601
     16          1           0       -2.298489    0.928779   -1.479115
     17          1           0       -1.832419    0.960448    1.631157
     18          1           0       -2.103914   -1.646532    1.307307
     19          1           0       -3.187380   -1.194222   -0.048900
 ---------------------------------------------------------------------

 SCF Done:  E(RB3LYP) =  -423.165098852     A.U. after    1 cycles

 The electronic state is 1-A.
 Alpha  occ. eigenvalues --  -19.15113 -19.12499 -10.26776 -10.25076 -10.24772
 Alpha  occ. eigenvalues --  -10.21410 -10.20192 -10.18924 -10.17301  -1.06566
 Alpha  occ. eigenvalues --   -1.03414  -0.84574  -0.77823  -0.72145  -0.66745
 Alpha  occ. eigenvalues --   -0.61147  -0.58321  -0.53635  -0.49871  -0.48843
 Alpha  occ. eigenvalues --   -0.47081  -0.45485  -0.43945  -0.42005  -0.39804
 Alpha  occ. eigenvalues --   -0.38493  -0.37880  -0.36341  -0.34964  -0.34122
 Alpha  occ. eigenvalues --   -0.33307  -0.29425  -0.25230  -0.23867
 Alpha virt. eigenvalues --   -0.02007   0.07871   0.09846   0.10779   0.12144
 Alpha virt. eigenvalues --    0.12720   0.13347   0.14699   0.15942   0.16430
 Alpha virt. eigenvalues --    0.17255   0.19169   0.19540   0.20249   0.21296

 Mulliken charges:
               1
     1  C   -0.382756
     2  C   -0.283134
     3  C    0.273937
     4  O   -0.333695
     5  C    0.371293
     6  C   -0.320909
     7  C   -0.154684
     8  C   -0.097007
     9  O   -0.325029
    10  H    0.129390
    11  H    0.109351
    12  H    0.130874
    13  H    0.134510
    14  H    0.129520
    15  H    0.147572
    16  H    0.121271
    17  H    0.120331
    18  H    0.116299
    19  H    0.112865
 Sum of Mulliken charges =   0.00000

 Dipole moment (field-independent basis, Debye):
    X=             -1.6483    Y=             -1.1972    Z=              0.5633  Tot=              2.1136
 Quadrupole moment (field-independent basis, Debye-Ang):
   XX=            -49.7930   YY=            -57.0130   ZZ=            -51.4751
   XY=             -3.6438   XZ=             -2.1371   YZ=             -2.5141

  Exact polarizability:  94.611   1.053  75.447  -0.462  -1.848  62.256
 Approx polarizability: 120.181   5.640 119.026  -2.280   1.312  97.478

                      1                      2                      3
                      A                      A                      A
 Frequencies --     55.5413                69.6500               147.3902
 Red. masses --      3.2844                 1.9939                 3.5448
 Frc consts  --      0.0060                 0.0057                 0.0454
 IR Inten    --      1.6018                 3.5269                 2.8038

                      4                      5                      6
                      A                      A                      A
 Frequencies --    168.3778               202.7859               276.4953
 Red. masses --      2.2040                 1.4064                 3.9525
 Frc consts  --      0.0368                 0.0341                 0.1780
 IR Inten    --      1.3365                 0.9029                10.9012

                      7                      8                      9
                      A                      A                      A
 Frequencies --    332.4058               373.9706               445.7340
 Red. masses --      3.5825                 2.2386                 3.8940
 Frc consts  --      0.2332                 0.1845                 0.4558
 IR Inten    --      3.7435                 5.3465                 1.0775

                     10                     11                     12
                      A                      A                      A
 Frequencies --    505.6955               565.5825               706.8128
 Red. masses --      3.8860                 2.0953                 3.2862
 Frc consts  --      0.5855                 0.3949                 0.9673
 IR Inten    --      3.0446                 2.1919                 3.3285

                     13                     14                     15
                      A                      A                      A
 Frequencies --    762.1978               779.3877               836.4106
 Red. masses --      3.0643                 1.9672                 1.9534
 Frc consts  --      1.0489                 0.7041                 0.8052
 IR Inten    --      6.4192                 4.6299                 7.2262

                     16                     17                     18
                      A                      A                      A
 Frequencies --    847.8554               921.4770               954.6435
 Red. masses --      2.5812                 1.6582                 2.4572
 Frc consts  --      1.0932                 0.8296                 1.3194
 IR Inten    --      1.3491                 8.6647                54.7390

                     19                     20                     21
                      A                      A                      A
 Frequencies --    975.0084               994.0597               998.4960
 Red. masses --      1.9933                 2.4539                 1.8404
 Frc consts  --      1.1164                 1.4287                 1.0811
 IR Inten    --     18.6694                11.9283                 3.7795

                     22                     23                     24
                      A                      A                      A
 Frequencies --   1014.6658              1052.0456              1075.8227
 Red. masses --      1.7958                 2.1045                 1.4325
 Frc consts  --      1.0893                 1.3724                 0.9769
 IR Inten    --     13.4267                66.5715                 5.0051

                     25                     26                     27
                      A                      A                      A
 Frequencies --   1092.2980              1112.8981              1131.6032
 Red. masses --      1.7563                 2.1767                 2.1038
 Frc consts  --      1.2346                 1.5884                 1.5872
 IR Inten    --      1.0040                34.4746                46.5293

                     28                     29                     30
                      A                      A                      A
 Frequencies --   1161.7181              1194.7758              1268.7215
 Red. masses --      1.3386                 1.8502                 1.1994
 Frc consts  --      1.0644                 1.5561                 1.1375
 IR Inten    --     20.3547                18.5151                 0.2680

                     31                     32                     33
                      A                      A                      A
 Frequencies --   1288.0403              1340.0312              1351.5370
 Red. masses --      2.1312                 1.5673                 1.8144
 Frc consts  --      2.0832                 1.6582                 1.9527
 IR Inten    --     26.6401                 2.0116                 6.7130

                     34                     35                     36
                      A                      A                      A
 Frequencies --   1402.7898              1413.5847              1439.6054
 Red. masses --      2.3270                 1.2370                 1.0883
 Frc consts  --      2.6979                 1.4564                 1.3289
 IR Inten    --     65.2844                 4.1858                11.7393

                     37                     38                     39
                      A                      A                      A
 Frequencies --   1464.4561              1492.8781              1497.8287
 Red. masses --      1.4266                 1.0385                 1.0524
 Frc consts  --      1.8026                 1.3637                 1.3911
 IR Inten    --     11.8162                 5.0272                 8.4827

                     40                     41                     42
                      A                      A                      A
 Frequencies --   1516.3311              1780.4560              3026.6762
 Red. masses --      1.1163                11.4659                 1.0629
 Frc consts  --      1.5123                21.4152                 5.7368
 IR Inten    --      2.3087               124.1075                19.5167

                     43                     44                     45
                      A                      A                      A
 Frequencies --   3030.6876              3050.8587              3051.2338
 Red. masses --      1.0551                 1.0411                 1.0893
 Frc consts  --      5.7097                 5.7092                 5.9754
 IR Inten    --     66.7216                22.4099                 5.3295

                     46                     47                     48
                      A                      A                      A
 Frequencies --   3082.0007              3122.3538              3123.0649
 Red. masses --      1.1116                 1.1021                 1.0553
 Frc consts  --      6.2212                 6.3305                 6.0646
 IR Inten    --     30.0457                20.9648                 8.7357

                     49                     50                     51
                      A                      A                      A
 Frequencies --   3125.1865              3213.7783              3231.2794
 Red. masses --      1.1015                 1.0954                 1.1138
 Frc consts  --      6.3384                 6.6657                 6.8519
 IR Inten    --     20.2921                 4.3665                 2.2255

 - Thermochemistry -
 -------------------
 Temperature   298.150 Kelvin.  Pressure   1.00000 Atm.
 Atom     1 has atomic number  6 and mass  12.00000

 Molecular mass:   126.06808 amu.
 Principal axes and moments of inertia in atomic units:
                           1         2         3
     Eigenvalues --   526.150381584.558521908.28611
           X            0.99969  -0.02481  -0.00201
           Y            0.02474   0.99923  -0.03056
           Z            0.00276   0.03050   0.99953
 This molecule is an asymmetric top.
 Rotational symmetry number  1.
 Warning -- assumption of classical behavior for rotation
           may cause significant error
 Rotational temperatures (Kelvin)      0.16462     0.05466     0.04539
 Rotational constants (GHZ):           3.43009     1.13896     0.94574
 Zero-point vibrational energy     413125.5 (Joules/Mol)
                                   98.73936 (Kcal/Mol)
 Warning -- explicit consideration of  11 degrees of freedom as
           vibrations may cause significant error
 Vibrational temperatures:     79.91   100.21   212.06   242.26   291.76
          (Kelvin)            397.81   478.26   538.06   641.31   727.58
                              813.75  1016.94  1096.63  1121.36  1203.41
                             1219.87  1325.80  1373.52  1402.82  1430.23
                             1436.61  1459.88  1513.66  1547.87  1571.57
                             1601.21  1628.12  1671.45  1719.01  1825.40
                             1853.20  1928.00  1944.56  2018.30  2033.83
                             2071.27  2107.02  2147.92  2155.04  2181.66
                             2561.68  4354.71  4360.48  4389.50  4390.04
                             4434.31  4492.37  4493.39  4496.44  4623.90
                             4649.08

 Zero-point correction=                           0.157351 (Hartree/Particle)
 Thermal correction to Energy=                    0.166366
 Thermal correction to Enthalpy=                  0.167310
 Thermal correction to Gibbs Free Energy=         0.122888
 Sum of electronic and zero-point Energies=           -423.007748
 Sum of electronic and thermal Energies=              -422.998733
 Sum of electronic and thermal Enthalpies=            -422.997789
 Sum of electronic and thermal Free Energies=         -423.042211

                     E (Thermal)             CV                S
                      KCal/Mol        Cal/Mol-Kelvin    Cal/Mol-Kelvin
 Total                  104.396             32.991             93.493
 Electronic               0.000              0.000              0.000
 Translational            0.889              2.981             40.409
 Rotational               0.889              2.981             28.855
 Vibrational            102.619             27.029             24.230
 Vibration     1          0.596              1.975              4.610
 Vibration     2          0.598              1.969              4.163
 Vibration     3          0.617              1.906              2.706
 Vibration     4          0.625              1.881              2.454
 Vibration     5          0.639              1.836              2.108
 Vibration     6          0.678              1.717              1.555
 Vibration     7          0.714              1.611              1.248
 Vibration     8          0.745              1.526              1.063
 Vibration     9          0.805              1.370              0.809
 Vibration    10          0.861              1.237              0.644
 Vibration    11          0.921              1.106              0.513

 Optimization completed.
    -- Stationary point found.
 Normal termination of Gaussian 09 at Tue Jan 28 08:54:03 2020.
