 Gaussian 09, Revision D.01,
 Gaussian 09:  ES64L-G09RevD.01 24-Apr-2013

 -----------------------------
 # b3lyp 6-31G(2df,p) opt Freq
 -----------------------------

 -----
 titel
 -----
 Symbolic Z-matrix:
 Charge =  0 Multiplicity = 1

 SCF Done:  E(RB3LYP) =  -423.171395775     A.U. after   14 cycles
 Optimization completed.
    -- Stationary point found.
 Normal termination of Gaussian 09 at Mon Jan 27 16:49:07 2020.

 ----------------------------------------------------------------------
 #N Geom=AllCheck Guess=TCheck SCRF=Check GenChk RB3LYP/6-31G(2df,p) Fr
 eq
 ----------------------------------------------------------------------

 Structure from the checkpoint file:  "/scratch/puck/g09_df079743-b85a-438b-a351-c6c7a0fc94e6/Gau-166680.chk"
 -----
 titel
 -----
 Charge =  0 Multiplicity = 1

                         Standard orientation:
 ---------------------------------------------------------------------
 Center     Atomic      Atomic             Coordinates (Angstroms)
 Number     Number       Type             X           Y           Z
 ---------------------------------------------------------------------
      1          8           0       -0.918078   -0.233144    1.521517
      2          6           0       -0.498135    0.263943    0.292266
      3          6           0       -0.093849    1.776206    0.218573
      4          6           0        1.185884    1.390268   -0.577242
      5          6           0        0.949286   -0.064740   -0.162260
      6          6           0        1.475397   -1.352293   -0.728379
      7          6           0        1.864615   -0.915553    0.663640
      8          6           0       -1.494674   -0.104854   -0.779711
      9          8           0       -2.475163   -0.771337   -0.543156
     10          1           0       -1.751485   -0.701012    1.347403
     11          1           0       -0.799661    2.466366   -0.250631
     12          1           0        0.129267    2.122271    1.229239
     13          1           0        1.081006    1.554989   -1.654350
     14          1           0        2.121316    1.848563   -0.247717
     15          1           0        0.789572   -2.188650   -0.825974
     16          1           0        2.221180   -1.294093   -1.514918
     17          1           0        1.421195   -1.434734    1.506057
     18          1           0        2.876552   -0.557515    0.825044
     19          1           0       -1.274150    0.261809   -1.802363
 ---------------------------------------------------------------------

 SCF Done:  E(RB3LYP) =  -423.171395775     A.U. after    1 cycles

 The electronic state is 1-A.
 Alpha  occ. eigenvalues --  -19.15790 -19.13937 -10.27954 -10.24616 -10.20275
 Alpha  occ. eigenvalues --  -10.19381 -10.19301 -10.18987 -10.18749  -1.07030
 Alpha  occ. eigenvalues --   -1.02220  -0.87909  -0.80873  -0.69329  -0.63244
 Alpha  occ. eigenvalues --   -0.61094  -0.59364  -0.53477  -0.52526  -0.50103
 Alpha  occ. eigenvalues --   -0.48595  -0.46367  -0.43955  -0.42532  -0.38180
 Alpha  occ. eigenvalues --   -0.37604  -0.37093  -0.36412  -0.35457  -0.33474
 Alpha  occ. eigenvalues --   -0.29860  -0.29657  -0.26244  -0.25959
 Alpha virt. eigenvalues --   -0.03442   0.07913   0.09338   0.10056   0.10884
 Alpha virt. eigenvalues --    0.12529   0.13735   0.15150   0.15989   0.16858
 Alpha virt. eigenvalues --    0.17782   0.19166   0.19999   0.22620   0.23421

 Mulliken charges:
               1
     1  O   -0.476559
     2  C    0.263460
     3  C   -0.282844
     4  C   -0.318404
     5  C    0.312210
     6  C   -0.345653
     7  C   -0.307240
     8  C    0.125389
     9  O   -0.288121
    10  H    0.290928
    11  H    0.103931
    12  H    0.130052
    13  H    0.104728
    14  H    0.109371
    15  H    0.119217
    16  H    0.114866
    17  H    0.134044
    18  H    0.112755
    19  H    0.097870
 Sum of Mulliken charges =   0.00000

 Dipole moment (field-independent basis, Debye):
    X=              1.5938    Y=              1.1245    Z=             -1.1931  Tot=              2.2865
 Quadrupole moment (field-independent basis, Debye-Ang):
   XX=            -56.4056   YY=            -52.5031   ZZ=            -54.1649
   XY=             -1.3901   XZ=             -0.8272   YZ=             -1.0695

  Exact polarizability:  83.468   2.197  75.353   0.271  -1.502  70.574
 Approx polarizability: 119.765   9.154 108.246  -0.002  -2.944 107.672

                      1                      2                      3
                      A                      A                      A
 Frequencies --     77.2364               106.5694               192.9072
 Red. masses --      4.9051                 2.8283                 3.1033
 Frc consts  --      0.0172                 0.0189                 0.0680
 IR Inten    --      0.0980                 0.8616                 2.8131

                      4                      5                      6
                      A                      A                      A
 Frequencies --    222.1681               285.9258               301.7361
 Red. masses --      3.2812                 2.0570                 2.5694
 Frc consts  --      0.0954                 0.0991                 0.1378
 IR Inten    --      2.1639                 0.9091                 6.5364

                      7                      8                      9
                      A                      A                      A
 Frequencies --    346.0529               413.0335               447.2392
 Red. masses --      3.9409                 2.5098                 3.1117
 Frc consts  --      0.2781                 0.2523                 0.3667
 IR Inten    --     13.7154                14.8325                 1.9459

                     10                     11                     12
                      A                      A                      A
 Frequencies --    505.3879               545.8512               585.7781
 Red. masses --      1.4145                 3.0961                 2.9981
 Frc consts  --      0.2129                 0.5435                 0.6061
 IR Inten    --     36.4920                12.9017                 3.0077

                     13                     14                     15
                      A                      A                      A
 Frequencies --    742.0234               781.8753               832.1965
 Red. masses --      1.3726                 1.0536                 4.2411
 Frc consts  --      0.4453                 0.3795                 1.7305
 IR Inten    --      2.4171                 0.2702                18.9803

                     16                     17                     18
                      A                      A                      A
 Frequencies --    860.7707               881.4418               893.5848
 Red. masses --      1.7895                 1.9597                 2.3889
 Frc consts  --      0.7812                 0.8971                 1.1239
 IR Inten    --     18.6876                 6.2926                 4.2353

                     19                     20                     21
                      A                      A                      A
 Frequencies --    920.6977               944.6339               952.6582
 Red. masses --      2.5326                 1.8237                 1.7850
 Frc consts  --      1.2649                 0.9588                 0.9545
 IR Inten    --      1.9247                 3.7529                 6.5900

                     22                     23                     24
                      A                      A                      A
 Frequencies --    997.4457              1055.4216              1074.9263
 Red. masses --      2.5773                 1.4710                 1.9029
 Frc consts  --      1.5108                 0.9654                 1.2954
 IR Inten    --      6.6313                 2.8841                 7.0535

                     25                     26                     27
                      A                      A                      A
 Frequencies --   1077.0058              1102.8221              1140.5866
 Red. masses --      1.6807                 2.6556                 1.4849
 Frc consts  --      1.1486                 1.9029                 1.1382
 IR Inten    --      2.2771                51.5493                14.3085

                     28                     29                     30
                      A                      A                      A
 Frequencies --   1190.9418              1192.9725              1222.3057
 Red. masses --      1.3074                 1.6151                 1.4670
 Frc consts  --      1.0926                 1.3543                 1.2913
 IR Inten    --      0.2407                 4.4481                 4.5922

                     31                     32                     33
                      A                      A                      A
 Frequencies --   1243.0273              1260.4484              1304.8608
 Red. masses --      2.0816                 1.3503                 3.1543
 Frc consts  --      1.8950                 1.2640                 3.1644
 IR Inten    --      9.3084                 3.3038                29.3824

                     34                     35                     36
                      A                      A                      A
 Frequencies --   1364.9158              1386.4311              1438.8142
 Red. masses --      2.4779                 1.2357                 1.4281
 Frc consts  --      2.7199                 1.3994                 1.7418
 IR Inten    --     12.5219                73.6392                31.0919

                     37                     38                     39
                      A                      A                      A
 Frequencies --   1460.9793              1474.5268              1497.8551
 Red. masses --      1.0886                 1.0926                 1.1608
 Frc consts  --      1.3690                 1.3997                 1.5344
 IR Inten    --      2.5266                 1.7677                 1.1017

                     40                     41                     42
                      A                      A                      A
 Frequencies --   1500.5900              1803.3928              2935.0194
 Red. masses --      1.4270                10.2627                 1.0860
 Frc consts  --      1.8932                19.6650                 5.5118
 IR Inten    --      1.0022               179.1817                60.7065

                     43                     44                     45
                      A                      A                      A
 Frequencies --   3049.0603              3067.2771              3099.5365
 Red. masses --      1.0604                 1.0607                 1.1055
 Frc consts  --      5.8082                 5.8799                 6.2574
 IR Inten    --     32.2374                33.8404                16.8228

                     46                     47                     48
                      A                      A                      A
 Frequencies --   3121.0320              3129.6757              3133.5524
 Red. masses --      1.0531                 1.0553                 1.1061
 Frc consts  --      6.0440                 6.0901                 6.3990
 IR Inten    --     12.9516                11.4747                16.2706

                     49                     50                     51
                      A                      A                      A
 Frequencies --   3201.7675              3222.6869              3672.0827
 Red. masses --      1.1172                 1.1157                 1.0646
 Frc consts  --      6.7476                 6.8268                 8.4578
 IR Inten    --      3.6193                 6.3470                76.7354

 - Thermochemistry -
 -------------------
 Temperature   298.150 Kelvin.  Pressure   1.00000 Atm.
 Atom     1 has atomic number  8 and mass  15.99491

 Molecular mass:   126.06808 amu.
 Principal axes and moments of inertia in atomic units:
                           1         2         3
     Eigenvalues --   758.577341234.648031407.38489
           X            0.99965  -0.02506  -0.00823
           Y            0.02483   0.99933  -0.02670
           Z            0.00889   0.02649   0.99961
 This molecule is an asymmetric top.
 Rotational symmetry number  1.
 Warning -- assumption of classical behavior for rotation
           may cause significant error
 Rotational temperatures (Kelvin)      0.11418     0.07015     0.06154
 Rotational constants (GHZ):           2.37911     1.46175     1.28234
 Zero-point vibrational energy     414277.1 (Joules/Mol)
                                   99.01461 (Kcal/Mol)
 Warning -- explicit consideration of  12 degrees of freedom as
           vibrations may cause significant error
 Vibrational temperatures:    111.13   153.33   277.55   319.65   411.38
          (Kelvin)            434.13   497.89   594.26   643.48   727.14
                              785.36   842.80  1067.60  1124.94  1197.34
                             1238.46  1268.20  1285.67  1324.68  1359.12
                             1370.66  1435.10  1518.51  1546.58  1549.57
                             1586.71  1641.05  1713.50  1716.42  1758.62
                             1788.44  1813.50  1877.40  1963.81  1994.76
                             2070.13  2102.02  2121.51  2155.08  2159.01
                             2594.68  4222.83  4386.91  4413.12  4459.54
                             4490.46  4502.90  4508.48  4606.62  4636.72
                             5283.30

 Zero-point correction=                           0.157790 (Hartree/Particle)
 Thermal correction to Energy=                    0.166454
 Thermal correction to Enthalpy=                  0.167399
 Thermal correction to Gibbs Free Energy=         0.124533
 Sum of electronic and zero-point Energies=           -423.013606
 Sum of electronic and thermal Energies=              -423.004941
 Sum of electronic and thermal Enthalpies=            -423.003997
 Sum of electronic and thermal Free Energies=         -423.046862

                     E (Thermal)             CV                S
                      KCal/Mol        Cal/Mol-Kelvin    Cal/Mol-Kelvin
 Total                  104.452             33.304             90.217
 Electronic               0.000              0.000              0.000
 Translational            0.889              2.981             40.409
 Rotational               0.889              2.981             28.668
 Vibrational            102.674             27.343             21.141
 Vibration     1          0.599              1.964              3.960
 Vibration     2          0.605              1.944              3.330
 Vibration     3          0.635              1.850              2.200
 Vibration     4          0.648              1.807              1.941
 Vibration     5          0.684              1.700              1.498
 Vibration     6          0.694              1.670              1.407
 Vibration     7          0.724              1.583              1.184
 Vibration     8          0.777              1.442              0.916
 Vibration     9          0.806              1.367              0.804
 Vibration    10          0.861              1.238              0.645
 Vibration    11          0.901              1.149              0.553
 Vibration    12          0.943              1.062              0.475

 Optimization completed.
    -- Stationary point found.
 Normal termination of Gaussian 09 at Mon Jan 27 17:32:20 2020.
