 Gaussian 09, Revision D.01,
 Gaussian 09:  ES64L-G09RevD.01 24-Apr-2013

 -----------------------------
 # b3lyp 6-31G(2df,p) opt Freq
 -----------------------------

 -----
 titel
 -----
 Symbolic Z-matrix:
 Charge =  0 Multiplicity = 1

 SCF Done:  E(RB3LYP) =  -423.198340320     A.U. after   14 cycles
 Optimization completed.
    -- Stationary point found.
 Normal termination of Gaussian 09 at Tue Jan 28 02:51:22 2020.

 ----------------------------------------------------------------------
 #N Geom=AllCheck Guess=TCheck SCRF=Check GenChk RB3LYP/6-31G(2df,p) Fr
 eq
 ----------------------------------------------------------------------

 Structure from the checkpoint file:  "/scratch/puck/g09_b4c5ba77-626a-4015-9c9e-658cee9024ea/Gau-6176.chk"
 -----
 titel
 -----
 Charge =  0 Multiplicity = 1

                         Standard orientation:
 ---------------------------------------------------------------------
 Center     Atomic      Atomic             Coordinates (Angstroms)
 Number     Number       Type             X           Y           Z
 ---------------------------------------------------------------------
      1          6           0       -1.578405    1.657744    0.464618
      2          6           0       -1.064301    0.644710   -0.560709
      3          8           0        0.319463    0.803057   -0.862174
      4          6           0        1.063690   -0.149991   -0.121422
      5          6           0        1.948177    0.347300    0.994509
      6          6           0        2.537236   -0.132354   -0.324160
      7          6           0        0.201969   -1.388082    0.000949
      8          6           0       -1.208089   -0.797414   -0.050281
      9          8           0       -2.239610   -1.331017    0.258841
     10          1           0       -1.031027    1.572488    1.407970
     11          1           0       -1.455247    2.674261    0.082696
     12          1           0       -2.638572    1.474656    0.661061
     13          1           0       -1.623196    0.751076   -1.498319
     14          1           0        1.957127    1.415766    1.176862
     15          1           0        2.077692   -0.272489    1.875969
     16          1           0        2.924980    0.623680   -0.997799
     17          1           0        3.068480   -1.077857   -0.345230
     18          1           0        0.324614   -2.052596   -0.864525
     19          1           0        0.354666   -1.976786    0.906951
 ---------------------------------------------------------------------

 SCF Done:  E(RB3LYP) =  -423.198340320     A.U. after    1 cycles

 The electronic state is 1-A.
 Alpha  occ. eigenvalues --  -19.14929 -19.13961 -10.27474 -10.24882 -10.24121
 Alpha  occ. eigenvalues --  -10.19940 -10.19093 -10.18920 -10.18401  -1.05880
 Alpha  occ. eigenvalues --   -1.04178  -0.85945  -0.77352  -0.75275  -0.64806
 Alpha  occ. eigenvalues --   -0.61208  -0.58029  -0.54482  -0.50225  -0.48848
 Alpha  occ. eigenvalues --   -0.46617  -0.45651  -0.43729  -0.42136  -0.40847
 Alpha  occ. eigenvalues --   -0.38861  -0.38087  -0.37522  -0.37039  -0.34820
 Alpha  occ. eigenvalues --   -0.32566  -0.30591  -0.24482  -0.24230
 Alpha virt. eigenvalues --   -0.02443   0.08349   0.09690   0.11039   0.11673
 Alpha virt. eigenvalues --    0.13305   0.14405   0.15422   0.15987   0.16737
 Alpha virt. eigenvalues --    0.18274   0.18467   0.19451   0.22042   0.22565

 Mulliken charges:
               1
     1  C   -0.399318
     2  C    0.013739
     3  O   -0.301058
     4  C    0.439141
     5  C   -0.322468
     6  C   -0.338218
     7  C   -0.419987
     8  C    0.377535
     9  O   -0.309436
    10  H    0.125213
    11  H    0.127344
    12  H    0.138362
    13  H    0.108671
    14  H    0.123573
    15  H    0.113728
    16  H    0.129234
    17  H    0.117964
    18  H    0.139149
    19  H    0.136834
 Sum of Mulliken charges =   0.00000

 Dipole moment (field-independent basis, Debye):
    X=              1.6806    Y=              0.3750    Z=              0.1803  Tot=              1.7314
 Quadrupole moment (field-independent basis, Debye-Ang):
   XX=            -57.4634   YY=            -53.0342   ZZ=            -52.5634
   XY=             -6.1498   XZ=              2.1182   YZ=              1.3881

  Exact polarizability:  88.097  -2.067  74.341  -0.091   0.166  64.275
 Approx polarizability: 119.775   2.243 105.173  -2.399  -2.438  99.948

                      1                      2                      3
                      A                      A                      A
 Frequencies --     68.4006                88.0277               223.7688
 Red. masses --      3.4702                 3.6359                 1.0350
 Frc consts  --      0.0096                 0.0166                 0.0305
 IR Inten    --      5.1917                 0.2467                 0.3965

                      4                      5                      6
                      A                      A                      A
 Frequencies --    224.9616               269.0180               313.3804
 Red. masses --      2.8988                 2.6413                 2.1360
 Frc consts  --      0.0864                 0.1126                 0.1236
 IR Inten    --      2.0531                 1.4497                 0.7155

                      7                      8                      9
                      A                      A                      A
 Frequencies --    368.7672               436.9841               481.4566
 Red. masses --      3.1039                 3.1687                 3.9018
 Frc consts  --      0.2487                 0.3565                 0.5329
 IR Inten    --      4.6602                 7.0843                10.0769

                     10                     11                     12
                      A                      A                      A
 Frequencies --    514.7048               560.5993               653.9197
 Red. masses --      4.2492                 2.9513                 4.3954
 Frc consts  --      0.6632                 0.5465                 1.1074
 IR Inten    --      0.8973                 0.4936                 0.3958

                     13                     14                     15
                      A                      A                      A
 Frequencies --    757.0936               768.2938               778.9878
 Red. masses --      1.8267                 2.0040                 1.8084
 Frc consts  --      0.6169                 0.6970                 0.6466
 IR Inten    --      5.6397                 5.7334                 6.0413

                     16                     17                     18
                      A                      A                      A
 Frequencies --    845.3962               891.9070               922.5978
 Red. masses --      2.0522                 2.1503                 1.4723
 Frc consts  --      0.8641                 1.0078                 0.7384
 IR Inten    --      8.6754                 2.6612                 0.5219

                     19                     20                     21
                      A                      A                      A
 Frequencies --    935.0105               961.4545               992.4330
 Red. masses --      1.8562                 2.0035                 2.6032
 Frc consts  --      0.9561                 1.0912                 1.5106
 IR Inten    --      7.6250                12.1036                 5.7503

                     22                     23                     24
                      A                      A                      A
 Frequencies --   1038.1666              1049.8974              1077.8336
 Red. masses --      1.9900                 1.5569                 1.4735
 Frc consts  --      1.2637                 1.0111                 1.0086
 IR Inten    --     34.8756                23.6841                 0.4451

                     25                     26                     27
                      A                      A                      A
 Frequencies --   1096.8602              1121.0882              1139.7306
 Red. masses --      2.7774                 3.2782                 2.2053
 Frc consts  --      1.9687                 2.4275                 1.6878
 IR Inten    --     19.2925                23.4659                54.0741

                     28                     29                     30
                      A                      A                      A
 Frequencies --   1186.8789              1190.6901              1231.7381
 Red. masses --      1.3934                 1.4325                 1.4699
 Frc consts  --      1.1565                 1.1966                 1.3140
 IR Inten    --      9.2363                13.0625                 9.2560

                     31                     32                     33
                      A                      A                      A
 Frequencies --   1258.0243              1309.7350              1360.9011
 Red. masses --      2.5829                 1.6706                 1.3242
 Frc consts  --      2.4084                 1.6884                 1.4450
 IR Inten    --     76.7291                 5.0087                 7.8023

                     34                     35                     36
                      A                      A                      A
 Frequencies --   1379.0978              1394.3158              1449.1537
 Red. masses --      2.1426                 1.2262                 1.1123
 Frc consts  --      2.4010                 1.4045                 1.3762
 IR Inten    --     22.9989                 7.2289                 7.4106

                     37                     38                     39
                      A                      A                      A
 Frequencies --   1452.4877              1486.6600              1495.9211
 Red. masses --      1.0964                 1.0501                 1.0517
 Frc consts  --      1.3628                 1.3674                 1.3866
 IR Inten    --      2.9381                 4.7055                 1.5184

                     40                     41                     42
                      A                      A                      A
 Frequencies --   1501.7437              1858.0481              3030.6108
 Red. masses --      1.6952                12.7145                 1.0683
 Frc consts  --      2.2524                25.8620                 5.7810
 IR Inten    --     19.5824               193.9833                 7.4557

                     43                     44                     45
                      A                      A                      A
 Frequencies --   3039.1846              3044.9746              3121.9690
 Red. masses --      1.0833                 1.0341                 1.0958
 Frc consts  --      5.8953                 5.6491                 6.2927
 IR Inten    --     23.0728                13.6044                 2.4402

                     46                     47                     48
                      A                      A                      A
 Frequencies --   3122.3516              3129.3281              3129.8216
 Red. masses --      1.1003                 1.1028                 1.0528
 Frc consts  --      6.3201                 6.3631                 6.0763
 IR Inten    --     21.0191                11.5249                13.3330

                     49                     50                     51
                      A                      A                      A
 Frequencies --   3135.3686              3216.9358              3230.6468
 Red. masses --      1.0569                 1.1182                 1.1156
 Frc consts  --      6.1215                 6.8180                 6.8601
 IR Inten    --      6.4462                 0.2130                 9.5678

 - Thermochemistry -
 -------------------
 Temperature   298.150 Kelvin.  Pressure   1.00000 Atm.
 Atom     1 has atomic number  6 and mass  12.00000

 Molecular mass:   126.06808 amu.
 Principal axes and moments of inertia in atomic units:
                           1         2         3
     Eigenvalues --   635.030461301.858951616.54381
           X            0.99821  -0.05961   0.00381
           Y            0.05944   0.99760   0.03559
           Z           -0.00592  -0.03530   0.99936
 This molecule is an asymmetric top.
 Rotational symmetry number  1.
 Warning -- assumption of classical behavior for rotation
           may cause significant error
 Rotational temperatures (Kelvin)      0.13639     0.06653     0.05358
 Rotational constants (GHZ):           2.84198     1.38628     1.11642
 Zero-point vibrational energy     414729.3 (Joules/Mol)
                                   99.12268 (Kcal/Mol)
 Warning -- explicit consideration of  11 degrees of freedom as
           vibrations may cause significant error
 Vibrational temperatures:     98.41   126.65   321.95   323.67   387.06
          (Kelvin)            450.88   530.57   628.72   692.71   740.54
                              806.58   940.84  1089.29  1105.40  1120.79
                             1216.34  1283.25  1327.41  1345.27  1383.32
                             1427.89  1493.69  1510.57  1550.76  1578.14
                             1612.99  1639.82  1707.65  1713.14  1772.19
                             1810.01  1884.41  1958.03  1984.21  2006.11
                             2085.01  2089.80  2138.97  2152.29  2160.67
                             2673.31  4360.37  4372.70  4381.03  4491.81
                             4492.36  4502.40  4503.11  4511.09  4628.45
                             4648.17

 Zero-point correction=                           0.157962 (Hartree/Particle)
 Thermal correction to Energy=                    0.166493
 Thermal correction to Enthalpy=                  0.167437
 Thermal correction to Gibbs Free Energy=         0.124624
 Sum of electronic and zero-point Energies=           -423.040378
 Sum of electronic and thermal Energies=              -423.031847
 Sum of electronic and thermal Enthalpies=            -423.030903
 Sum of electronic and thermal Free Energies=         -423.073717

                     E (Thermal)             CV                S
                      KCal/Mol        Cal/Mol-Kelvin    Cal/Mol-Kelvin
 Total                  104.476             32.730             90.109
 Electronic               0.000              0.000              0.000
 Translational            0.889              2.981             40.409
 Rotational               0.889              2.981             28.682
 Vibrational            102.698             26.768             21.018
 Vibration     1          0.598              1.969              4.199
 Vibration     2          0.601              1.958              3.703
 Vibration     3          0.649              1.805              1.928
 Vibration     4          0.650              1.803              1.919
 Vibration     5          0.673              1.730              1.603
 Vibration     6          0.701              1.648              1.344
 Vibration     7          0.741              1.536              1.085
 Vibration     8          0.797              1.390              0.836
 Vibration     9          0.838              1.291              0.706
 Vibration    10          0.870              1.217              0.622
 Vibration    11          0.916              1.117              0.523

 Optimization completed.
    -- Stationary point found.
 Normal termination of Gaussian 09 at Tue Jan 28 03:33:43 2020.
