 Gaussian 09, Revision D.01,
 Gaussian 09:  ES64L-G09RevD.01 24-Apr-2013

 -----------------------------
 # b3lyp 6-31G(2df,p) opt Freq
 -----------------------------

 -----
 titel
 -----
 Symbolic Z-matrix:
 Charge =  0 Multiplicity = 1

 SCF Done:  E(RB3LYP) =  -423.191341760     A.U. after   14 cycles
 Optimization completed.
    -- Stationary point found.
 Normal termination of Gaussian 09 at Mon Jan 27 17:58:36 2020.

 ----------------------------------------------------------------------
 #N Geom=AllCheck Guess=TCheck SCRF=Check GenChk RB3LYP/6-31G(2df,p) Fr
 eq
 ----------------------------------------------------------------------

 Structure from the checkpoint file:  "/scratch/puck/g09_5e2d7d14-bf2f-47f1-ae6f-b7f5e2595573/Gau-61630.chk"
 -----
 titel
 -----
 Charge =  0 Multiplicity = 1

                         Standard orientation:
 ---------------------------------------------------------------------
 Center     Atomic      Atomic             Coordinates (Angstroms)
 Number     Number       Type             X           Y           Z
 ---------------------------------------------------------------------
      1          8           0        0.001633    1.986740   -0.383100
      2          6           0       -0.459755    0.766558    0.115517
      3          6           0       -1.835936    0.678027    0.724666
      4          6           0       -1.547731    0.033890   -0.621007
      5          6           0       -1.210971   -1.447429   -0.633853
      6          6           0       -0.135402   -1.619050    0.469226
      7          6           0        0.588284   -0.245130    0.585659
      8          6           0        1.793358   -0.186578   -0.334174
      9          8           0        2.922409    0.010312    0.033773
     10          1           0        0.296348    2.525849    0.359755
     11          1           0       -2.010770    0.058283    1.598727
     12          1           0       -2.414323    1.594755    0.694358
     13          1           0       -2.000312    0.486633   -1.495528
     14          1           0       -2.078242   -2.092259   -0.456574
     15          1           0       -0.805290   -1.718844   -1.615159
     16          1           0       -0.600058   -1.857584    1.429636
     17          1           0        0.558807   -2.435542    0.250426
     18          1           0        0.947612   -0.054698    1.602484
     19          1           0        1.562807   -0.364737   -1.409712
 ---------------------------------------------------------------------

 SCF Done:  E(RB3LYP) =  -423.191341760     A.U. after    1 cycles

 The electronic state is 1-A.
 Alpha  occ. eigenvalues --  -19.15286 -19.13418 -10.26524 -10.24674 -10.19834
 Alpha  occ. eigenvalues --  -10.19703 -10.19554 -10.19330 -10.19049  -1.04329
 Alpha  occ. eigenvalues --   -1.03689  -0.88335  -0.78234  -0.72866  -0.64385
 Alpha  occ. eigenvalues --   -0.59807  -0.57386  -0.55930  -0.53046  -0.47632
 Alpha  occ. eigenvalues --   -0.46926  -0.45070  -0.42827  -0.42607  -0.40978
 Alpha  occ. eigenvalues --   -0.39749  -0.37062  -0.36232  -0.34727  -0.34690
 Alpha  occ. eigenvalues --   -0.32270  -0.27492  -0.27076  -0.24095
 Alpha virt. eigenvalues --   -0.01599   0.07349   0.08996   0.09479   0.11086
 Alpha virt. eigenvalues --    0.12323   0.13377   0.15228   0.16011   0.16299
 Alpha virt. eigenvalues --    0.18728   0.19670   0.20036   0.20680   0.23481

 Mulliken charges:
               1
     1  O   -0.467920
     2  C    0.403054
     3  C   -0.364356
     4  C   -0.062531
     5  C   -0.219600
     6  C   -0.260172
     7  C   -0.161445
     8  C    0.172954
     9  O   -0.258970
    10  H    0.288309
    11  H    0.110362
    12  H    0.118662
    13  H    0.097507
    14  H    0.103906
    15  H    0.108432
    16  H    0.117264
    17  H    0.114743
    18  H    0.083464
    19  H    0.076337
 Sum of Mulliken charges =   0.00000

 Dipole moment (field-independent basis, Debye):
    X=             -2.7613    Y=             -0.5687    Z=              0.8809  Tot=              2.9537
 Quadrupole moment (field-independent basis, Debye-Ang):
   XX=            -63.3245   YY=            -49.7803   ZZ=            -51.7015
   XY=             -0.1901   XZ=             -0.5207   YZ=              3.1799

  Exact polarizability:  83.759   1.883  73.277   0.574   2.730  68.029
 Approx polarizability: 120.647   5.952 103.378   3.054   3.898 106.516

                      1                      2                      3
                      A                      A                      A
 Frequencies --     67.3387               108.7450               209.5181
 Red. masses --      5.0087                 3.8845                 2.3540
 Frc consts  --      0.0134                 0.0271                 0.0609
 IR Inten    --      6.3338                 2.3293                 3.2590

                      4                      5                      6
                      A                      A                      A
 Frequencies --    237.1164               309.6363               317.6854
 Red. masses --      2.5476                 2.1309                 1.1281
 Frc consts  --      0.0844                 0.1204                 0.0671
 IR Inten    --      2.9162                 2.4825                91.9255

                      7                      8                      9
                      A                      A                      A
 Frequencies --    365.1814               404.7723               442.0870
 Red. masses --      3.8684                 2.5860                 4.4970
 Frc consts  --      0.3039                 0.2496                 0.5178
 IR Inten    --      4.5987                 0.4708                20.7112

                     10                     11                     12
                      A                      A                      A
 Frequencies --    478.5962               583.5656               637.7527
 Red. masses --      3.3269                 3.4592                 2.4284
 Frc consts  --      0.4490                 0.6941                 0.5819
 IR Inten    --     11.5378                 1.6055                 1.2445

                     13                     14                     15
                      A                      A                      A
 Frequencies --    765.7912               805.7859               836.7667
 Red. masses --      3.3097                 1.8178                 1.8625
 Frc consts  --      1.1435                 0.6954                 0.7684
 IR Inten    --      4.7571                 3.5796                 1.9971

                     16                     17                     18
                      A                      A                      A
 Frequencies --    898.0977               910.7346               930.6732
 Red. masses --      2.4870                 2.0995                 1.5422
 Frc consts  --      1.1819                 1.0260                 0.7870
 IR Inten    --      3.1395                 8.2448                 4.5775

                     19                     20                     21
                      A                      A                      A
 Frequencies --    946.3477               989.3956               997.1928
 Red. masses --      2.5185                 1.9507                 2.0224
 Frc consts  --      1.3289                 1.1250                 1.1849
 IR Inten    --     12.6056                 8.9499                11.0448

                     22                     23                     24
                      A                      A                      A
 Frequencies --   1042.0795              1053.0434              1073.8416
 Red. masses --      1.3067                 1.6411                 1.5558
 Frc consts  --      0.8360                 1.0722                 1.0570
 IR Inten    --      3.8880                10.5193                 5.0791

                     25                     26                     27
                      A                      A                      A
 Frequencies --   1088.4785              1131.1374              1196.3772
 Red. masses --      2.3113                 2.2398                 1.3442
 Frc consts  --      1.6134                 1.6885                 1.1335
 IR Inten    --      4.2259                 6.8208                 1.2780

                     28                     29                     30
                      A                      A                      A
 Frequencies --   1205.3997              1225.6123              1259.5897
 Red. masses --      1.3208                 1.4806                 2.3508
 Frc consts  --      1.1307                 1.3104                 2.1975
 IR Inten    --      3.1943                63.8343                52.1069

                     31                     32                     33
                      A                      A                      A
 Frequencies --   1276.2710              1304.7465              1323.5127
 Red. masses --      1.4942                 1.7722                 1.4606
 Frc consts  --      1.4340                 1.7776                 1.5075
 IR Inten    --     15.8005                 0.9427                13.4544

                     34                     35                     36
                      A                      A                      A
 Frequencies --   1337.0196              1349.9439              1406.5568
 Red. masses --      1.4229                 1.5995                 1.6675
 Frc consts  --      1.4987                 1.7174                 1.9437
 IR Inten    --      4.5044                14.9211                 5.0654

                     37                     38                     39
                      A                      A                      A
 Frequencies --   1428.6747              1483.7967              1492.4491
 Red. masses --      1.2168                 1.4571                 1.0776
 Frc consts  --      1.4634                 1.8901                 1.4142
 IR Inten    --      3.9095                 7.6379                 3.7289

                     40                     41                     42
                      A                      A                      A
 Frequencies --   1508.9754              1834.1257              2867.8565
 Red. masses --      1.1367                10.1857                 1.0821
 Frc consts  --      1.5250                20.1883                 5.2438
 IR Inten    --      6.3826               188.1110                81.5591

                     43                     44                     45
                      A                      A                      A
 Frequencies --   3037.1299              3053.4846              3063.7878
 Red. masses --      1.0602                 1.0768                 1.0741
 Frc consts  --      5.7616                 5.9155                 5.9403
 IR Inten    --     36.9934                13.9015                23.8981

                     46                     47                     48
                      A                      A                      A
 Frequencies --   3073.2510              3100.7563              3126.7712
 Red. masses --      1.0985                 1.1046                 1.0549
 Frc consts  --      6.1126                 6.2575                 6.0764
 IR Inten    --     26.0077                23.1971                13.2242

                     49                     50                     51
                      A                      A                      A
 Frequencies --   3181.7025              3217.9518              3791.2488
 Red. masses --      1.0915                 1.1154                 1.0661
 Frc consts  --      6.5103                 6.8049                 9.0284
 IR Inten    --      7.0339                 7.9223                24.0527

 - Thermochemistry -
 -------------------
 Temperature   298.150 Kelvin.  Pressure   1.00000 Atm.
 Atom     1 has atomic number  8 and mass  15.99491

 Molecular mass:   126.06808 amu.
 Principal axes and moments of inertia in atomic units:
                           1         2         3
     Eigenvalues --   717.470361189.227801611.57435
           X            0.99997   0.00667  -0.00388
           Y           -0.00660   0.99980   0.01877
           Z            0.00400  -0.01875   0.99982
 This molecule is an asymmetric top.
 Rotational symmetry number  1.
 Warning -- assumption of classical behavior for rotation
           may cause significant error
 Rotational temperatures (Kelvin)      0.12072     0.07283     0.05374
 Rotational constants (GHZ):           2.51542     1.51757     1.11986
 Zero-point vibrational energy     417367.2 (Joules/Mol)
                                   99.75316 (Kcal/Mol)
 Warning -- explicit consideration of  11 degrees of freedom as
           vibrations may cause significant error
 Vibrational temperatures:     96.89   156.46   301.45   341.16   445.50
          (Kelvin)            457.08   525.41   582.38   636.06   688.59
                              839.62   917.58  1101.80  1159.34  1203.92
                             1292.16  1310.34  1339.03  1361.58  1423.52
                             1434.74  1499.32  1515.09  1545.02  1566.08
                             1627.45  1721.32  1734.30  1763.38  1812.27
                             1836.27  1877.24  1904.24  1923.67  1942.27
                             2023.72  2055.54  2134.85  2147.30  2171.08
                             2638.89  4126.20  4369.75  4393.28  4408.10
                             4421.72  4461.29  4498.72  4577.75  4629.91
                             5454.75

 Zero-point correction=                           0.158967 (Hartree/Particle)
 Thermal correction to Energy=                    0.167435
 Thermal correction to Enthalpy=                  0.168379
 Thermal correction to Gibbs Free Energy=         0.125775
 Sum of electronic and zero-point Energies=           -423.032375
 Sum of electronic and thermal Energies=              -423.023907
 Sum of electronic and thermal Enthalpies=            -423.022963
 Sum of electronic and thermal Free Energies=         -423.065566

                     E (Thermal)             CV                S
                      KCal/Mol        Cal/Mol-Kelvin    Cal/Mol-Kelvin
 Total                  105.067             32.498             89.666
 Electronic               0.000              0.000              0.000
 Translational            0.889              2.981             40.409
 Rotational               0.889              2.981             28.710
 Vibrational            103.289             26.536             20.547
 Vibration     1          0.598              1.970              4.230
 Vibration     2          0.606              1.942              3.291
 Vibration     3          0.642              1.826              2.048
 Vibration     4          0.656              1.784              1.824
 Vibration     5          0.699              1.655              1.364
 Vibration     6          0.704              1.640              1.322
 Vibration     7          0.738              1.544              1.100
 Vibration     8          0.770              1.460              0.945
 Vibration     9          0.802              1.378              0.820
 Vibration    10          0.835              1.298              0.714
 Vibration    11          0.940              1.067              0.479

 Optimization completed.
    -- Stationary point found.
 Normal termination of Gaussian 09 at Mon Jan 27 18:41:54 2020.
