 Gaussian 09, Revision D.01,
 Gaussian 09:  ES64L-G09RevD.01 24-Apr-2013

 -----------------------------
 # b3lyp 6-31G(2df,p) opt Freq
 -----------------------------

 -----
 titel
 -----
 Symbolic Z-matrix:
 Charge =  0 Multiplicity = 1

 SCF Done:  E(RB3LYP) =  -423.143681887     A.U. after   14 cycles
 Optimization completed.
    -- Stationary point found.
 Normal termination of Gaussian 09 at Mon Jan 27 11:27:59 2020.

 ----------------------------------------------------------------------
 #N Geom=AllCheck Guess=TCheck SCRF=Check GenChk RB3LYP/6-31G(2df,p) Fr
 eq
 ----------------------------------------------------------------------

 Structure from the checkpoint file:  "/scratch/puck/g09_9eedc79f-b944-42a9-a6fc-aa9ca985fcd9/Gau-60962.chk"
 -----
 titel
 -----
 Charge =  0 Multiplicity = 1

                         Standard orientation:
 ---------------------------------------------------------------------
 Center     Atomic      Atomic             Coordinates (Angstroms)
 Number     Number       Type             X           Y           Z
 ---------------------------------------------------------------------
      1          6           0       -2.239373   -0.477735    0.183472
      2          6           0       -1.339986    0.430167   -0.633625
      3          8           0       -0.802734    1.586524   -0.073654
      4          6           0        0.428099    1.498343    0.656369
      5          6           0        1.597120    1.062706   -0.192084
      6          6           0        1.974681   -0.195000   -0.418581
      7          6           0        1.338171   -1.454293    0.106184
      8          8           0        0.033531   -1.307568    0.640084
      9          6           0       -0.926689   -0.997233   -0.323421
     10          1           0       -2.265298   -0.266429    1.247506
     11          1           0       -3.168182   -0.848964   -0.235015
     12          1           0       -1.635586    0.606499   -1.665801
     13          1           0        0.591794    2.520290    1.009237
     14          1           0        0.312730    0.850692    1.529160
     15          1           0        2.150323    1.859045   -0.684434
     16          1           0        2.837567   -0.376014   -1.058339
     17          1           0        1.330570   -2.209603   -0.698868
     18          1           0        1.941885   -1.875779    0.920279
     19          1           0       -0.934314   -1.693120   -1.165058
 ---------------------------------------------------------------------

 SCF Done:  E(RB3LYP) =  -423.143681887     A.U. after    1 cycles

 The electronic state is 1-A.
 Alpha  occ. eigenvalues --  -19.15309 -19.13783 -10.23954 -10.23648 -10.23036
 Alpha  occ. eigenvalues --  -10.22383 -10.19001 -10.18283 -10.17834  -1.05084
 Alpha  occ. eigenvalues --   -1.02330  -0.84403  -0.78714  -0.72587  -0.65686
 Alpha  occ. eigenvalues --   -0.60033  -0.59258  -0.53927  -0.50446  -0.49764
 Alpha  occ. eigenvalues --   -0.48846  -0.45465  -0.45041  -0.42288  -0.40836
 Alpha  occ. eigenvalues --   -0.38890  -0.38433  -0.35305  -0.33735  -0.32157
 Alpha  occ. eigenvalues --   -0.29884  -0.25968  -0.24269  -0.23144
 Alpha virt. eigenvalues --    0.00630   0.07674   0.10412   0.12154   0.12603
 Alpha virt. eigenvalues --    0.13288   0.14658   0.15466   0.16776   0.17578
 Alpha virt. eigenvalues --    0.17957   0.19183   0.20266   0.20958   0.23630

 Mulliken charges:
               1
     1  C   -0.355517
     2  C    0.103366
     3  O   -0.265878
     4  C   -0.117888
     5  C   -0.081413
     6  C   -0.040589
     7  C   -0.134889
     8  O   -0.241340
     9  C    0.079305
    10  H    0.129793
    11  H    0.112945
    12  H    0.095258
    13  H    0.103981
    14  H    0.115981
    15  H    0.093960
    16  H    0.091976
    17  H    0.100470
    18  H    0.124637
    19  H    0.085842
 Sum of Mulliken charges =   0.00000

 Dipole moment (field-independent basis, Debye):
    X=              1.1290    Y=             -1.0243    Z=             -0.8004  Tot=              1.7218
 Quadrupole moment (field-independent basis, Debye-Ang):
   XX=            -50.1669   YY=            -54.1899   ZZ=            -52.2569
   XY=              1.1677   XZ=              0.4300   YZ=              2.5202

  Exact polarizability:  85.537  -1.540  82.935  -2.509   3.280  62.252
 Approx polarizability: 112.770  -8.019 128.895  -3.569   4.129  96.455

                      1                      2                      3
                      A                      A                      A
 Frequencies --     60.8067               221.0739               233.4704
 Red. masses --      3.2950                 2.8743                 2.8958
 Frc consts  --      0.0072                 0.0828                 0.0930
 IR Inten    --      2.8309                 1.0597                 2.5486

                      4                      5                      6
                      A                      A                      A
 Frequencies --    284.4025               293.8373               336.5728
 Red. masses --      3.8738                 4.9184                 3.1465
 Frc consts  --      0.1846                 0.2502                 0.2100
 IR Inten    --      1.0301                 5.5502                 1.3433

                      7                      8                      9
                      A                      A                      A
 Frequencies --    413.2529               472.5408               526.6422
 Red. masses --      2.4465                 2.4857                 2.3944
 Frc consts  --      0.2462                 0.3270                 0.3913
 IR Inten    --      0.2421                 2.2410                 6.2832

                     10                     11                     12
                      A                      A                      A
 Frequencies --    672.9125               724.4064               741.7972
 Red. masses --      2.4852                 2.7524                 2.2712
 Frc consts  --      0.6630                 0.8510                 0.7363
 IR Inten    --      6.0046                21.8900                20.5089

                     13                     14                     15
                      A                      A                      A
 Frequencies --    756.4789               787.5513               836.7291
 Red. masses --      2.7065                 2.4000                 1.6032
 Frc consts  --      0.9126                 0.8770                 0.6613
 IR Inten    --     10.9793                 5.8695                 3.7019

                     16                     17                     18
                      A                      A                      A
 Frequencies --    875.2310               951.1600               997.7300
 Red. masses --      3.2342                 3.1362                 1.9376
 Frc consts  --      1.4597                 1.6717                 1.1364
 IR Inten    --      1.5652                22.1984                 2.7411

                     19                     20                     21
                      A                      A                      A
 Frequencies --   1000.2774              1007.1731              1032.5235
 Red. masses --      1.6723                 2.0553                 1.7115
 Frc consts  --      0.9858                 1.2284                 1.0750
 IR Inten    --     28.9737                46.1895                 1.8174

                     22                     23                     24
                      A                      A                      A
 Frequencies --   1046.2300              1074.4203              1101.8646
 Red. masses --      1.6690                 1.9520                 2.3067
 Frc consts  --      1.0763                 1.3276                 1.6501
 IR Inten    --     15.7291                14.0719                25.7433

                     25                     26                     27
                      A                      A                      A
 Frequencies --   1123.0406              1138.4249              1168.7062
 Red. masses --      1.8127                 1.7543                 1.6417
 Frc consts  --      1.3470                 1.3396                 1.3211
 IR Inten    --      9.5777                33.0707                14.2052

                     28                     29                     30
                      A                      A                      A
 Frequencies --   1179.2164              1254.0542              1272.6226
 Red. masses --      3.2800                 1.2737                 1.5178
 Frc consts  --      2.6873                 1.1802                 1.4484
 IR Inten    --     13.7671                16.2703                57.8875

                     31                     32                     33
                      A                      A                      A
 Frequencies --   1302.9732              1313.1540              1365.4080
 Red. masses --      1.2578                 1.2194                 1.1868
 Frc consts  --      1.2581                 1.2389                 1.3036
 IR Inten    --     22.9950                29.4459                 2.9011

                     34                     35                     36
                      A                      A                      A
 Frequencies --   1391.4191              1408.1897              1417.5858
 Red. masses --      1.2992                 1.2985                 1.3600
 Frc consts  --      1.4820                 1.5171                 1.6103
 IR Inten    --     32.7065                 8.1175                 5.0656

                     37                     38                     39
                      A                      A                      A
 Frequencies --   1432.5966              1474.5254              1484.9903
 Red. masses --      1.3934                 1.2573                 1.2958
 Frc consts  --      1.6849                 1.6106                 1.6836
 IR Inten    --      5.2302                14.8294                14.1522

                     40                     41                     42
                      A                      A                      A
 Frequencies --   1503.5769              1728.1607              2956.9729
 Red. masses --      1.1029                 6.8780                 1.0711
 Frc consts  --      1.4691                12.1027                 5.5179
 IR Inten    --      5.3892                 1.0738                57.6374

                     43                     44                     45
                      A                      A                      A
 Frequencies --   3040.9272              3058.4841              3073.1489
 Red. masses --      1.0885                 1.0571                 1.0866
 Frc consts  --      5.9306                 5.8258                 6.0465
 IR Inten    --     23.2025                44.7621                30.9017

                     46                     47                     48
                      A                      A                      A
 Frequencies --   3100.4512              3122.5013              3131.8163
 Red. masses --      1.1064                 1.0877                 1.0845
 Frc consts  --      6.2663                 6.2485                 6.2671
 IR Inten    --     12.0134                31.1874                11.9117

                     49                     50                     51
                      A                      A                      A
 Frequencies --   3133.6740              3160.6877              3225.0460
 Red. masses --      1.0555                 1.0948                 1.1168
 Frc consts  --      6.1071                 6.4437                 6.8437
 IR Inten    --      6.9402                29.6034                 8.4609

 - Thermochemistry -
 -------------------
 Temperature   298.150 Kelvin.  Pressure   1.00000 Atm.
 Atom     1 has atomic number  6 and mass  12.00000

 Molecular mass:   126.06808 amu.
 Principal axes and moments of inertia in atomic units:
                           1         2         3
     Eigenvalues --   739.61552 979.026721483.04702
           X            0.99956   0.02945  -0.00366
           Y           -0.02935   0.99925   0.02541
           Z            0.00440  -0.02529   0.99967
 This molecule is an asymmetric top.
 Rotational symmetry number  1.
 Warning -- assumption of classical behavior for rotation
           may cause significant error
 Rotational temperatures (Kelvin)      0.11711     0.08847     0.05840
 Rotational constants (GHZ):           2.44011     1.84340     1.21691
 Zero-point vibrational energy     421153.9 (Joules/Mol)
                                  100.65820 (Kcal/Mol)
 Warning -- explicit consideration of   9 degrees of freedom as
           vibrations may cause significant error
 Vibrational temperatures:     87.49   318.08   335.91   409.19   422.77
          (Kelvin)            484.25   594.58   679.88   757.72   968.17
                             1042.26  1067.28  1088.40  1133.11  1203.87
                             1259.26  1368.51  1435.51  1439.17  1449.10
                             1485.57  1505.29  1545.85  1585.34  1615.80
                             1637.94  1681.51  1696.63  1804.30  1831.02
                             1874.69  1889.33  1964.52  2001.94  2026.07
                             2039.59  2061.18  2121.51  2136.57  2163.31
                             2486.43  4254.42  4375.21  4400.47  4421.57
                             4460.85  4492.58  4505.98  4508.65  4547.52
                             4640.12

 Zero-point correction=                           0.160409 (Hartree/Particle)
 Thermal correction to Energy=                    0.168163
 Thermal correction to Enthalpy=                  0.169107
 Thermal correction to Gibbs Free Energy=         0.128083
 Sum of electronic and zero-point Energies=           -422.983273
 Sum of electronic and thermal Energies=              -422.975519
 Sum of electronic and thermal Enthalpies=            -422.974575
 Sum of electronic and thermal Free Energies=         -423.015598

                     E (Thermal)             CV                S
                      KCal/Mol        Cal/Mol-Kelvin    Cal/Mol-Kelvin
 Total                  105.524             30.592             86.342
 Electronic               0.000              0.000              0.000
 Translational            0.889              2.981             40.409
 Rotational               0.889              2.981             28.464
 Vibrational            103.746             24.630             17.469
 Vibration     1          0.597              1.973              4.431
 Vibration     2          0.648              1.809              1.950
 Vibration     3          0.654              1.790              1.852
 Vibration     4          0.683              1.703              1.507
 Vibration     5          0.689              1.685              1.452
 Vibration     6          0.717              1.602              1.228
 Vibration     7          0.777              1.441              0.915
 Vibration     8          0.829              1.311              0.730
 Vibration     9          0.882              1.191              0.595

 Optimization completed.
    -- Stationary point found.
 Normal termination of Gaussian 09 at Mon Jan 27 13:44:19 2020.
