 Gaussian 09, Revision D.01,
 Gaussian 09:  ES64L-G09RevD.01 24-Apr-2013

 -----------------------------
 # b3lyp 6-31G(2df,p) opt Freq
 -----------------------------

 -----
 titel
 -----
 Symbolic Z-matrix:
 Charge =  0 Multiplicity = 1

 SCF Done:  E(RB3LYP) =  -423.183834277     A.U. after   14 cycles
 Optimization completed.
    -- Stationary point found.
 Normal termination of Gaussian 09 at Mon Jan 27 22:03:50 2020.

 ----------------------------------------------------------------------
 #N Geom=AllCheck Guess=TCheck SCRF=Check GenChk RB3LYP/6-31G(2df,p) Fr
 eq
 ----------------------------------------------------------------------

 Structure from the checkpoint file:  "/scratch/puck/g09_d956778f-4191-4375-a071-6524d661305e/Gau-180765.chk"
 -----
 titel
 -----
 Charge =  0 Multiplicity = 1

                         Standard orientation:
 ---------------------------------------------------------------------
 Center     Atomic      Atomic             Coordinates (Angstroms)
 Number     Number       Type             X           Y           Z
 ---------------------------------------------------------------------
      1          6           0        2.431215   -0.007830   -0.526436
      2          6           0        1.051810    0.409198   -0.119201
      3          6           0        0.560138    1.649304   -0.032577
      4          6           0       -0.889743    1.708386    0.394769
      5          6           0       -1.285081    0.230333    0.461950
      6          8           0       -1.817393   -0.267927   -0.789212
      7          6           0       -0.769907   -1.252323   -0.911980
      8          6           0        0.006142   -0.619035    0.257698
      9          8           0        0.426871   -1.566474    1.208826
     10          1           0        2.408985   -0.593977   -1.454025
     11          1           0        3.082066    0.855343   -0.687037
     12          1           0        2.889106   -0.652955    0.231953
     13          1           0        1.130558    2.545195   -0.259339
     14          1           0       -1.017692    2.229362    1.353170
     15          1           0       -1.521466    2.226756   -0.336114
     16          1           0       -1.924995   -0.041507    1.308405
     17          1           0       -1.121285   -2.265640   -0.678626
     18          1           0       -0.301717   -1.239368   -1.902517
     19          1           0        0.873175   -1.096200    1.921884
 ---------------------------------------------------------------------

 SCF Done:  E(RB3LYP) =  -423.183834277     A.U. after    1 cycles

 The electronic state is 1-A.
 Alpha  occ. eigenvalues --  -19.14747 -19.12901 -10.23779 -10.22452 -10.22294
 Alpha  occ. eigenvalues --  -10.18818 -10.18602 -10.18506 -10.18481  -1.04538
 Alpha  occ. eigenvalues --   -1.01825  -0.83241  -0.75127  -0.71415  -0.67178
 Alpha  occ. eigenvalues --   -0.64092  -0.55766  -0.54817  -0.50955  -0.47548
 Alpha  occ. eigenvalues --   -0.45892  -0.44608  -0.42932  -0.41579  -0.40650
 Alpha  occ. eigenvalues --   -0.39112  -0.37278  -0.36056  -0.35369  -0.33646
 Alpha  occ. eigenvalues --   -0.30747  -0.26221  -0.24778  -0.24276
 Alpha virt. eigenvalues --    0.01305   0.06943   0.09605   0.11095   0.11756
 Alpha virt. eigenvalues --    0.13505   0.14384   0.15164   0.16115   0.17314
 Alpha virt. eigenvalues --    0.17374   0.19194   0.19921   0.21556   0.22929

 Mulliken charges:
               1
     1  C   -0.494367
     2  C    0.232660
     3  C   -0.161878
     4  C   -0.286249
     5  C    0.064126
     6  O   -0.294754
     7  C   -0.106653
     8  C    0.262483
     9  O   -0.473188
    10  H    0.131964
    11  H    0.123880
    12  H    0.125739
    13  H    0.091519
    14  H    0.101154
    15  H    0.124954
    16  H    0.072973
    17  H    0.105254
    18  H    0.101332
    19  H    0.279052
 Sum of Mulliken charges =   0.00000

 Dipole moment (field-independent basis, Debye):
    X=              1.8450    Y=              1.1077    Z=              1.0420  Tot=              2.3909
 Quadrupole moment (field-independent basis, Debye-Ang):
   XX=            -54.8131   YY=            -53.6640   ZZ=            -50.8337
   XY=             -0.1533   XZ=             -1.7320   YZ=              1.8835

  Exact polarizability:  79.282  -4.612  86.016  -4.040   3.934  64.800
 Approx polarizability: 108.805 -11.759 132.511  -2.508   4.570  98.900

                      1                      2                      3
                      A                      A                      A
 Frequencies --    115.4631               144.4322               213.4708
 Red. masses --      3.8147                 1.0755                 2.4863
 Frc consts  --      0.0300                 0.0132                 0.0668
 IR Inten    --      0.7675                 0.4073                 1.2290

                      4                      5                      6
                      A                      A                      A
 Frequencies --    241.8462               251.2001               290.8966
 Red. masses --      2.6051                 3.1645                 2.2673
 Frc consts  --      0.0898                 0.1176                 0.1130
 IR Inten    --      1.8624                 0.2230                 3.4866

                      7                      8                      9
                      A                      A                      A
 Frequencies --    336.3363               403.4865               460.1795
 Red. masses --      1.2424                 2.8164                 2.7718
 Frc consts  --      0.0828                 0.2701                 0.3458
 IR Inten    --     89.3888                12.3636                 6.1353

                     10                     11                     12
                      A                      A                      A
 Frequencies --    538.7357               594.6135               654.6941
 Red. masses --      3.7275                 3.8470                 4.5383
 Frc consts  --      0.6374                 0.8014                 1.1461
 IR Inten    --      0.8294                 6.8261                 1.9641

                     13                     14                     15
                      A                      A                      A
 Frequencies --    723.0754               797.9931               821.1658
 Red. masses --      4.9172                 3.6038                 1.4669
 Frc consts  --      1.5147                 1.3521                 0.5828
 IR Inten    --      3.7857                 4.0367                 2.9867

                     16                     17                     18
                      A                      A                      A
 Frequencies --    880.0898               924.4449               945.8145
 Red. masses --      1.7869                 2.0035                 2.0605
 Frc consts  --      0.8155                 1.0088                 1.0860
 IR Inten    --     18.6939                 5.9371                 3.7823

                     19                     20                     21
                      A                      A                      A
 Frequencies --   1005.7718              1009.7165              1027.7873
 Red. masses --      3.9564                 1.7208                 1.8110
 Frc consts  --      2.3580                 1.0337                 1.1271
 IR Inten    --     40.4625                 9.4253                11.7482

                     22                     23                     24
                      A                      A                      A
 Frequencies --   1040.3549              1059.0345              1069.5482
 Red. masses --      2.5013                 2.1949                 1.7695
 Frc consts  --      1.5951                 1.4504                 1.1926
 IR Inten    --     41.7952                14.6813                 3.1420

                     25                     26                     27
                      A                      A                      A
 Frequencies --   1102.4573              1144.8088              1158.7946
 Red. masses --      2.8503                 1.9429                 1.2374
 Frc consts  --      2.0411                 1.5003                 0.9790
 IR Inten    --      6.4247                59.8813                 4.4147

                     28                     29                     30
                      A                      A                      A
 Frequencies --   1190.1835              1238.7657              1261.3711
 Red. masses --      1.4721                 2.2841                 2.1293
 Frc consts  --      1.2286                 2.0651                 1.9960
 IR Inten    --     42.8286                 7.9332                30.4604

                     31                     32                     33
                      A                      A                      A
 Frequencies --   1300.0504              1323.2212              1344.6235
 Red. masses --      1.4479                 1.6314                 1.3382
 Frc consts  --      1.4418                 1.6830                 1.4255
 IR Inten    --      5.7216                12.7588                19.5626

                     34                     35                     36
                      A                      A                      A
 Frequencies --   1364.9604              1381.3077              1413.1598
 Red. masses --      1.9690                 1.9496                 1.2824
 Frc consts  --      2.1614                 2.1917                 1.5089
 IR Inten    --     16.7748                22.0995                 1.0197

                     37                     38                     39
                      A                      A                      A
 Frequencies --   1469.8160              1474.6903              1489.7984
 Red. masses --      1.0952                 1.0453                 1.0605
 Frc consts  --      1.3940                 1.3393                 1.3867
 IR Inten    --      2.1774                 5.9680                 9.5950

                     40                     41                     42
                      A                      A                      A
 Frequencies --   1514.1369              1713.1476              3014.8462
 Red. masses --      1.1069                 7.2340                 1.0569
 Frc consts  --      1.4951                12.5090                 5.6597
 IR Inten    --      1.5280                 0.6012                27.9828

                     43                     44                     45
                      A                      A                      A
 Frequencies --   3015.9328              3023.7120              3051.0330
 Red. masses --      1.0647                 1.0393                 1.0862
 Frc consts  --      5.7059                 5.5987                 5.9573
 IR Inten    --     60.8335                31.6070                49.5494

                     46                     47                     48
                      A                      A                      A
 Frequencies --   3062.7348              3070.0284              3073.0568
 Red. masses --      1.0965                 1.1083                 1.0974
 Frc consts  --      6.0603                 6.1544                 6.1063
 IR Inten    --     16.1406                29.2419                24.5140

                     49                     50                     51
                      A                      A                      A
 Frequencies --   3116.8456              3176.1183              3798.8559
 Red. masses --      1.1002                 1.0931                 1.0659
 Frc consts  --      6.2975                 6.4967                 9.0634
 IR Inten    --     16.8394                18.2735                16.4241

 - Thermochemistry -
 -------------------
 Temperature   298.150 Kelvin.  Pressure   1.00000 Atm.
 Atom     1 has atomic number  6 and mass  12.00000

 Molecular mass:   126.06808 amu.
 Principal axes and moments of inertia in atomic units:
                           1         2         3
     Eigenvalues --   807.597091001.848291338.34993
           X            0.99906  -0.02092  -0.03787
           Y            0.02232   0.99907   0.03686
           Z            0.03707  -0.03767   0.99860
 This molecule is an asymmetric top.
 Rotational symmetry number  1.
 Warning -- assumption of classical behavior for rotation
           may cause significant error
 Rotational temperatures (Kelvin)      0.10725     0.08645     0.06472
 Rotational constants (GHZ):           2.23470     1.80141     1.34848
 Zero-point vibrational energy     417727.6 (Joules/Mol)
                                   99.83930 (Kcal/Mol)
 Warning -- explicit consideration of  11 degrees of freedom as
           vibrations may cause significant error
 Vibrational temperatures:    166.13   207.81   307.14   347.96   361.42
          (Kelvin)            418.53   483.91   580.53   662.09   775.12
                              855.52   941.96  1040.34  1148.13  1181.47
                             1266.25  1330.07  1360.81  1447.08  1452.76
                             1478.75  1496.84  1523.71  1538.84  1586.19
                             1647.12  1667.24  1712.41  1782.31  1814.83
                             1870.48  1903.82  1934.61  1963.87  1987.39
                             2033.22  2114.73  2121.75  2143.48  2178.50
                             2464.83  4337.69  4339.25  4350.44  4389.75
                             4406.59  4417.08  4421.44  4484.44  4569.72
                             5465.70

 Zero-point correction=                           0.159104 (Hartree/Particle)
 Thermal correction to Energy=                    0.167469
 Thermal correction to Enthalpy=                  0.168413
 Thermal correction to Gibbs Free Energy=         0.126528
 Sum of electronic and zero-point Energies=           -423.024730
 Sum of electronic and thermal Energies=              -423.016366
 Sum of electronic and thermal Enthalpies=            -423.015422
 Sum of electronic and thermal Free Energies=         -423.057306

                     E (Thermal)             CV                S
                      KCal/Mol        Cal/Mol-Kelvin    Cal/Mol-Kelvin
 Total                  105.088             32.333             88.153
 Electronic               0.000              0.000              0.000
 Translational            0.889              2.981             40.409
 Rotational               0.889              2.981             28.473
 Vibrational            103.311             26.371             19.272
 Vibration     1          0.608              1.937              3.175
 Vibration     2          0.616              1.909              2.744
 Vibration     3          0.644              1.820              2.014
 Vibration     4          0.658              1.776              1.789
 Vibration     5          0.663              1.761              1.722
 Vibration     6          0.687              1.691              1.469
 Vibration     7          0.717              1.603              1.229
 Vibration     8          0.769              1.463              0.950
 Vibration     9          0.818              1.338              0.766
 Vibration    10          0.894              1.164              0.568
 Vibration    11          0.952              1.043              0.459

 Normal termination of Gaussian 09 at Mon Jan 27 22:50:20 2020.
