 Gaussian 09, Revision D.01,
 Gaussian 09:  ES64L-G09RevD.01 24-Apr-2013

 -----------------------------
 # b3lyp 6-31G(2df,p) opt Freq
 -----------------------------

 -----
 titel
 -----
 Symbolic Z-matrix:
 Charge =  0 Multiplicity = 1

 SCF Done:  E(RB3LYP) =  -423.115905739     A.U. after   14 cycles
 Optimization completed.
    -- Stationary point found.
 Normal termination of Gaussian 09 at Tue Jan 28 12:10:53 2020.

 ----------------------------------------------------------------------
 #N Geom=AllCheck Guess=TCheck SCRF=Check GenChk RB3LYP/6-31G(2df,p) Fr
 eq
 ----------------------------------------------------------------------

 Structure from the checkpoint file:  "/scratch/puck/g09_3c6c94c7-22f1-415b-a35f-38e2b5d21aab/Gau-36766.chk"
 -----
 titel
 -----
 Charge =  0 Multiplicity = 1

                         Standard orientation:
 ---------------------------------------------------------------------
 Center     Atomic      Atomic             Coordinates (Angstroms)
 Number     Number       Type             X           Y           Z
 ---------------------------------------------------------------------
      1          6           0        2.794032    1.200380    0.011490
      2          8           0        1.743840    0.362161   -0.410215
      3          6           0        0.853865    0.032626    0.633716
      4          6           0       -0.201786   -0.902853    0.081164
      5          6           0        0.313749   -2.161899   -0.574641
      6          8           0       -1.329421   -1.063486    0.944857
      7          6           0       -1.532368   -0.368736   -0.302094
      8          6           0       -1.879664    1.025152   -0.241620
      9          6           0       -2.198815    2.184128   -0.222987
     10          1           0        3.402860    0.726174    0.797584
     11          1           0        3.426605    1.393769   -0.858025
     12          1           0        2.418980    2.159806    0.400048
     13          1           0        1.388271   -0.478218    1.454090
     14          1           0        0.376948    0.929648    1.052635
     15          1           0        0.877132   -2.758157    0.151659
     16          1           0       -0.510599   -2.771782   -0.951673
     17          1           0        0.985452   -1.907827   -1.397898
     18          1           0       -2.098671   -0.944693   -1.033947
     19          1           0       -2.476411    3.209094   -0.201778
 ---------------------------------------------------------------------

 SCF Done:  E(RB3LYP) =  -423.115905739     A.U. after    1 cycles

 The electronic state is 1-A.
 Alpha  occ. eigenvalues --  -19.15714 -19.14568 -10.25802 -10.25049 -10.23127
 Alpha  occ. eigenvalues --  -10.22771 -10.18938 -10.18433 -10.18161  -1.07866
 Alpha  occ. eigenvalues --   -1.03793  -0.77161  -0.76726  -0.71351  -0.68002
 Alpha  occ. eigenvalues --   -0.65429  -0.57802  -0.53839  -0.50536  -0.49752
 Alpha  occ. eigenvalues --   -0.48871  -0.46433  -0.44674  -0.41537  -0.41295
 Alpha  occ. eigenvalues --   -0.39319  -0.38223  -0.36576  -0.33192  -0.32449
 Alpha  occ. eigenvalues --   -0.28354  -0.27586  -0.26028  -0.25851
 Alpha virt. eigenvalues --    0.02078   0.03907   0.07785   0.11483   0.12242
 Alpha virt. eigenvalues --    0.12500   0.13714   0.14253   0.14857   0.16391
 Alpha virt. eigenvalues --    0.17145   0.17346   0.18272   0.20051   0.21248

 Mulliken charges:
               1
     1  C   -0.222131
     2  O   -0.239015
     3  C   -0.127199
     4  C    0.380172
     5  C   -0.463335
     6  O   -0.289178
     7  C   -0.220708
     8  C    0.348379
     9  C   -0.422329
    10  H    0.105357
    11  H    0.128607
    12  H    0.109463
    13  H    0.091495
    14  H    0.109724
    15  H    0.125622
    16  H    0.124369
    17  H    0.146200
    18  H    0.112667
    19  H    0.201840
 Sum of Mulliken charges =   0.00000

 Dipole moment (field-independent basis, Debye):
    X=              1.2763    Y=              0.7766    Z=             -0.5069  Tot=              1.5777
 Quadrupole moment (field-independent basis, Debye-Ang):
   XX=            -51.1425   YY=            -47.4887   ZZ=            -55.2729
   XY=             -1.2075   XZ=              4.1439   YZ=              2.3286

  Exact polarizability:  83.979 -10.598  94.470   2.905   0.028  59.068
 Approx polarizability: 108.110 -18.063 142.389   2.466  -3.767  93.660

                      1                      2                      3
                      A                      A                      A
 Frequencies --     47.5877                86.6649               134.2423
 Red. masses --      3.6314                 2.3191                 2.8595
 Frc consts  --      0.0048                 0.0103                 0.0304
 IR Inten    --      0.1169                 4.3700                 1.4090

                      4                      5                      6
                      A                      A                      A
 Frequencies --    151.1888               185.8316               189.1663
 Red. masses --      2.5196                 2.2714                 1.4022
 Frc consts  --      0.0339                 0.0462                 0.0296
 IR Inten    --      0.2581                 2.7064                 1.9750

                      7                      8                      9
                      A                      A                      A
 Frequencies --    225.8146               309.2508               337.7728
 Red. masses --      1.3221                 3.3587                 4.0587
 Frc consts  --      0.0397                 0.1893                 0.2728
 IR Inten    --      2.8212                 1.3218                 0.9276

                     10                     11                     12
                      A                      A                      A
 Frequencies --    358.0216               425.2378               463.6485
 Red. masses --      2.5374                 3.3619                 4.9747
 Frc consts  --      0.1916                 0.3582                 0.6301
 IR Inten    --      2.0558                 5.6283                 0.2902

                     13                     14                     15
                      A                      A                      A
 Frequencies --    549.6407               564.8168               622.9109
 Red. masses --      4.0302                 7.8662                 1.2232
 Frc consts  --      0.7174                 1.4785                 0.2797
 IR Inten    --      2.0917                 9.7115                42.8891

                     16                     17                     18
                      A                      A                      A
 Frequencies --    669.5851               759.9245               824.1941
 Red. masses --      1.2538                 3.9531                 3.6075
 Frc consts  --      0.3312                 1.3450                 1.4438
 IR Inten    --     35.4111                 8.3389                15.4860

                     19                     20                     21
                      A                      A                      A
 Frequencies --    914.8739               969.6711               992.0103
 Red. masses --      3.7148                 1.6689                 4.1355
 Frc consts  --      1.8319                 0.9245                 2.3978
 IR Inten    --     17.5532                 2.5152                30.1362

                     22                     23                     24
                      A                      A                      A
 Frequencies --   1021.4937              1057.4190              1085.5649
 Red. masses --      2.4434                 1.5360                 1.9122
 Frc consts  --      1.5021                 1.0119                 1.3277
 IR Inten    --      7.2791                 5.1256                 2.5401

                     25                     26                     27
                      A                      A                      A
 Frequencies --   1127.5244              1160.3039              1184.4899
 Red. masses --      1.8947                 4.6095                 1.3143
 Frc consts  --      1.4192                 3.6564                 1.0864
 IR Inten    --     16.7171               156.2375                 3.9005

                     28                     29                     30
                      A                      A                      A
 Frequencies --   1226.7111              1237.3923              1283.1904
 Red. masses --      1.7510                 1.3273                 1.8955
 Frc consts  --      1.5525                 1.1974                 1.8389
 IR Inten    --     44.0496                 5.7455                17.7523

                     31                     32                     33
                      A                      A                      A
 Frequencies --   1333.5090              1405.0906              1415.3770
 Red. masses --      1.3817                 1.3336                 1.4619
 Frc consts  --      1.4476                 1.5513                 1.7255
 IR Inten    --     20.2751                 8.0219                23.2151

                     34                     35                     36
                      A                      A                      A
 Frequencies --   1446.8961              1478.9133              1479.6574
 Red. masses --      2.3227                 1.0986                 1.1081
 Frc consts  --      2.8650                 1.4157                 1.4294
 IR Inten    --      5.9441                 5.9386                 2.2849

                     37                     38                     39
                      A                      A                      A
 Frequencies --   1484.5502              1499.7627              1504.2124
 Red. masses --      1.0506                 1.1276                 1.1548
 Frc consts  --      1.3643                 1.4944                 1.5395
 IR Inten    --      5.5296                 9.8888                 3.9551

                     40                     41                     42
                      A                      A                      A
 Frequencies --   1522.1254              2238.8621              2953.4508
 Red. masses --      1.0813                 5.9604                 1.0640
 Frc consts  --      1.4761                17.6027                 5.4685
 IR Inten    --      4.0746                 0.5980                38.9644

                     43                     44                     45
                      A                      A                      A
 Frequencies --   2973.6683              3018.3361              3027.8115
 Red. masses --      1.0395                 1.1018                 1.0939
 Frc consts  --      5.4156                 5.9143                 5.9086
 IR Inten    --     70.9530                62.3719                17.1294

                     46                     47                     48
                      A                      A                      A
 Frequencies --   3042.3683              3108.4040              3112.2013
 Red. masses --      1.0378                 1.0883                 1.0949
 Frc consts  --      5.6594                 6.1952                 6.2481
 IR Inten    --     19.1233                 6.7047                23.8102

                     49                     50                     51
                      A                      A                      A
 Frequencies --   3116.6285              3138.3652              3501.8736
 Red. masses --      1.0963                 1.1024                 1.1619
 Frc consts  --      6.2740                 6.3970                 8.3948
 IR Inten    --     27.8648                11.4790                70.2482

 - Thermochemistry -
 -------------------
 Temperature   298.150 Kelvin.  Pressure   1.00000 Atm.
 Atom     1 has atomic number  6 and mass  12.00000

 Molecular mass:   126.06808 amu.
 Principal axes and moments of inertia in atomic units:
                           1         2         3
     Eigenvalues --   894.131441393.332152024.82297
           X            0.99962   0.02220   0.01607
           Y           -0.02272   0.99921   0.03252
           Z           -0.01534  -0.03287   0.99934
 This molecule is an asymmetric top.
 Rotational symmetry number  1.
 Warning -- assumption of classical behavior for rotation
           may cause significant error
 Rotational temperatures (Kelvin)      0.09687     0.06216     0.04278
 Rotational constants (GHZ):           2.01843     1.29527     0.89131
 Zero-point vibrational energy     406540.2 (Joules/Mol)
                                   97.16543 (Kcal/Mol)
 Warning -- explicit consideration of  14 degrees of freedom as
           vibrations may cause significant error
 Vibrational temperatures:     68.47   124.69   193.14   217.53   267.37
          (Kelvin)            272.17   324.90   444.94   485.98   515.11
                              611.82   667.09   790.81   812.64   896.23
                              963.38  1093.36  1185.83  1316.30  1395.14
                             1427.28  1469.70  1521.39  1561.88  1622.25
                             1669.42  1704.21  1764.96  1780.33  1846.22
                             1918.62  2021.61  2036.41  2081.76  2127.82
                             2128.89  2135.93  2157.82  2164.22  2190.00
                             3221.22  4249.35  4278.44  4342.71  4356.34
                             4377.28  4472.29  4477.76  4484.13  4515.40
                             5038.41

 Zero-point correction=                           0.154843 (Hartree/Particle)
 Thermal correction to Energy=                    0.165133
 Thermal correction to Enthalpy=                  0.166077
 Thermal correction to Gibbs Free Energy=         0.119096
 Sum of electronic and zero-point Energies=           -422.961063
 Sum of electronic and thermal Energies=              -422.950772
 Sum of electronic and thermal Enthalpies=            -422.949828
 Sum of electronic and thermal Free Energies=         -422.996810

                     E (Thermal)             CV                S
                      KCal/Mol        Cal/Mol-Kelvin    Cal/Mol-Kelvin
 Total                  103.623             36.612             98.881
 Electronic               0.000              0.000              0.000
 Translational            0.889              2.981             40.409
 Rotational               0.889              2.981             29.313
 Vibrational            101.845             30.650             29.160
 Vibration     1          0.595              1.978              4.915
 Vibration     2          0.601              1.958              3.734
 Vibration     3          0.613              1.919              2.884
 Vibration     4          0.619              1.901              2.657
 Vibration     5          0.632              1.859              2.269
 Vibration     6          0.633              1.855              2.236
 Vibration     7          0.650              1.802              1.912
 Vibration     8          0.699              1.656              1.366
 Vibration     9          0.718              1.600              1.223
 Vibration    10          0.733              1.559              1.131
 Vibration    11          0.787              1.415              0.874
 Vibration    12          0.821              1.331              0.756
 Vibration    13          0.905              1.140              0.545
 Vibration    14          0.921              1.107              0.514

 Normal termination of Gaussian 09 at Tue Jan 28 12:50:52 2020.
