 Gaussian 09, Revision D.01,
 Gaussian 09:  ES64L-G09RevD.01 24-Apr-2013

 -----------------------------
 # b3lyp 6-31G(2df,p) opt Freq
 -----------------------------

 -----
 titel
 -----
 Symbolic Z-matrix:
 Charge =  0 Multiplicity = 1

 SCF Done:  E(RB3LYP) =  -423.218098370     A.U. after   14 cycles
 Optimization completed.
    -- Stationary point found.
 Normal termination of Gaussian 09 at Tue Jan 28 00:03:12 2020.

 ----------------------------------------------------------------------
 #N Geom=AllCheck Guess=TCheck SCRF=Check GenChk RB3LYP/6-31G(2df,p) Fr
 eq
 ----------------------------------------------------------------------

 Structure from the checkpoint file:  "/scratch/puck/g09_5013da1d-3968-4478-be91-8e538bbb36a8/Gau-116687.chk"
 -----
 titel
 -----
 Charge =  0 Multiplicity = 1

                         Standard orientation:
 ---------------------------------------------------------------------
 Center     Atomic      Atomic             Coordinates (Angstroms)
 Number     Number       Type             X           Y           Z
 ---------------------------------------------------------------------
      1          6           0        2.692178   -0.249794   -0.173666
      2          6           0        1.382947    0.235676    0.460147
      3          6           0        0.829990    1.543291   -0.064146
      4          6           0       -0.462433    1.481335   -0.388753
      5          6           0       -1.067914    0.130874   -0.097053
      6          6           0       -1.994592    0.138229    1.132424
      7          8           0       -1.751374   -0.395197   -1.223025
      8          6           0        0.201916   -0.703164    0.185444
      9          8           0        0.235182   -1.904372    0.092180
     10          1           0        2.610659   -0.274912   -1.264425
     11          1           0        3.522366    0.410937    0.092370
     12          1           0        2.924848   -1.259906    0.172574
     13          1           0        1.523461    0.285432    1.551708
     14          1           0        1.452360    2.426649   -0.159535
     15          1           0       -1.056269    2.295223   -0.788201
     16          1           0       -2.880087    0.742073    0.914994
     17          1           0       -2.316685   -0.883689    1.357533
     18          1           0       -1.497694    0.551482    2.015980
     19          1           0       -1.645978   -1.355416   -1.172618
 ---------------------------------------------------------------------

 SCF Done:  E(RB3LYP) =  -423.218098370     A.U. after    1 cycles

 The electronic state is 1-A.
 Alpha  occ. eigenvalues --  -19.14742 -19.13518 -10.27198 -10.24476 -10.20705
 Alpha  occ. eigenvalues --  -10.19646 -10.19058 -10.18508 -10.18294  -1.06002
 Alpha  occ. eigenvalues --   -1.01653  -0.85245  -0.76688  -0.72497  -0.66127
 Alpha  occ. eigenvalues --   -0.64195  -0.55859  -0.54338  -0.49348  -0.49028
 Alpha  occ. eigenvalues --   -0.44627  -0.43745  -0.43500  -0.41921  -0.41041
 Alpha  occ. eigenvalues --   -0.39258  -0.37974  -0.37072  -0.36486  -0.34968
 Alpha  occ. eigenvalues --   -0.34396  -0.27737  -0.26403  -0.24482
 Alpha virt. eigenvalues --   -0.02699   0.00460   0.08806   0.11028   0.12325
 Alpha virt. eigenvalues --    0.13090   0.14824   0.15893   0.16217   0.16590
 Alpha virt. eigenvalues --    0.17412   0.18300   0.19557   0.21303   0.22712

 Mulliken charges:
               1
     1  C   -0.395377
     2  C   -0.155138
     3  C   -0.085734
     4  C   -0.103950
     5  C    0.258145
     6  C   -0.426921
     7  O   -0.475482
     8  C    0.349496
     9  O   -0.336554
    10  H    0.128478
    11  H    0.117035
    12  H    0.139247
    13  H    0.112762
    14  H    0.104083
    15  H    0.109224
    16  H    0.129546
    17  H    0.125873
    18  H    0.116862
    19  H    0.288404
 Sum of Mulliken charges =   0.00000

 Dipole moment (field-independent basis, Debye):
    X=              0.9041    Y=              1.6910    Z=              1.2730  Tot=              2.3016
 Quadrupole moment (field-independent basis, Debye-Ang):
   XX=            -51.6700   YY=            -54.5973   ZZ=            -54.2193
   XY=              2.0921   XZ=             -1.4479   YZ=              0.7427

  Exact polarizability:  92.911   0.946  76.920   2.579  -0.789  60.400
 Approx polarizability: 129.125   1.733 119.127  10.681  -0.132  93.628

                      1                      2                      3
                      A                      A                      A
 Frequencies --     49.7627               169.1436               189.5829
 Red. masses --      4.5603                 3.1235                 1.3720
 Frc consts  --      0.0067                 0.0527                 0.0291
 IR Inten    --      1.3612                 3.2256                 0.9079

                      4                      5                      6
                      A                      A                      A
 Frequencies --    201.8599               233.3482               249.7150
 Red. masses --      1.6323                 1.1464                 2.7348
 Frc consts  --      0.0392                 0.0368                 0.1005
 IR Inten    --      0.2216                 0.6482                 0.4526

                      7                      8                      9
                      A                      A                      A
 Frequencies --    294.4393               335.6690               348.8050
 Red. masses --      3.3623                 2.3805                 2.5473
 Frc consts  --      0.1717                 0.1580                 0.1826
 IR Inten    --     34.0546                 5.9189                52.2431

                     10                     11                     12
                      A                      A                      A
 Frequencies --    371.7152               529.2417               549.3036
 Red. masses --      1.5573                 3.4556                 3.8736
 Frc consts  --      0.1268                 0.5703                 0.6886
 IR Inten    --     19.8316                 3.9613                 3.3843

                     13                     14                     15
                      A                      A                      A
 Frequencies --    582.9013               681.5167               704.7249
 Red. masses --      3.3144                 5.3233                 4.3483
 Frc consts  --      0.6635                 1.4567                 1.2723
 IR Inten    --      2.1198                 0.8900                 5.7122

                     16                     17                     18
                      A                      A                      A
 Frequencies --    750.9037               788.6889               885.4297
 Red. masses --      1.8182                 2.1520                 2.2475
 Frc consts  --      0.6040                 0.7887                 1.0381
 IR Inten    --     20.9731                 4.8581                 4.8175

                     19                     20                     21
                      A                      A                      A
 Frequencies --    915.3443               964.5390               982.9063
 Red. masses --      2.2229                 1.8505                 1.3225
 Frc consts  --      1.0973                 1.0143                 0.7528
 IR Inten    --     13.8306                16.3207                 1.2203

                     22                     23                     24
                      A                      A                      A
 Frequencies --    993.6677              1038.9194              1087.1527
 Red. masses --      2.0818                 1.7644                 1.6452
 Frc consts  --      1.2111                 1.1221                 1.1457
 IR Inten    --     18.4272                 8.6158                 9.9689

                     25                     26                     27
                      A                      A                      A
 Frequencies --   1096.0867              1127.6413              1146.4843
 Red. masses --      1.8343                 2.4745                 1.3655
 Frc consts  --      1.2984                 1.8539                 1.0575
 IR Inten    --     24.4775                11.3475                41.7715

                     28                     29                     30
                      A                      A                      A
 Frequencies --   1153.8320              1229.7800              1274.1988
 Red. masses --      2.3015                 2.7142                 2.0958
 Frc consts  --      1.8053                 2.4185                 2.0048
 IR Inten    --     86.2384                 9.2243                 3.8000

                     31                     32                     33
                      A                      A                      A
 Frequencies --   1305.0762              1369.0473              1391.6815
 Red. masses --      1.3784                 1.6425                 1.3098
 Frc consts  --      1.3832                 1.8138                 1.4947
 IR Inten    --     12.8805                12.2327                19.1604

                     34                     35                     36
                      A                      A                      A
 Frequencies --   1400.4051              1412.2025              1485.7683
 Red. masses --      1.3254                 1.4577                 1.0571
 Frc consts  --      1.5315                 1.7128                 1.3749
 IR Inten    --      6.9049                 4.1516                 1.7703

                     37                     38                     39
                      A                      A                      A
 Frequencies --   1488.5737              1492.6548              1499.5602
 Red. masses --      1.0914                 1.0458                 1.0504
 Frc consts  --      1.4249                 1.3729                 1.3917
 IR Inten    --      5.8284                 6.2762                 3.1746

                     40                     41                     42
                      A                      A                      A
 Frequencies --   1674.3942              1841.8742              2982.7852
 Red. masses --      6.9551                12.7024                 1.0798
 Frc consts  --     11.4887                25.3897                 5.6604
 IR Inten    --      1.5359               142.6931                11.4895

                     43                     44                     45
                      A                      A                      A
 Frequencies --   3033.0027              3043.9233              3108.7092
 Red. masses --      1.0335                 1.0344                 1.1021
 Frc consts  --      5.6017                 5.6469                 6.2753
 IR Inten    --     15.9952                23.1649                20.4821

                     46                     47                     48
                      A                      A                      A
 Frequencies --   3115.0324              3118.0983              3127.2258
 Red. masses --      1.1026                 1.1024                 1.1019
 Frc consts  --      6.3036                 6.3150                 6.3490
 IR Inten    --     20.1606                12.9735                12.1479

                     49                     50                     51
                      A                      A                      A
 Frequencies --   3184.1636              3210.5312              3750.2190
 Red. masses --      1.0862                 1.1022                 1.0654
 Frc consts  --      6.4885                 6.6940                 8.8286
 IR Inten    --      5.7087                11.8495                31.3468

 - Thermochemistry -
 -------------------
 Temperature   298.150 Kelvin.  Pressure   1.00000 Atm.
 Atom     1 has atomic number  6 and mass  12.00000

 Molecular mass:   126.06808 amu.
 Principal axes and moments of inertia in atomic units:
                           1         2         3
     Eigenvalues --   704.321581223.082091517.32296
           X            0.99962   0.00004  -0.02750
           Y            0.00017   0.99997   0.00795
           Z            0.02750  -0.00795   0.99959
 This molecule is an asymmetric top.
 Rotational symmetry number  1.
 Warning -- assumption of classical behavior for rotation
           may cause significant error
 Rotational temperatures (Kelvin)      0.12297     0.07082     0.05708
 Rotational constants (GHZ):           2.56238     1.47557     1.18942
 Zero-point vibrational energy     412485.7 (Joules/Mol)
                                   98.58646 (Kcal/Mol)
 Warning -- explicit consideration of  13 degrees of freedom as
           vibrations may cause significant error
 Vibrational temperatures:     71.60   243.36   272.77   290.43   335.74
          (Kelvin)            359.28   423.63   482.95   501.85   534.81
                              761.46   790.32   838.66   980.55  1013.94
                             1080.38  1134.75  1273.93  1316.97  1387.75
                             1414.18  1429.66  1494.77  1564.17  1577.02
                             1622.42  1649.53  1660.10  1769.38  1833.29
                             1877.71  1969.75  2002.32  2014.87  2031.84
                             2137.69  2141.72  2147.59  2157.53  2409.08
                             2650.04  4291.56  4363.81  4379.52  4472.73
                             4481.83  4486.24  4499.37  4581.30  4619.23
                             5395.72

 Zero-point correction=                           0.157108 (Hartree/Particle)
 Thermal correction to Energy=                    0.166460
 Thermal correction to Enthalpy=                  0.167404
 Thermal correction to Gibbs Free Energy=         0.123176
 Sum of electronic and zero-point Energies=           -423.060991
 Sum of electronic and thermal Energies=              -423.051639
 Sum of electronic and thermal Enthalpies=            -423.050694
 Sum of electronic and thermal Free Energies=         -423.094922

                     E (Thermal)             CV                S
                      KCal/Mol        Cal/Mol-Kelvin    Cal/Mol-Kelvin
 Total                  104.455             35.089             93.085
 Electronic               0.000              0.000              0.000
 Translational            0.889              2.981             40.409
 Rotational               0.889              2.981             28.660
 Vibrational            102.678             29.128             24.017
 Vibration     1          0.595              1.978              4.827
 Vibration     2          0.625              1.880              2.445
 Vibration     3          0.633              1.854              2.232
 Vibration     4          0.639              1.837              2.116
 Vibration     5          0.654              1.790              1.853
 Vibration     6          0.663              1.763              1.733
 Vibration     7          0.689              1.684              1.448
 Vibration     8          0.717              1.604              1.233
 Vibration     9          0.726              1.578              1.172
 Vibration    10          0.743              1.530              1.073
 Vibration    11          0.884              1.185              0.589
 Vibration    12          0.905              1.141              0.546
 Vibration    13          0.940              1.068              0.480

 Optimization completed.
    -- Stationary point found.
 Normal termination of Gaussian 09 at Tue Jan 28 00:55:11 2020.
