 Gaussian 09, Revision D.01,
 Gaussian 09:  ES64L-G09RevD.01 24-Apr-2013

 -----------------------------
 # b3lyp 6-31G(2df,p) opt Freq
 -----------------------------

 -----
 titel
 -----
 Symbolic Z-matrix:
 Charge =  0 Multiplicity = 1

 SCF Done:  E(RB3LYP) =  -423.140867604     A.U. after   14 cycles
 Optimization completed.
    -- Stationary point found.
 Normal termination of Gaussian 09 at Mon Jan 27 16:23:46 2020.

 ----------------------------------------------------------------------
 #N Geom=AllCheck Guess=TCheck SCRF=Check GenChk RB3LYP/6-31G(2df,p) Fr
 eq
 ----------------------------------------------------------------------

 Structure from the checkpoint file:  "/scratch/puck/g09_effaea0a-9e95-4341-938f-b651d9c3ae4c/Gau-177006.chk"
 -----
 titel
 -----
 Charge =  0 Multiplicity = 1

                         Standard orientation:
 ---------------------------------------------------------------------
 Center     Atomic      Atomic             Coordinates (Angstroms)
 Number     Number       Type             X           Y           Z
 ---------------------------------------------------------------------
      1          6           0       -0.681933    1.862920   -0.334259
      2          6           0       -0.855712    0.427743    0.125701
      3          8           0       -1.393400    0.447291    1.418602
      4          6           0       -1.550091   -0.499946   -0.921834
      5          6           0       -0.165666   -1.075195   -1.315453
      6          6           0        0.444819   -0.490669   -0.014334
      7          8           0        0.406073   -1.511040    0.990154
      8          6           0        1.748519    0.144328   -0.065112
      9          6           0        2.822590    0.686910   -0.073555
     10          1           0       -1.654973    2.363514   -0.339278
     11          1           0       -0.014662    2.402292    0.343019
     12          1           0       -0.262026    1.909383   -1.342602
     13          1           0       -1.311410   -0.457482    1.749521
     14          1           0       -2.185323   -1.241405   -0.431614
     15          1           0       -2.128503   -0.003097   -1.703780
     16          1           0       -0.072974   -2.159361   -1.392195
     17          1           0        0.260048   -0.610943   -2.206396
     18          1           0        0.920657   -1.191096    1.739859
     19          1           0        3.772625    1.161660   -0.093509
 ---------------------------------------------------------------------

 SCF Done:  E(RB3LYP) =  -423.140867604     A.U. after    1 cycles

 The electronic state is 1-A.
 Alpha  occ. eigenvalues --  -19.15821 -19.13273 -10.25740 -10.23748 -10.18772
 Alpha  occ. eigenvalues --  -10.18768 -10.18437 -10.17880 -10.17220  -1.04679
 Alpha  occ. eigenvalues --   -1.01306  -0.83754  -0.75726  -0.72534  -0.67053
 Alpha  occ. eigenvalues --   -0.62155  -0.57053  -0.55099  -0.52938  -0.50953
 Alpha  occ. eigenvalues --   -0.45618  -0.43679  -0.41632  -0.40451  -0.39648
 Alpha  occ. eigenvalues --   -0.38254  -0.36276  -0.34772  -0.33898  -0.32342
 Alpha  occ. eigenvalues --   -0.29378  -0.28125  -0.27007  -0.24548
 Alpha virt. eigenvalues --    0.02549   0.03781   0.07663   0.10883   0.11535
 Alpha virt. eigenvalues --    0.12108   0.13167   0.14538   0.14910   0.16626
 Alpha virt. eigenvalues --    0.17697   0.18719   0.20984   0.21211   0.23339

 Mulliken charges:
               1
     1  C   -0.426093
     2  C    0.375906
     3  O   -0.478680
     4  C   -0.288845
     5  C   -0.255791
     6  C    0.178782
     7  O   -0.479763
     8  C    0.248918
     9  C   -0.452719
    10  H    0.123835
    11  H    0.128511
    12  H    0.116986
    13  H    0.276338
    14  H    0.106775
    15  H    0.100617
    16  H    0.118949
    17  H    0.116709
    18  H    0.290305
    19  H    0.199260
 Sum of Mulliken charges =   0.00000

 Dipole moment (field-independent basis, Debye):
    X=              0.9804    Y=             -0.0429    Z=             -0.4150  Tot=              1.0654
 Quadrupole moment (field-independent basis, Debye-Ang):
   XX=            -50.3297   YY=            -54.7325   ZZ=            -51.1634
   XY=              3.6165   XZ=              2.8807   YZ=             -2.4899

  Exact polarizability:  93.122   8.580  72.180   1.514  -0.497  67.091
 Approx polarizability: 137.894  18.723 106.258  -0.744  -2.121  99.702

                      1                      2                      3
                      A                      A                      A
 Frequencies --     84.8285               134.7396               175.6637
 Red. masses --      3.0176                 3.7210                 2.7058
 Frc consts  --      0.0128                 0.0398                 0.0492
 IR Inten    --      0.2728                 2.1067                 9.5890

                      4                      5                      6
                      A                      A                      A
 Frequencies --    222.5589               236.5761               264.8798
 Red. masses --      1.2022                 1.0330                 3.7319
 Frc consts  --      0.0351                 0.0341                 0.1543
 IR Inten    --    111.3228                45.4705                 0.9364

                      7                      8                      9
                      A                      A                      A
 Frequencies --    317.5307               339.4418               384.2981
 Red. masses --      2.7221                 3.0010                 3.3229
 Frc consts  --      0.1617                 0.2037                 0.2891
 IR Inten    --      3.6385                 4.9057                 7.6689

                     10                     11                     12
                      A                      A                      A
 Frequencies --    398.7537               478.6595               525.5782
 Red. masses --      3.8166                 3.9541                 4.7036
 Frc consts  --      0.3576                 0.5338                 0.7655
 IR Inten    --      8.5868                 8.3509                 3.0955

                     13                     14                     15
                      A                      A                      A
 Frequencies --    563.4182               588.0196               617.4184
 Red. masses --      1.5842                 1.9412                 2.0748
 Frc consts  --      0.2963                 0.3955                 0.4660
 IR Inten    --     13.2585                32.9873                10.3140

                     16                     17                     18
                      A                      A                      A
 Frequencies --    621.6045               666.6140               684.0355
 Red. masses --      1.6395                 1.2524                 4.1796
 Frc consts  --      0.3732                 0.3279                 1.1522
 IR Inten    --     33.0228                32.4043                10.4984

                     19                     20                     21
                      A                      A                      A
 Frequencies --    755.6417               883.2535               905.9162
 Red. masses --      1.3974                 2.3493                 1.8375
 Frc consts  --      0.4701                 1.0798                 0.8885
 IR Inten    --      3.7892                 2.0941                 9.1963

                     22                     23                     24
                      A                      A                      A
 Frequencies --    949.3395               964.7853               980.2818
 Red. masses --      2.3991                 1.9978                 2.8726
 Frc consts  --      1.2739                 1.0956                 1.6264
 IR Inten    --      4.3836                13.6133                 6.2540

                     25                     26                     27
                      A                      A                      A
 Frequencies --   1013.4012              1084.2757              1131.1976
 Red. masses --      2.3061                 2.7698                 1.7756
 Frc consts  --      1.3954                 1.9186                 1.3387
 IR Inten    --     81.9284                40.0272                 4.7719

                     28                     29                     30
                      A                      A                      A
 Frequencies --   1155.9089              1188.8815              1222.8169
 Red. masses --      1.9913                 2.4225                 1.4329
 Frc consts  --      1.5676                 2.0174                 1.2623
 IR Inten    --     38.7687                 8.1227                 8.0018

                     31                     32                     33
                      A                      A                      A
 Frequencies --   1228.7652              1265.1249              1281.1508
 Red. masses --      1.8092                 1.3903                 2.2649
 Frc consts  --      1.6094                 1.3111                 2.1903
 IR Inten    --     42.2320                13.0080                62.8650

                     34                     35                     36
                      A                      A                      A
 Frequencies --   1368.6155              1394.6348              1429.9413
 Red. masses --      1.6543                 1.2544                 1.6373
 Frc consts  --      1.8257                 1.4375                 1.9725
 IR Inten    --     58.6663                51.2228                40.9627

                     37                     38                     39
                      A                      A                      A
 Frequencies --   1466.5333              1477.9292              1488.1557
 Red. masses --      1.0900                 1.0560                 1.0960
 Frc consts  --      1.3812                 1.3590                 1.4301
 IR Inten    --      6.7833                 4.1649                 2.6880

                     40                     41                     42
                      A                      A                      A
 Frequencies --   1494.6836              2224.7006              3044.6467
 Red. masses --      1.0757                 5.9718                 1.0349
 Frc consts  --      1.4160                17.4141                 5.6523
 IR Inten    --      0.4981                 1.0644                12.7654

                     43                     44                     45
                      A                      A                      A
 Frequencies --   3067.2766              3082.9332              3117.7696
 Red. masses --      1.0582                 1.0592                 1.1017
 Frc consts  --      5.8657                 5.9314                 6.3093
 IR Inten    --     29.3879                14.4408                18.2144

                     46                     47                     48
                      A                      A                      A
 Frequencies --   3118.6778              3126.5826              3144.2614
 Red. masses --      1.1083                 1.1020                 1.1085
 Frc consts  --      6.3512                 6.3469                 6.4568
 IR Inten    --      9.8140                19.0907                18.7556

                     49                     50                     51
                      A                      A                      A
 Frequencies --   3499.3764              3751.8673              3806.9434
 Red. masses --      1.1608                 1.0644                 1.0662
 Frc consts  --      8.3748                 8.8278                 9.1045
 IR Inten    --     72.8769                33.1934                32.6965

 - Thermochemistry -
 -------------------
 Temperature   298.150 Kelvin.  Pressure   1.00000 Atm.
 Atom     1 has atomic number  6 and mass  12.00000

 Molecular mass:   126.06808 amu.
 Principal axes and moments of inertia in atomic units:
                           1         2         3
     Eigenvalues --   829.697921212.811731339.56986
           X            0.99941   0.02013   0.02776
           Y           -0.01964   0.99965  -0.01775
           Z           -0.02811   0.01719   0.99946
 This molecule is an asymmetric top.
 Rotational symmetry number  1.
 Warning -- assumption of classical behavior for rotation
           may cause significant error
 Rotational temperatures (Kelvin)      0.10439     0.07142     0.06466
 Rotational constants (GHZ):           2.17518     1.48806     1.34725
 Zero-point vibrational energy     409247.8 (Joules/Mol)
                                   97.81257 (Kcal/Mol)
 Warning -- explicit consideration of  15 degrees of freedom as
           vibrations may cause significant error
 Vibrational temperatures:    122.05   193.86   252.74   320.21   340.38
          (Kelvin)            381.10   456.86   488.38   552.92   573.72
                              688.68   756.19   810.63   846.03   888.33
                              894.35   959.11   984.17  1087.20  1270.80
                             1303.41  1365.89  1388.11  1410.41  1458.06
                             1560.03  1627.54  1663.09  1710.53  1759.36
                             1767.92  1820.23  1843.29  1969.13  2006.57
                             2057.36  2110.01  2126.41  2141.12  2150.51
                             3200.84  4380.56  4413.12  4435.65  4485.77
                             4487.08  4498.45  4523.89  5034.82  5398.09
                             5477.34

 Zero-point correction=                           0.155874 (Hartree/Particle)
 Thermal correction to Energy=                    0.165535
 Thermal correction to Enthalpy=                  0.166479
 Thermal correction to Gibbs Free Energy=         0.122170
 Sum of electronic and zero-point Energies=           -422.984993
 Sum of electronic and thermal Energies=              -422.975333
 Sum of electronic and thermal Enthalpies=            -422.974388
 Sum of electronic and thermal Free Energies=         -423.018698

                     E (Thermal)             CV                S
                      KCal/Mol        Cal/Mol-Kelvin    Cal/Mol-Kelvin
 Total                  103.875             37.350             93.257
 Electronic               0.000              0.000              0.000
 Translational            0.889              2.981             40.409
 Rotational               0.889              2.981             28.690
 Vibrational            102.097             31.388             24.158
 Vibration     1          0.601              1.960              3.776
 Vibration     2          0.613              1.919              2.877
 Vibration     3          0.628              1.872              2.374
 Vibration     4          0.648              1.807              1.938
 Vibration     5          0.655              1.785              1.828
 Vibration     6          0.671              1.737              1.629
 Vibration     7          0.704              1.640              1.323
 Vibration     8          0.719              1.597              1.215
 Vibration     9          0.753              1.504              1.022
 Vibration    10          0.765              1.473              0.967
 Vibration    11          0.835              1.297              0.714
 Vibration    12          0.881              1.193              0.597
 Vibration    13          0.919              1.110              0.517
 Vibration    14          0.945              1.057              0.471
 Vibration    15          0.977              0.995              0.421

 Optimization completed.
    -- Stationary point found.
 Normal termination of Gaussian 09 at Mon Jan 27 17:08:14 2020.
