 Gaussian 09, Revision D.01,
 Gaussian 09:  ES64L-G09RevD.01 24-Apr-2013

 -----------------------------
 # b3lyp 6-31G(2df,p) opt Freq
 -----------------------------

 -----
 titel
 -----
 Symbolic Z-matrix:
 Charge =  0 Multiplicity = 1

 SCF Done:  E(RB3LYP) =  -423.196294738     A.U. after   13 cycles
 Optimization completed.
    -- Stationary point found.
 Normal termination of Gaussian 09 at Mon Jan 27 18:14:21 2020.

 ----------------------------------------------------------------------
 #N Geom=AllCheck Guess=TCheck SCRF=Check GenChk RB3LYP/6-31G(2df,p) Fr
 eq
 ----------------------------------------------------------------------

 Structure from the checkpoint file:  "/scratch/puck/g09_7334313a-848d-4482-9383-88a1a40fc874/Gau-181896.chk"
 -----
 titel
 -----
 Charge =  0 Multiplicity = 1

                         Standard orientation:
 ---------------------------------------------------------------------
 Center     Atomic      Atomic             Coordinates (Angstroms)
 Number     Number       Type             X           Y           Z
 ---------------------------------------------------------------------
      1          6           0       -2.495265    0.136222   -0.391972
      2          6           0       -1.031467    0.032302   -0.092303
      3          8           0       -0.310760   -0.702762   -1.071428
      4          6           0        0.980451   -0.892066   -0.516166
      5          6           0        0.728305   -1.208540    0.971690
      6          6           0       -0.400098   -0.233364    1.255064
      7          6           0       -0.208582    1.112122    0.561993
      8          6           0        1.154688    1.421805   -0.033567
      9          8           0        1.753946    0.276704   -0.651020
     10          1           0       -2.943883   -0.859088   -0.474120
     11          1           0       -3.009673    0.684208    0.402296
     12          1           0       -2.663212    0.663762   -1.336539
     13          1           0        1.492114   -1.665798   -1.088718
     14          1           0        0.397270   -2.243573    1.105267
     15          1           0        1.634995   -1.047233    1.560046
     16          1           0       -0.987331   -0.305290    2.162660
     17          1           0       -0.733574    1.967099    0.977237
     18          1           0        1.063301    2.203549   -0.798991
     19          1           0        1.836310    1.799945    0.742018
 ---------------------------------------------------------------------

 SCF Done:  E(RB3LYP) =  -423.196294738     A.U. after    1 cycles

 The electronic state is 1-A.
 Alpha  occ. eigenvalues --  -19.14114 -19.13584 -10.27284 -10.23861 -10.23114
 Alpha  occ. eigenvalues --  -10.19274 -10.19070 -10.18517 -10.18243  -1.07646
 Alpha  occ. eigenvalues --   -1.00167  -0.85847  -0.76795  -0.72777  -0.67232
 Alpha  occ. eigenvalues --   -0.63889  -0.56772  -0.53081  -0.51708  -0.49267
 Alpha  occ. eigenvalues --   -0.46619  -0.44117  -0.42469  -0.41466  -0.41179
 Alpha  occ. eigenvalues --   -0.40164  -0.38611  -0.37889  -0.34672  -0.32757
 Alpha  occ. eigenvalues --   -0.30752  -0.29235  -0.24902  -0.22908
 Alpha virt. eigenvalues --    0.08306   0.11568   0.12189   0.12700   0.13291
 Alpha virt. eigenvalues --    0.13592   0.15134   0.15879   0.16033   0.16598
 Alpha virt. eigenvalues --    0.18092   0.18821   0.19667   0.20858   0.21641

 Mulliken charges:
               1
     1  C   -0.486724
     2  C    0.456098
     3  O   -0.286755
     4  C    0.165525
     5  C   -0.254693
     6  C   -0.160701
     7  C   -0.152196
     8  C   -0.088298
     9  O   -0.265285
    10  H    0.127775
    11  H    0.118830
    12  H    0.130627
    13  H    0.091502
    14  H    0.107294
    15  H    0.110979
    16  H    0.086963
    17  H    0.088393
    18  H    0.109945
    19  H    0.100724
 Sum of Mulliken charges =   0.00000

 Dipole moment (field-independent basis, Debye):
    X=             -1.0421    Y=              0.4093    Z=              1.8467  Tot=              2.1596
 Quadrupole moment (field-independent basis, Debye-Ang):
   XX=            -53.5975   YY=            -49.7107   ZZ=            -54.6974
   XY=             -1.7651   XZ=              0.3929   YZ=             -0.2345

  Exact polarizability:  78.407  -0.712  75.635   1.104  -0.502  66.573
 Approx polarizability: 106.420   0.079 110.202   1.200   1.431 103.281

                      1                      2                      3
                      A                      A                      A
 Frequencies --    145.2651               200.3991               216.3078
 Red. masses --      2.5757                 1.1597                 2.0240
 Frc consts  --      0.0320                 0.0274                 0.0558
 IR Inten    --      3.1592                 0.0954                 0.6901

                      4                      5                      6
                      A                      A                      A
 Frequencies --    299.7000               380.9707               439.9686
 Red. masses --      2.5814                 2.5342                 3.7473
 Frc consts  --      0.1366                 0.2167                 0.4274
 IR Inten    --      0.3396                 0.8805                 3.1034

                      7                      8                      9
                      A                      A                      A
 Frequencies --    507.0468               554.4050               629.9551
 Red. masses --      4.0217                 4.1202                 4.3332
 Frc consts  --      0.6092                 0.7461                 1.0132
 IR Inten    --      1.5129                 3.1554                 2.3384

                     10                     11                     12
                      A                      A                      A
 Frequencies --    687.1241               702.9151               791.4556
 Red. masses --      4.4418                 4.7215                 3.0641
 Frc consts  --      1.2356                 1.3745                 1.1308
 IR Inten    --      2.2909                 6.2774                 3.8678

                     13                     14                     15
                      A                      A                      A
 Frequencies --    837.4074               863.3834               887.4503
 Red. masses --      3.8537                 1.9078                 2.7377
 Frc consts  --      1.5922                 0.8379                 1.2704
 IR Inten    --      7.9518                 9.3551                33.2653

                     16                     17                     18
                      A                      A                      A
 Frequencies --    913.0331               920.1557               970.6077
 Red. masses --      2.4721                 1.9755                 1.8314
 Frc consts  --      1.2142                 0.9855                 1.0165
 IR Inten    --      1.8698                27.3791                55.5408

                     19                     20                     21
                      A                      A                      A
 Frequencies --    979.5139              1015.4072              1060.7068
 Red. masses --      1.6873                 1.8339                 1.7171
 Frc consts  --      0.9538                 1.1140                 1.1382
 IR Inten    --      9.2917                10.5662                25.6417

                     22                     23                     24
                      A                      A                      A
 Frequencies --   1075.3261              1085.6791              1105.7235
 Red. masses --      2.2791                 2.3997                 1.8326
 Frc consts  --      1.5528                 1.6665                 1.3201
 IR Inten    --     56.8423                 2.9599                 5.0971

                     25                     26                     27
                      A                      A                      A
 Frequencies --   1126.1638              1130.1827              1185.4753
 Red. masses --      2.2925                 2.3768                 1.3976
 Frc consts  --      1.7130                 1.7887                 1.1572
 IR Inten    --     49.0051                18.7338                17.2586

                     28                     29                     30
                      A                      A                      A
 Frequencies --   1216.5133              1242.5220              1253.4294
 Red. masses --      1.9134                 2.4738                 1.1282
 Frc consts  --      1.6684                 2.2502                 1.0444
 IR Inten    --      5.9437                51.2058                 6.2732

                     31                     32                     33
                      A                      A                      A
 Frequencies --   1309.6004              1319.9443              1347.5996
 Red. masses --      1.9221                 1.5208                 1.5552
 Frc consts  --      1.9422                 1.5611                 1.6640
 IR Inten    --     15.7571                 5.3876                 5.6694

                     34                     35                     36
                      A                      A                      A
 Frequencies --   1373.4524              1407.3962              1422.2518
 Red. masses --      1.2685                 1.3750                 1.3584
 Frc consts  --      1.4098                 1.6046                 1.6190
 IR Inten    --      0.4183                12.8939                19.5132

                     37                     38                     39
                      A                      A                      A
 Frequencies --   1466.8881              1476.7100              1491.1782
 Red. masses --      2.6295                 1.0447                 1.1286
 Frc consts  --      3.3336                 1.3423                 1.4786
 IR Inten    --      9.9610                 2.8072                 3.7272

                     40                     41                     42
                      A                      A                      A
 Frequencies --   1506.0130              1524.7143              2993.3353
 Red. masses --      1.1802                 1.0931                 1.0626
 Frc consts  --      1.5771                 1.4972                 5.6094
 IR Inten    --      3.1021                 0.8215                81.6124

                     43                     44                     45
                      A                      A                      A
 Frequencies --   3028.6917              3036.8795              3052.4286
 Red. masses --      1.1014                 1.0354                 1.0608
 Frc consts  --      5.9527                 5.6260                 5.8234
 IR Inten    --     39.7411                28.0917                27.4359

                     46                     47                     48
                      A                      A                      A
 Frequencies --   3102.0580              3106.0270              3117.5279
 Red. masses --      1.1015                 1.1042                 1.1009
 Frc consts  --      6.2450                 6.2764                 6.3038
 IR Inten    --     18.0148                18.1992                14.7011

                     49                     50                     51
                      A                      A                      A
 Frequencies --   3123.6453              3155.0084              3181.6034
 Red. masses --      1.0908                 1.0889                 1.0922
 Frc consts  --      6.2708                 6.3862                 6.5140
 IR Inten    --     41.0198                12.0444                13.5744

 - Thermochemistry -
 -------------------
 Temperature   298.150 Kelvin.  Pressure   1.00000 Atm.
 Atom     1 has atomic number  6 and mass  12.00000

 Molecular mass:   126.06808 amu.
 Principal axes and moments of inertia in atomic units:
                           1         2         3
     Eigenvalues --   632.297951030.998561106.23720
           X            0.99967  -0.01508   0.02101
           Y            0.01670   0.99674  -0.07896
           Z           -0.01975   0.07928   0.99666
 This molecule is an asymmetric top.
 Rotational symmetry number  1.
 Warning -- assumption of classical behavior for rotation
           may cause significant error
 Rotational temperatures (Kelvin)      0.13698     0.08401     0.07830
 Rotational constants (GHZ):           2.85426     1.75048     1.63142
 Zero-point vibrational energy     424477.8 (Joules/Mol)
                                  101.45263 (Kcal/Mol)
 Warning -- explicit consideration of   8 degrees of freedom as
           vibrations may cause significant error
 Vibrational temperatures:    209.00   288.33   311.22   431.20   548.13
          (Kelvin)            633.02   729.53   797.66   906.36   988.62
                             1011.34  1138.73  1204.84  1242.21  1276.84
                             1313.65  1323.90  1396.49  1409.30  1460.94
                             1526.12  1547.15  1562.05  1590.89  1620.30
                             1626.08  1705.63  1750.29  1787.71  1803.40
                             1884.22  1899.10  1938.89  1976.09  2024.93
                             2046.30  2110.52  2124.65  2145.47  2166.81
                             2193.72  4306.74  4357.61  4369.39  4391.76
                             4463.16  4468.87  4485.42  4494.22  4539.35
                             4577.61

 Zero-point correction=                           0.161675 (Hartree/Particle)
 Thermal correction to Energy=                    0.168832
 Thermal correction to Enthalpy=                  0.169776
 Thermal correction to Gibbs Free Energy=         0.130440
 Sum of electronic and zero-point Energies=           -423.034620
 Sum of electronic and thermal Energies=              -423.027463
 Sum of electronic and thermal Enthalpies=            -423.026519
 Sum of electronic and thermal Free Energies=         -423.065854

                     E (Thermal)             CV                S
                      KCal/Mol        Cal/Mol-Kelvin    Cal/Mol-Kelvin
 Total                  105.944             29.126             82.789
 Electronic               0.000              0.000              0.000
 Translational            0.889              2.981             40.409
 Rotational               0.889              2.981             28.069
 Vibrational            104.166             23.164             14.311
 Vibration     1          0.617              1.908              2.733
 Vibration     2          0.638              1.839              2.129
 Vibration     3          0.645              1.816              1.990
 Vibration     4          0.692              1.674              1.419
 Vibration     5          0.751              1.511              1.035
 Vibration     6          0.800              1.383              0.827
 Vibration     7          0.862              1.234              0.641
 Vibration     8          0.910              1.130              0.535

 Optimization completed.
    -- Stationary point found.
 Normal termination of Gaussian 09 at Mon Jan 27 19:01:30 2020.
