 Gaussian 09, Revision D.01,
 Gaussian 09:  ES64L-G09RevD.01 24-Apr-2013

 -----------------------------
 # b3lyp 6-31G(2df,p) opt Freq
 -----------------------------

 -----
 titel
 -----
 Symbolic Z-matrix:
 Charge =  0 Multiplicity = 1

 SCF Done:  E(RB3LYP) =  -423.162943325     A.U. after   14 cycles
 Optimization completed.
    -- Stationary point found.
 Normal termination of Gaussian 09 at Mon Jan 27 16:08:44 2020.

 ----------------------------------------------------------------------
 #N Geom=AllCheck Guess=TCheck SCRF=Check GenChk RB3LYP/6-31G(2df,p) Fr
 eq
 ----------------------------------------------------------------------

 Structure from the checkpoint file:  "/scratch/puck/g09_87dd0044-7486-4cfe-9080-b2131c30c35b/Gau-165062.chk"
 -----
 titel
 -----
 Charge =  0 Multiplicity = 1

                         Standard orientation:
 ---------------------------------------------------------------------
 Center     Atomic      Atomic             Coordinates (Angstroms)
 Number     Number       Type             X           Y           Z
 ---------------------------------------------------------------------
      1          6           0        0.552435    1.879059   -0.855232
      2          6           0        0.225046    0.731846    0.091689
      3          8           0       -0.619099    1.163943    1.137218
      4          6           0        1.382251   -0.046706    0.745085
      5          6           0        2.186754   -0.838245   -0.246910
      6          6           0        0.855625   -1.370298    0.201034
      7          6           0       -0.264272   -0.629794   -0.550555
      8          6           0       -1.677931   -1.046220   -0.265466
      9          8           0       -2.602885   -0.283617   -0.099180
     10          1           0       -0.358330    2.234522   -1.349928
     11          1           0        0.978039    2.712463   -0.288650
     12          1           0        1.265443    1.581847   -1.630266
     13          1           0       -1.526184    1.153634    0.799626
     14          1           0        1.743529    0.186320    1.738900
     15          1           0        2.324368   -0.492589   -1.268895
     16          1           0        3.055410   -1.340062    0.167228
     17          1           0        0.742941   -2.322752    0.705516
     18          1           0       -0.159922   -0.687537   -1.645860
     19          1           0       -1.848870   -2.146303   -0.249849
 ---------------------------------------------------------------------

 SCF Done:  E(RB3LYP) =  -423.162943325     A.U. after    1 cycles

 The electronic state is 1-A.
 Alpha  occ. eigenvalues --  -19.15451 -19.12568 -10.28439 -10.24637 -10.20503
 Alpha  occ. eigenvalues --  -10.20460 -10.19634 -10.19444 -10.17305  -1.06138
 Alpha  occ. eigenvalues --   -1.01510  -0.89929  -0.75738  -0.72857  -0.64976
 Alpha  occ. eigenvalues --   -0.60118  -0.58686  -0.53947  -0.51675  -0.48719
 Alpha  occ. eigenvalues --   -0.46991  -0.45674  -0.44492  -0.42662  -0.40559
 Alpha  occ. eigenvalues --   -0.39730  -0.38555  -0.36289  -0.34165  -0.31425
 Alpha  occ. eigenvalues --   -0.30818  -0.27943  -0.26012  -0.25435
 Alpha virt. eigenvalues --   -0.03615   0.08599   0.09602   0.10509   0.11515
 Alpha virt. eigenvalues --    0.12355   0.13631   0.14862   0.15580   0.16512
 Alpha virt. eigenvalues --    0.17476   0.19339   0.19793   0.21572   0.22521

 Mulliken charges:
               1
     1  C   -0.441442
     2  C    0.380321
     3  O   -0.478185
     4  C   -0.046233
     5  C   -0.306677
     6  C   -0.070301
     7  C   -0.167662
     8  C    0.146723
     9  O   -0.269573
    10  H    0.118468
    11  H    0.127121
    12  H    0.108212
    13  H    0.292333
    14  H    0.097244
    15  H    0.108122
    16  H    0.118667
    17  H    0.090268
    18  H    0.100883
    19  H    0.091713
 Sum of Mulliken charges =   0.00000

 Dipole moment (field-independent basis, Debye):
    X=              1.7412    Y=             -1.6054    Z=             -1.3939  Tot=              2.7481
 Quadrupole moment (field-independent basis, Debye-Ang):
   XX=            -57.0382   YY=            -51.4354   ZZ=            -53.8146
   XY=              0.2760   XZ=              1.2551   YZ=             -1.7128

  Exact polarizability:  85.028  -1.569  78.011  -0.329  -0.050  63.205
 Approx polarizability: 122.015  -5.863 112.838  -2.403   5.036  99.674

                      1                      2                      3
                      A                      A                      A
 Frequencies --     93.0648               147.7120               213.8613
 Red. masses --      4.3089                 2.4830                 3.4909
 Frc consts  --      0.0220                 0.0319                 0.0941
 IR Inten    --      5.9211                 4.1058                 5.4220

                      4                      5                      6
                      A                      A                      A
 Frequencies --    237.2917               258.0597               280.0826
 Red. masses --      1.1323                 2.9631                 2.6014
 Frc consts  --      0.0376                 0.1163                 0.1202
 IR Inten    --      0.3459                 0.1124                 7.0750

                      7                      8                      9
                      A                      A                      A
 Frequencies --    352.9938               405.2026               427.3313
 Red. masses --      5.0220                 3.1393                 3.9455
 Frc consts  --      0.3687                 0.3037                 0.4245
 IR Inten    --     14.3514                 2.0498                10.6148

                     10                     11                     12
                      A                      A                      A
 Frequencies --    475.7429               529.0808               631.8578
 Red. masses --      2.0964                 1.2770                 3.5808
 Frc consts  --      0.2796                 0.2106                 0.8423
 IR Inten    --     43.1833                72.6292                 2.9086

                     13                     14                     15
                      A                      A                      A
 Frequencies --    677.0805               723.1703               794.9206
 Red. masses --      3.2281                 2.9610                 1.6990
 Frc consts  --      0.8719                 0.9124                 0.6326
 IR Inten    --     10.8850                 6.5766                 6.4511

                     16                     17                     18
                      A                      A                      A
 Frequencies --    822.6178               897.5391               937.9134
 Red. masses --      1.7083                 1.6701                 2.2172
 Frc consts  --      0.6811                 0.7927                 1.1491
 IR Inten    --      2.9653                 6.4416                 5.2927

                     19                     20                     21
                      A                      A                      A
 Frequencies --    944.5609               969.1397               976.2364
 Red. masses --      2.7321                 1.8479                 1.4235
 Frc consts  --      1.4362                 1.0226                 0.7993
 IR Inten    --     17.5035                 9.5764                 4.5943

                     22                     23                     24
                      A                      A                      A
 Frequencies --   1009.7058              1060.8192              1071.7336
 Red. masses --      1.4130                 1.5188                 1.3419
 Frc consts  --      0.8488                 1.0070                 0.9081
 IR Inten    --      8.8918                 0.6958                 0.8243

                     25                     26                     27
                      A                      A                      A
 Frequencies --   1090.3375              1108.7748              1121.3494
 Red. masses --      1.4857                 2.0634                 1.7985
 Frc consts  --      1.0407                 1.4946                 1.3324
 IR Inten    --      1.9445                14.2374                35.1166

                     28                     29                     30
                      A                      A                      A
 Frequencies --   1144.3764              1176.2575              1214.2189
 Red. masses --      2.1051                 2.1768                 2.8333
 Frc consts  --      1.6243                 1.7745                 2.4611
 IR Inten    --      8.6544                21.1468                34.9417

                     31                     32                     33
                      A                      A                      A
 Frequencies --   1232.2872              1279.2646              1314.7925
 Red. masses --      1.7852                 1.7238                 1.9451
 Frc consts  --      1.5972                 1.6621                 1.9811
 IR Inten    --     20.1651                35.1003                27.2492

                     34                     35                     36
                      A                      A                      A
 Frequencies --   1354.3791              1399.3762              1404.6404
 Red. masses --      2.7228                 1.4304                 1.2862
 Frc consts  --      2.9427                 1.6503                 1.4952
 IR Inten    --     17.9865                40.2280                 7.4748

                     37                     38                     39
                      A                      A                      A
 Frequencies --   1422.0040              1483.7441              1489.9723
 Red. masses --      1.2304                 1.1051                 1.0842
 Frc consts  --      1.4659                 1.4334                 1.4181
 IR Inten    --     10.5502                 0.4750                 4.6322

                     40                     41                     42
                      A                      A                      A
 Frequencies --   1497.3583              1797.4729              2879.1890
 Red. masses --      1.1432                10.4601                 1.0830
 Frc consts  --      1.5101                19.9119                 5.2897
 IR Inten    --      4.4587               157.9532               116.3531

                     43                     44                     45
                      A                      A                      A
 Frequencies --   2984.7753              3034.2447              3102.5174
 Red. masses --      1.0809                 1.0355                 1.0996
 Frc consts  --      5.6737                 5.6169                 6.2362
 IR Inten    --     20.5561                15.9708                17.8996

                     46                     47                     48
                      A                      A                      A
 Frequencies --   3111.0738              3117.3707              3176.4061
 Red. masses --      1.0589                 1.0998                 1.0910
 Frc consts  --      6.0387                 6.2973                 6.4858
 IR Inten    --     18.7128                23.5597                14.2931

                     49                     50                     51
                      A                      A                      A
 Frequencies --   3192.6152              3203.9368              3727.7818
 Red. masses --      1.1012                 1.1060                 1.0655
 Frc consts  --      6.6130                 6.6891                 8.7241
 IR Inten    --      2.7474                17.7118                84.3979

 - Thermochemistry -
 -------------------
 Temperature   298.150 Kelvin.  Pressure   1.00000 Atm.
 Atom     1 has atomic number  6 and mass  12.00000

 Molecular mass:   126.06808 amu.
 Principal axes and moments of inertia in atomic units:
                           1         2         3
     Eigenvalues --   731.446181157.746981496.32176
           X            0.99997  -0.00410  -0.00633
           Y            0.00378   0.99877  -0.04938
           Z            0.00652   0.04935   0.99876
 This molecule is an asymmetric top.
 Rotational symmetry number  1.
 Warning -- assumption of classical behavior for rotation
           may cause significant error
 Rotational temperatures (Kelvin)      0.11841     0.07481     0.05788
 Rotational constants (GHZ):           2.46736     1.55884     1.20612
 Zero-point vibrational energy     412701.1 (Joules/Mol)
                                   98.63793 (Kcal/Mol)
 Warning -- explicit consideration of  11 degrees of freedom as
           vibrations may cause significant error
 Vibrational temperatures:    133.90   212.52   307.70   341.41   371.29
          (Kelvin)            402.98   507.88   583.00   614.83   684.49
                              761.23   909.10   974.17  1040.48  1143.71
                             1183.56  1291.36  1349.45  1359.01  1394.37
                             1404.58  1452.74  1526.28  1541.98  1568.75
                             1595.28  1613.37  1646.50  1692.37  1746.99
                             1772.98  1840.57  1891.69  1948.65  2013.39
                             2020.96  2045.94  2134.77  2143.74  2154.36
                             2586.16  4142.51  4294.42  4365.60  4463.82
                             4476.14  4485.20  4570.13  4593.46  4609.74
                             5363.44

 Zero-point correction=                           0.157190 (Hartree/Particle)
 Thermal correction to Energy=                    0.165830
 Thermal correction to Enthalpy=                  0.166774
 Thermal correction to Gibbs Free Energy=         0.124293
 Sum of electronic and zero-point Energies=           -423.005754
 Sum of electronic and thermal Energies=              -422.997114
 Sum of electronic and thermal Enthalpies=            -422.996170
 Sum of electronic and thermal Free Energies=         -423.038650

                     E (Thermal)             CV                S
                      KCal/Mol        Cal/Mol-Kelvin    Cal/Mol-Kelvin
 Total                  104.060             33.568             89.407
 Electronic               0.000              0.000              0.000
 Translational            0.889              2.981             40.409
 Rotational               0.889              2.981             28.629
 Vibrational            102.282             27.607             20.370
 Vibration     1          0.602              1.954              3.595
 Vibration     2          0.617              1.905              2.701
 Vibration     3          0.644              1.820              2.010
 Vibration     4          0.656              1.784              1.823
 Vibration     5          0.667              1.749              1.675
 Vibration     6          0.680              1.710              1.533
 Vibration     7          0.729              1.569              1.153
 Vibration     8          0.770              1.459              0.944
 Vibration     9          0.789              1.411              0.867
 Vibration    10          0.832              1.304              0.722
 Vibration    11          0.884              1.186              0.589

 Normal termination of Gaussian 09 at Mon Jan 27 16:52:38 2020.
