 Gaussian 09, Revision D.01,
 Gaussian 09:  ES64L-G09RevD.01 24-Apr-2013

 -----------------------------
 # b3lyp 6-31G(2df,p) opt Freq
 -----------------------------

 -----
 titel
 -----
 Symbolic Z-matrix:
 Charge =  0 Multiplicity = 1

 SCF Done:  E(RB3LYP) =  -423.153916970     A.U. after   13 cycles
 Optimization completed.
    -- Stationary point found.
 Normal termination of Gaussian 09 at Mon Jan 27 17:26:26 2020.

 ----------------------------------------------------------------------
 #N Geom=AllCheck Guess=TCheck SCRF=Check GenChk RB3LYP/6-31G(2df,p) Fr
 eq
 ----------------------------------------------------------------------

 Structure from the checkpoint file:  "/scratch/puck/g09_a650cc95-6a93-4929-a18e-b29b4dc933cf/Gau-39836.chk"
 -----
 titel
 -----
 Charge =  0 Multiplicity = 1

                         Standard orientation:
 ---------------------------------------------------------------------
 Center     Atomic      Atomic             Coordinates (Angstroms)
 Number     Number       Type             X           Y           Z
 ---------------------------------------------------------------------
      1          6           0        2.595987   -0.100775   -0.787881
      2          6           0        1.319705   -0.027566   -0.001260
      3          6           0        0.977236   -1.005398    1.088691
      4          6           0        0.125048   -0.929946   -0.176520
      5          6           0       -1.061344   -0.021107   -0.095554
      6          6           0       -2.253382   -0.147689   -0.939171
      7          8           0       -2.300152   -0.461236    0.459768
      8          6           0       -0.516668    1.319054    0.413812
      9          8           0        0.883928    1.308031    0.173105
     10          1           0        2.904984   -1.140266   -0.925670
     11          1           0        2.471015    0.362171   -1.771670
     12          1           0        3.398459    0.427451   -0.262746
     13          1           0        1.611959   -1.878657    1.193398
     14          1           0        0.554172   -0.643963    2.019768
     15          1           0        0.115138   -1.760068   -0.872396
     16          1           0       -2.803505    0.744460   -1.237674
     17          1           0       -2.355972   -0.999172   -1.611613
     18          1           0       -0.949367    2.185859   -0.094447
     19          1           0       -0.736582    1.408384    1.487359
 ---------------------------------------------------------------------

 SCF Done:  E(RB3LYP) =  -423.153916970     A.U. after    1 cycles

 The electronic state is 1-A.
 Alpha  occ. eigenvalues --  -19.15019 -19.14372 -10.24663 -10.24485 -10.23474
 Alpha  occ. eigenvalues --  -10.23159 -10.19377 -10.18758 -10.18238  -1.07314
 Alpha  occ. eigenvalues --   -1.04449  -0.85452  -0.75673  -0.70111  -0.66688
 Alpha  occ. eigenvalues --   -0.63831  -0.57361  -0.55937  -0.51203  -0.48407
 Alpha  occ. eigenvalues --   -0.47752  -0.45583  -0.43316  -0.42022  -0.41028
 Alpha  occ. eigenvalues --   -0.39588  -0.38722  -0.36431  -0.34720  -0.33813
 Alpha  occ. eigenvalues --   -0.31225  -0.27763  -0.26338  -0.23411
 Alpha virt. eigenvalues --    0.07694   0.08452   0.10019   0.10982   0.11314
 Alpha virt. eigenvalues --    0.13194   0.14804   0.15135   0.16073   0.16890
 Alpha virt. eigenvalues --    0.17360   0.19036   0.19892   0.20481   0.22804

 Mulliken charges:
               1
     1  C   -0.463702
     2  C    0.456722
     3  C   -0.361709
     4  C   -0.223627
     5  C    0.442198
     6  C   -0.256924
     7  O   -0.279525
     8  C   -0.181212
     9  O   -0.298380
    10  H    0.118829
    11  H    0.125268
    12  H    0.131592
    13  H    0.115861
    14  H    0.124601
    15  H    0.092230
    16  H    0.114152
    17  H    0.115103
    18  H    0.114741
    19  H    0.113782
 Sum of Mulliken charges =   0.00000

 Dipole moment (field-independent basis, Debye):
    X=              0.5872    Y=             -0.5113    Z=             -1.3873  Tot=              1.5909
 Quadrupole moment (field-independent basis, Debye-Ang):
   XX=            -54.7260   YY=            -53.1874   ZZ=            -51.6866
   XY=             -5.0440   XZ=              3.2501   YZ=              1.1315

  Exact polarizability:  87.278  -3.858  69.762   4.657   0.066  68.688
 Approx polarizability: 114.525  -0.836 103.479   4.923  -1.443 105.239

                      1                      2                      3
                      A                      A                      A
 Frequencies --     94.8735               168.7909               204.3795
 Red. masses --      3.3639                 2.9808                 1.0444
 Frc consts  --      0.0178                 0.0500                 0.0257
 IR Inten    --      2.1010                 3.9978                 0.0444

                      4                      5                      6
                      A                      A                      A
 Frequencies --    253.4625               317.9962               362.0344
 Red. masses --      3.4800                 2.2938                 2.4715
 Frc consts  --      0.1317                 0.1367                 0.1909
 IR Inten    --      2.3188                 0.7858                 1.1049

                      7                      8                      9
                      A                      A                      A
 Frequencies --    371.3544               400.4177               501.5929
 Red. masses --      3.0545                 3.1070                 3.0743
 Frc consts  --      0.2482                 0.2935                 0.4557
 IR Inten    --      4.2561                 0.1221                 4.7738

                     10                     11                     12
                      A                      A                      A
 Frequencies --    536.7481               616.5333               715.2991
 Red. masses --      4.0744                 3.9642                 3.3536
 Frc consts  --      0.6916                 0.8878                 1.0110
 IR Inten    --      5.4758                 1.1318                 7.8532

                     13                     14                     15
                      A                      A                      A
 Frequencies --    776.9580               836.5750               854.5960
 Red. masses --      3.0471                 1.9470                 4.3134
 Frc consts  --      1.0837                 0.8028                 1.8561
 IR Inten    --      5.9747                16.0496                29.7419

                     16                     17                     18
                      A                      A                      A
 Frequencies --    905.1528               921.7575               925.7758
 Red. masses --      2.1316                 1.7966                 1.6061
 Frc consts  --      1.0290                 0.8993                 0.8110
 IR Inten    --      6.2080                14.8303                19.0179

                     19                     20                     21
                      A                      A                      A
 Frequencies --    951.7569               979.7027              1025.7886
 Red. masses --      1.7482                 2.0973                 1.4434
 Frc consts  --      0.9330                 1.1861                 0.8948
 IR Inten    --      1.5168                10.5806                15.2000

                     22                     23                     24
                      A                      A                      A
 Frequencies --   1047.9689              1061.6400              1090.6367
 Red. masses --      1.4834                 2.2477                 3.7716
 Frc consts  --      0.9599                 1.4926                 2.6432
 IR Inten    --      7.9281                 4.0912                46.2561

                     25                     26                     27
                      A                      A                      A
 Frequencies --   1107.8025              1124.6756              1127.5787
 Red. masses --      2.4816                 1.7402                 1.3586
 Frc consts  --      1.7943                 1.2969                 1.0177
 IR Inten    --     38.0029                14.2460                 3.3909

                     28                     29                     30
                      A                      A                      A
 Frequencies --   1163.6728              1213.3423              1226.2020
 Red. masses --      1.3639                 1.4808                 1.6422
 Frc consts  --      1.0881                 1.2844                 1.4548
 IR Inten    --      1.8610                 7.5646                14.1119

                     31                     32                     33
                      A                      A                      A
 Frequencies --   1248.6543              1282.7151              1356.8340
 Red. masses --      1.5931                 3.2168                 1.5917
 Frc consts  --      1.4634                 3.1184                 1.7265
 IR Inten    --     20.3562                38.6885                 3.8686

                     34                     35                     36
                      A                      A                      A
 Frequencies --   1385.6164              1425.3275              1448.3094
 Red. masses --      1.6045                 1.6924                 2.1003
 Frc consts  --      1.8150                 2.0258                 2.5958
 IR Inten    --      9.9105                 2.9901                28.2532

                     37                     38                     39
                      A                      A                      A
 Frequencies --   1476.9562              1485.6759              1504.3876
 Red. masses --      1.0466                 1.3089                 1.1670
 Frc consts  --      1.3452                 1.7022                 1.5560
 IR Inten    --      2.1658                13.7912                 3.8377

                     40                     41                     42
                      A                      A                      A
 Frequencies --   1518.2296              1535.3326              3002.7712
 Red. masses --      1.1013                 1.4844                 1.0681
 Frc consts  --      1.4957                 2.0616                 5.6744
 IR Inten    --      1.5334                 7.5720                39.7368

                     43                     44                     45
                      A                      A                      A
 Frequencies --   3038.9398              3073.9225              3077.9698
 Red. masses --      1.0353                 1.0526                 1.0940
 Frc consts  --      5.6332                 5.8598                 6.1067
 IR Inten    --     24.6496                20.9199                34.4137

                     46                     47                     48
                      A                      A                      A
 Frequencies --   3104.7496              3121.2673              3133.8136
 Red. masses --      1.1014                 1.1007                 1.0547
 Frc consts  --      6.2554                 6.3182                 6.1026
 IR Inten    --     17.9039                15.2811                10.2772

                     49                     50                     51
                      A                      A                      A
 Frequencies --   3159.6699              3182.9432              3221.2031
 Red. masses --      1.1192                 1.0925                 1.1166
 Frc consts  --      6.5834                 6.5213                 6.8265
 IR Inten    --     22.4050                 7.2517                 6.7328

 - Thermochemistry -
 -------------------
 Temperature   298.150 Kelvin.  Pressure   1.00000 Atm.
 Atom     1 has atomic number  6 and mass  12.00000

 Molecular mass:   126.06808 amu.
 Principal axes and moments of inertia in atomic units:
                           1         2         3
     Eigenvalues --   524.392301385.223301513.89211
           X            0.99952  -0.03070   0.00356
           Y            0.03061   0.99925   0.02371
           Z           -0.00429  -0.02359   0.99971
 This molecule is an asymmetric top.
 Rotational symmetry number  1.
 Warning -- assumption of classical behavior for rotation
           may cause significant error
 Rotational temperatures (Kelvin)      0.16517     0.06253     0.05721
 Rotational constants (GHZ):           3.44159     1.30285     1.19212
 Zero-point vibrational energy     416721.3 (Joules/Mol)
                                   99.59877 (Kcal/Mol)
 Warning -- explicit consideration of  11 degrees of freedom as
           vibrations may cause significant error
 Vibrational temperatures:    136.50   242.85   294.06   364.68   457.53
          (Kelvin)            520.89   534.30   576.11   721.68   772.26
                              887.05  1029.15  1117.87  1203.64  1229.57
                             1302.31  1326.20  1331.98  1369.36  1409.57
                             1475.88  1507.79  1527.46  1569.18  1593.88
                             1618.16  1622.33  1674.26  1745.73  1764.23
                             1796.53  1845.54  1952.18  1993.59  2050.73
                             2083.79  2125.01  2137.55  2164.48  2184.39
                             2209.00  4320.31  4372.35  4422.68  4428.51
                             4467.04  4490.80  4508.85  4546.05  4579.54
                             4634.59

 Zero-point correction=                           0.158721 (Hartree/Particle)
 Thermal correction to Energy=                    0.166789
 Thermal correction to Enthalpy=                  0.167733
 Thermal correction to Gibbs Free Energy=         0.126360
 Sum of electronic and zero-point Energies=           -422.995196
 Sum of electronic and thermal Energies=              -422.987128
 Sum of electronic and thermal Enthalpies=            -422.986184
 Sum of electronic and thermal Free Energies=         -423.027557

                     E (Thermal)             CV                S
                      KCal/Mol        Cal/Mol-Kelvin    Cal/Mol-Kelvin
 Total                  104.661             31.706             87.076
 Electronic               0.000              0.000              0.000
 Translational            0.889              2.981             40.409
 Rotational               0.889              2.981             28.488
 Vibrational            102.884             25.745             18.180
 Vibration     1          0.603              1.953              3.557
 Vibration     2          0.625              1.881              2.449
 Vibration     3          0.640              1.834              2.093
 Vibration     4          0.665              1.757              1.706
 Vibration     5          0.704              1.639              1.320
 Vibration     6          0.736              1.550              1.113
 Vibration     7          0.743              1.531              1.074
 Vibration     8          0.766              1.469              0.961
 Vibration     9          0.857              1.246              0.654
 Vibration    10          0.892              1.169              0.572
 Vibration    11          0.976              0.997              0.422

 Normal termination of Gaussian 09 at Mon Jan 27 18:24:15 2020.
