 Gaussian 09, Revision D.01,
 Gaussian 09:  ES64L-G09RevD.01 24-Apr-2013

 -----------------------------
 # b3lyp 6-31G(2df,p) opt Freq
 -----------------------------

 -----
 titel
 -----
 Symbolic Z-matrix:
 Charge =  0 Multiplicity = 1

 SCF Done:  E(RB3LYP) =  -423.172387184     A.U. after   14 cycles
 Optimization completed.
    -- Stationary point found.
 Normal termination of Gaussian 09 at Mon Jan 27 14:13:23 2020.

 ----------------------------------------------------------------------
 #N Geom=AllCheck Guess=TCheck SCRF=Check GenChk RB3LYP/6-31G(2df,p) Fr
 eq
 ----------------------------------------------------------------------

 Structure from the checkpoint file:  "/scratch/puck/g09_d68665fe-2f4f-4b6b-aed0-bbc44edb9f3b/Gau-4622.chk"
 -----
 titel
 -----
 Charge =  0 Multiplicity = 1

                         Standard orientation:
 ---------------------------------------------------------------------
 Center     Atomic      Atomic             Coordinates (Angstroms)
 Number     Number       Type             X           Y           Z
 ---------------------------------------------------------------------
      1          6           0       -2.501943    0.552444   -0.481051
      2          6           0       -1.386165   -0.376692   -0.053083
      3          8           0       -1.526867   -1.576419    0.003598
      4          6           0       -0.033237    0.278214    0.267533
      5          8           0       -0.290252    1.590393    0.717416
      6          6           0        0.899650   -0.657521    1.115591
      7          6           0        1.793892   -0.848278   -0.112261
      8          6           0        2.334055    0.477789   -0.552093
      9          6           0        0.921068    0.103420   -0.930178
     10          1           0       -2.163066    1.232703   -1.268658
     11          1           0       -3.352888   -0.037836   -0.822354
     12          1           0       -2.793945    1.185769    0.362076
     13          1           0        0.522366    2.099065    0.631167
     14          1           0        1.367667   -0.177737    1.980533
     15          1           0        0.370881   -1.560256    1.420932
     16          1           0        2.227090   -1.786700   -0.431679
     17          1           0        2.547057    1.254793    0.181336
     18          1           0        3.034692    0.463595   -1.380822
     19          1           0        0.613186    0.038560   -1.967391
 ---------------------------------------------------------------------

 SCF Done:  E(RB3LYP) =  -423.172387184     A.U. after    1 cycles

 The electronic state is 1-A.
 Alpha  occ. eigenvalues --  -19.14704 -19.12770 -10.26603 -10.24654 -10.20218
 Alpha  occ. eigenvalues --  -10.20064 -10.20039 -10.18255 -10.18100  -1.04393
 Alpha  occ. eigenvalues --   -1.02809  -0.89812  -0.75259  -0.72682  -0.66401
 Alpha  occ. eigenvalues --   -0.60168  -0.57304  -0.52906  -0.51761  -0.48419
 Alpha  occ. eigenvalues --   -0.46842  -0.44273  -0.42685  -0.41483  -0.40630
 Alpha  occ. eigenvalues --   -0.39043  -0.38434  -0.37521  -0.34851  -0.32938
 Alpha  occ. eigenvalues --   -0.30289  -0.27558  -0.27038  -0.24113
 Alpha virt. eigenvalues --   -0.01264   0.06713   0.09624   0.10297   0.12014
 Alpha virt. eigenvalues --    0.13549   0.14413   0.14982   0.16473   0.16889
 Alpha virt. eigenvalues --    0.17608   0.18149   0.20690   0.21371   0.22999

 Mulliken charges:
               1
     1  C   -0.474515
     2  C    0.361016
     3  O   -0.307444
     4  C    0.283899
     5  O   -0.484105
     6  C   -0.300671
     7  C   -0.010436
     8  C   -0.315099
     9  C   -0.095254
    10  H    0.136702
    11  H    0.132162
    12  H    0.158102
    13  H    0.282112
    14  H    0.091782
    15  H    0.135196
    16  H    0.095626
    17  H    0.097476
    18  H    0.120960
    19  H    0.092490
 Sum of Mulliken charges =   0.00000

 Dipole moment (field-independent basis, Debye):
    X=              1.8182    Y=              1.9594    Z=             -0.8143  Tot=              2.7943
 Quadrupole moment (field-independent basis, Debye-Ang):
   XX=            -51.2101   YY=            -56.0264   ZZ=            -51.8418
   XY=             -1.7561   XZ=              0.2203   YZ=             -0.3229

  Exact polarizability:  87.290   0.172  73.747   0.664  -1.721  65.328
 Approx polarizability: 113.437   2.277 120.936   0.877  -2.629  98.734

                      1                      2                      3
                      A                      A                      A
 Frequencies --     49.6209               136.2447               160.3924
 Red. masses --      4.1715                 3.4415                 1.0424
 Frc consts  --      0.0061                 0.0376                 0.0158
 IR Inten    --      3.8030                 1.6818                 0.0056

                      4                      5                      6
                      A                      A                      A
 Frequencies --    194.6651               239.8121               293.6062
 Red. masses --      3.3000                 1.3615                 2.3314
 Frc consts  --      0.0737                 0.0461                 0.1184
 IR Inten    --      1.2281                52.9245                13.6690

                      7                      8                      9
                      A                      A                      A
 Frequencies --    328.6322               401.4153               426.4263
 Red. masses --      3.5686                 2.6763                 2.8695
 Frc consts  --      0.2271                 0.2541                 0.3074
 IR Inten    --      6.7541                11.0741                 1.7033

                     10                     11                     12
                      A                      A                      A
 Frequencies --    462.1419               572.7207               585.5915
 Red. masses --      3.0839                 2.8691                 3.3192
 Frc consts  --      0.3881                 0.5545                 0.6706
 IR Inten    --      3.4142                 6.6969                 8.3287

                     13                     14                     15
                      A                      A                      A
 Frequencies --    637.2023               734.5039               788.4010
 Red. masses --      3.5888                 2.4970                 1.9095
 Frc consts  --      0.8585                 0.7937                 0.6993
 IR Inten    --      2.7743                 1.7441                 6.1956

                     16                     17                     18
                      A                      A                      A
 Frequencies --    839.0170               849.8195               927.2376
 Red. masses --      2.5993                 1.8249                 2.1194
 Frc consts  --      1.0781                 0.7765                 1.0736
 IR Inten    --     13.8585                 4.1225                12.0566

                     19                     20                     21
                      A                      A                      A
 Frequencies --    955.0055               961.7542               982.1104
 Red. masses --      1.9339                 1.7980                 1.5069
 Frc consts  --      1.0392                 0.9799                 0.8564
 IR Inten    --     29.6650                 2.6617                13.0365

                     22                     23                     24
                      A                      A                      A
 Frequencies --   1006.7150              1034.2744              1059.8811
 Red. masses --      2.3653                 1.5737                 1.4429
 Frc consts  --      1.4124                 0.9918                 0.9550
 IR Inten    --      5.2565                 0.3632                 3.6087

                     25                     26                     27
                      A                      A                      A
 Frequencies --   1077.5170              1092.0835              1103.8730
 Red. masses --      1.4747                 1.3551                 2.5798
 Frc consts  --      1.0088                 0.9522                 1.8521
 IR Inten    --      3.8033                 6.1371                10.3131

                     28                     29                     30
                      A                      A                      A
 Frequencies --   1141.1348              1164.6215              1203.1548
 Red. masses --      1.8477                 1.8370                 2.2122
 Frc consts  --      1.4176                 1.4680                 1.8868
 IR Inten    --     16.6338                63.3362               105.2499

                     31                     32                     33
                      A                      A                      A
 Frequencies --   1231.9429              1248.1088              1289.8670
 Red. masses --      2.4408                 1.4646                 1.7252
 Frc consts  --      2.1826                 1.3442                 1.6911
 IR Inten    --     50.3006                 4.5882                14.0458

                     34                     35                     36
                      A                      A                      A
 Frequencies --   1348.4034              1375.1534              1385.2278
 Red. masses --      2.2170                 1.4558                 1.6086
 Frc consts  --      2.3750                 1.6220                 1.8186
 IR Inten    --      2.3518                41.1846                27.7905

                     37                     38                     39
                      A                      A                      A
 Frequencies --   1456.1232              1466.2826              1467.1782
 Red. masses --      1.0563                 1.1055                 1.0549
 Frc consts  --      1.3196                 1.4003                 1.3379
 IR Inten    --     13.4516                 5.3323                 7.6177

                     40                     41                     42
                      A                      A                      A
 Frequencies --   1499.5016              1810.8984              3049.2348
 Red. masses --      1.2060                11.2284                 1.0350
 Frc consts  --      1.5977                21.6948                 5.6698
 IR Inten    --      3.4506               114.3461                 2.2113

                     43                     44                     45
                      A                      A                      A
 Frequencies --   3055.8631              3091.9140              3112.8758
 Red. masses --      1.0638                 1.0610                 1.0971
 Frc consts  --      5.8533                 5.9761                 6.2637
 IR Inten    --     35.5384                25.3335                 4.3786

                     46                     47                     48
                      A                      A                      A
 Frequencies --   3142.4236              3157.1170              3174.5536
 Red. masses --      1.1017                 1.1048                 1.0922
 Frc consts  --      6.4095                 6.4878                 6.4851
 IR Inten    --      3.0938                12.4589                 9.5559

                     49                     50                     51
                      A                      A                      A
 Frequencies --   3191.4016              3206.8904              3814.4066
 Red. masses --      1.1044                 1.0969                 1.0660
 Frc consts  --      6.6271                 6.6464                 9.1385
 IR Inten    --      6.6357                18.1059                15.5007

 - Thermochemistry -
 -------------------
 Temperature   298.150 Kelvin.  Pressure   1.00000 Atm.
 Atom     1 has atomic number  6 and mass  12.00000

 Molecular mass:   126.06808 amu.
 Principal axes and moments of inertia in atomic units:
                           1         2         3
     Eigenvalues --   620.562751299.891481521.96143
           X            0.99965  -0.02502   0.00904
           Y            0.02531   0.99910  -0.03394
           Z           -0.00818   0.03416   0.99938
 This molecule is an asymmetric top.
 Rotational symmetry number  1.
 Warning -- assumption of classical behavior for rotation
           may cause significant error
 Rotational temperatures (Kelvin)      0.13957     0.06663     0.05691
 Rotational constants (GHZ):           2.90823     1.38838     1.18580
 Zero-point vibrational energy     412621.6 (Joules/Mol)
                                   98.61893 (Kcal/Mol)
 Warning -- explicit consideration of  12 degrees of freedom as
           vibrations may cause significant error
 Vibrational temperatures:     71.39   196.03   230.77   280.08   345.04
          (Kelvin)            422.43   472.83   577.55   613.53   664.92
                              824.02   842.53   916.79  1056.79  1134.33
                             1207.16  1222.70  1334.09  1374.04  1383.75
                             1413.04  1448.44  1488.09  1524.93  1550.30
                             1571.26  1588.23  1641.84  1675.63  1731.07
                             1772.49  1795.75  1855.83  1940.05  1978.54
                             1993.03  2095.03  2109.65  2110.94  2157.45
                             2605.48  4387.16  4396.70  4448.57  4478.73
                             4521.24  4542.38  4567.47  4591.71  4613.99
                             5488.07

 Zero-point correction=                           0.157159 (Hartree/Particle)
 Thermal correction to Energy=                    0.166145
 Thermal correction to Enthalpy=                  0.167089
 Thermal correction to Gibbs Free Energy=         0.123388
 Sum of electronic and zero-point Energies=           -423.015228
 Sum of electronic and thermal Energies=              -423.006242
 Sum of electronic and thermal Enthalpies=            -423.005298
 Sum of electronic and thermal Free Energies=         -423.048999

                     E (Thermal)             CV                S
                      KCal/Mol        Cal/Mol-Kelvin    Cal/Mol-Kelvin
 Total                  104.257             34.096             91.976
 Electronic               0.000              0.000              0.000
 Translational            0.889              2.981             40.409
 Rotational               0.889              2.981             28.597
 Vibrational            102.480             28.135             22.970
 Vibration     1          0.595              1.978              4.832
 Vibration     2          0.614              1.917              2.856
 Vibration     3          0.622              1.891              2.545
 Vibration     4          0.635              1.847              2.183
 Vibration     5          0.657              1.780              1.804
 Vibration     6          0.688              1.686              1.453
 Vibration     7          0.712              1.618              1.267
 Vibration     8          0.767              1.467              0.957
 Vibration     9          0.788              1.413              0.870
 Vibration    10          0.820              1.334              0.760
 Vibration    11          0.929              1.090              0.499
 Vibration    12          0.943              1.063              0.475

 Normal termination of Gaussian 09 at Mon Jan 27 16:09:26 2020.
