 Gaussian 09, Revision D.01,
 Gaussian 09:  ES64L-G09RevD.01 24-Apr-2013

 -----------------------------
 # b3lyp 6-31G(2df,p) opt Freq
 -----------------------------

 -----
 titel
 -----
 Symbolic Z-matrix:
 Charge =  0 Multiplicity = 1

 SCF Done:  E(RB3LYP) =  -423.110997016     A.U. after   14 cycles
 Optimization completed.
    -- Stationary point found.
 Normal termination of Gaussian 09 at Tue Jan 28 14:29:59 2020.

 ----------------------------------------------------------------------
 #N Geom=AllCheck Guess=TCheck SCRF=Check GenChk RB3LYP/6-31G(2df,p) Fr
 eq
 ----------------------------------------------------------------------

 Structure from the checkpoint file:  "/scratch/puck/g09_9a418a97-46d6-4af2-b8ad-5ff22da53424/Gau-35536.chk"
 -----
 titel
 -----
 Charge =  0 Multiplicity = 1

                         Standard orientation:
 ---------------------------------------------------------------------
 Center     Atomic      Atomic             Coordinates (Angstroms)
 Number     Number       Type             X           Y           Z
 ---------------------------------------------------------------------
      1          6           0       -4.103013    0.211032    0.194338
      2          8           0       -2.932645   -0.459792   -0.207344
      3          6           0       -1.758243    0.147403    0.280750
      4          6           0       -0.561734   -0.646954   -0.235313
      5          6           0        0.742750   -0.085508    0.269760
      6          8           0        1.198710    1.129863   -0.327009
      7          6           0        1.964191   -0.065084   -0.562429
      8          6           0        3.279750   -0.135306    0.014480
      9          6           0        4.386135   -0.209613    0.478140
     10          1           0       -4.121895    1.251891   -0.165660
     11          1           0       -4.952007   -0.326594   -0.234711
     12          1           0       -4.209803    0.226896    1.290850
     13          1           0       -1.687915    1.193930   -0.058323
     14          1           0       -1.761674    0.163614    1.385214
     15          1           0       -0.660145   -1.690098    0.087861
     16          1           0       -0.572736   -0.637601   -1.329841
     17          1           0        0.893008   -0.120978    1.350121
     18          1           0        1.883009   -0.445621   -1.580362
     19          1           0        5.362615   -0.271826    0.891323
 ---------------------------------------------------------------------

 SCF Done:  E(RB3LYP) =  -423.110997016     A.U. after    1 cycles

 The electronic state is 1-A.
 Alpha  occ. eigenvalues --  -19.15991 -19.14169 -10.26237 -10.24898 -10.23150
 Alpha  occ. eigenvalues --  -10.22520 -10.19252 -10.19000 -10.18520  -1.08032
 Alpha  occ. eigenvalues --   -1.03535  -0.78656  -0.76852  -0.70160  -0.67991
 Alpha  occ. eigenvalues --   -0.63151  -0.59631  -0.54947  -0.51104  -0.50064
 Alpha  occ. eigenvalues --   -0.48503  -0.46697  -0.45231  -0.43759  -0.40180
 Alpha  occ. eigenvalues --   -0.38981  -0.37824  -0.35725  -0.33690  -0.31878
 Alpha  occ. eigenvalues --   -0.28380  -0.27934  -0.26224  -0.25724
 Alpha virt. eigenvalues --    0.01997   0.03850   0.09021   0.10586   0.11354
 Alpha virt. eigenvalues --    0.12018   0.12468   0.14002   0.14843   0.16072
 Alpha virt. eigenvalues --    0.16300   0.17290   0.17662   0.18439   0.21052

 Mulliken charges:
               1
     1  C   -0.230076
     2  O   -0.231496
     3  C   -0.045398
     4  C   -0.246771
     5  C    0.066403
     6  O   -0.242431
     7  C   -0.163510
     8  C    0.318361
     9  C   -0.410702
    10  H    0.106219
    11  H    0.127665
    12  H    0.103660
    13  H    0.105365
    14  H    0.084260
    15  H    0.116567
    16  H    0.116026
    17  H    0.104302
    18  H    0.118454
    19  H    0.203101
 Sum of Mulliken charges =   0.00000

 Dipole moment (field-independent basis, Debye):
    X=             -0.3885    Y=             -0.8060    Z=              0.8324  Tot=              1.2221
 Quadrupole moment (field-independent basis, Debye-Ang):
   XX=            -45.3334   YY=            -56.7920   ZZ=            -51.7158
   XY=             -4.9227   XZ=             -0.0146   YZ=              0.4018

  Exact polarizability: 121.928  -2.617  58.027   5.266  -0.049  63.861
 Approx polarizability: 151.074  -4.601  92.336  12.452  -1.327  98.289

                      1                      2                      3
                      A                      A                      A
 Frequencies --     44.6481                76.5459                89.8798
 Red. masses --      4.0451                 3.5045                 2.2257
 Frc consts  --      0.0048                 0.0121                 0.0106
 IR Inten    --      0.8779                 1.0173                 4.8537

                      4                      5                      6
                      A                      A                      A
 Frequencies --    113.1228               160.5904               200.9459
 Red. masses --      2.8341                 3.3955                 3.7886
 Frc consts  --      0.0214                 0.0516                 0.0901
 IR Inten    --      0.5142                 1.7594                 2.0288

                      7                      8                      9
                      A                      A                      A
 Frequencies --    233.8662               300.1699               306.2762
 Red. masses --      1.2409                 4.0363                 4.5076
 Frc consts  --      0.0400                 0.2143                 0.2491
 IR Inten    --      3.3811                 0.9682                 0.6315

                     10                     11                     12
                      A                      A                      A
 Frequencies --    416.6225               470.7528               544.0284
 Red. masses --      3.7501                 2.9406                 6.1882
 Frc consts  --      0.3835                 0.3840                 1.0791
 IR Inten    --      2.8933                 1.0372                 2.5305

                     13                     14                     15
                      A                      A                      A
 Frequencies --    584.5697               622.1944               671.1395
 Red. masses --      4.3329                 1.2133                 1.2514
 Frc consts  --      0.8724                 0.2767                 0.3321
 IR Inten    --     12.9602                46.7156                34.9143

                     16                     17                     18
                      A                      A                      A
 Frequencies --    773.8199               822.9912               910.7693
 Red. masses --      2.4011                 1.7085                 5.3466
 Frc consts  --      0.8471                 0.6818                 2.6130
 IR Inten    --      7.9664                 6.3197                38.8674

                     19                     20                     21
                      A                      A                      A
 Frequencies --    960.9938               999.7808              1027.9710
 Red. masses --      3.1574                 4.2984                 2.3363
 Frc consts  --      1.7180                 2.5314                 1.4546
 IR Inten    --     22.7284                17.4051                14.8265

                     22                     23                     24
                      A                      A                      A
 Frequencies --   1063.5299              1083.7168              1141.9565
 Red. masses --      1.9590                 1.8825                 1.4523
 Frc consts  --      1.3055                 1.3026                 1.1158
 IR Inten    --      2.2045                 5.2518                 7.9519

                     25                     26                     27
                      A                      A                      A
 Frequencies --   1155.6168              1165.9026              1186.5691
 Red. masses --      1.7854                 4.2760                 1.3635
 Frc consts  --      1.4048                 3.4246                 1.1311
 IR Inten    --     29.2931               151.9286                 3.6551

                     28                     29                     30
                      A                      A                      A
 Frequencies --   1227.7272              1241.6373              1268.6648
 Red. masses --      1.6615                 1.2642                 1.5384
 Frc consts  --      1.4755                 1.1483                 1.4589
 IR Inten    --     40.4473                 4.8302                 2.8058

                     31                     32                     33
                      A                      A                      A
 Frequencies --   1307.5760              1310.0199              1365.6095
 Red. masses --      1.3383                 1.1253                 1.2497
 Frc consts  --      1.3481                 1.1378                 1.3731
 IR Inten    --      2.4775                 0.9893                13.2851

                     34                     35                     36
                      A                      A                      A
 Frequencies --   1425.9843              1468.6165              1479.1655
 Red. masses --      1.3859                 1.9624                 1.2911
 Frc consts  --      1.6603                 2.4938                 1.6643
 IR Inten    --     37.8453                 7.9987                 7.6614

                     37                     38                     39
                      A                      A                      A
 Frequencies --   1481.4259              1485.6462              1504.8850
 Red. masses --      1.1635                 1.0481                 1.0603
 Frc consts  --      1.5044                 1.3629                 1.4147
 IR Inten    --      0.6434                 4.9426                10.2687

                     40                     41                     42
                      A                      A                      A
 Frequencies --   1533.4063              2241.9312              2945.6253
 Red. masses --      1.0942                 5.9494                 1.0591
 Frc consts  --      1.5158                17.6183                 5.4144
 IR Inten    --      1.4264                 0.6077                38.3135

                     43                     44                     45
                      A                      A                      A
 Frequencies --   2970.4101              2987.6146              3013.3675
 Red. masses --      1.0406                 1.0956                 1.1031
 Frc consts  --      5.4095                 5.7616                 5.9016
 IR Inten    --     73.0631                43.8837                55.6785

                     46                     47                     48
                      A                      A                      A
 Frequencies --   3042.8998              3088.3345              3104.9296
 Red. masses --      1.0598                 1.0973                 1.0930
 Frc consts  --      5.7818                 6.1660                 6.2084
 IR Inten    --     16.1148                 2.9327                20.9561

                     49                     50                     51
                      A                      A                      A
 Frequencies --   3114.6592              3114.8111              3502.5378
 Red. masses --      1.0956                 1.0860                 1.1623
 Frc consts  --      6.2620                 6.2076                 8.4014
 IR Inten    --     25.6232                34.8510                74.8465

 - Thermochemistry -
 -------------------
 Temperature   298.150 Kelvin.  Pressure   1.00000 Atm.
 Atom     1 has atomic number  6 and mass  12.00000

 Molecular mass:   126.06808 amu.
 Principal axes and moments of inertia in atomic units:
                           1         2         3
     Eigenvalues --   213.226283349.026983402.42951
           X            0.99996  -0.00839  -0.00335
           Y            0.00865   0.99605   0.08841
           Z            0.00259  -0.08843   0.99608
 This molecule is an asymmetric top.
 Rotational symmetry number  1.
 Rotational temperatures (Kelvin)      0.40621     0.02586     0.02546
 Rotational constants (GHZ):           8.46397     0.53889     0.53043
 Zero-point vibrational energy     408862.4 (Joules/Mol)
                                   97.72046 (Kcal/Mol)
 Warning -- explicit consideration of  13 degrees of freedom as
           vibrations may cause significant error
 Vibrational temperatures:     64.24   110.13   129.32   162.76   231.05
          (Kelvin)            289.12   336.48   431.88   440.66   599.43
                              677.31   782.73   841.06   895.20   965.62
                             1113.35  1184.10  1310.39  1382.65  1438.46
                             1479.02  1530.18  1559.22  1643.02  1662.67
                             1677.47  1707.21  1766.42  1786.44  1825.32
                             1881.31  1884.82  1964.81  2051.67  2113.01
                             2128.19  2131.44  2137.51  2165.19  2206.23
                             3225.63  4238.09  4273.75  4298.51  4335.56
                             4378.05  4443.42  4467.30  4481.29  4481.51
                             5039.36

 Zero-point correction=                           0.155727 (Hartree/Particle)
 Thermal correction to Energy=                    0.165918
 Thermal correction to Enthalpy=                  0.166862
 Thermal correction to Gibbs Free Energy=         0.119463
 Sum of electronic and zero-point Energies=           -422.955270
 Sum of electronic and thermal Energies=              -422.945079
 Sum of electronic and thermal Enthalpies=            -422.944135
 Sum of electronic and thermal Free Energies=         -422.991535

                     E (Thermal)             CV                S
                      KCal/Mol        Cal/Mol-Kelvin    Cal/Mol-Kelvin
 Total                  104.115             35.466             99.761
 Electronic               0.000              0.000              0.000
 Translational            0.889              2.981             40.409
 Rotational               0.889              2.981             29.276
 Vibrational            102.338             29.505             30.077
 Vibration     1          0.595              1.980              5.041
 Vibration     2          0.599              1.965              3.978
 Vibration     3          0.602              1.956              3.663
 Vibration     4          0.607              1.939              3.215
 Vibration     5          0.622              1.891              2.543
 Vibration     6          0.638              1.839              2.124
 Vibration     7          0.654              1.789              1.849
 Vibration     8          0.693              1.673              1.416
 Vibration     9          0.697              1.662              1.382
 Vibration    10          0.780              1.434              0.904
 Vibration    11          0.828              1.315              0.735
 Vibration    12          0.899              1.153              0.557
 Vibration    13          0.942              1.065              0.477

 Normal termination of Gaussian 09 at Tue Jan 28 15:00:14 2020.
