 Gaussian 09, Revision D.01,
 Gaussian 09:  ES64L-G09RevD.01 24-Apr-2013

 -----------------------------
 # b3lyp 6-31G(2df,p) opt Freq
 -----------------------------

 -----
 titel
 -----
 Symbolic Z-matrix:
 Charge =  0 Multiplicity = 1

 SCF Done:  E(RB3LYP) =  -423.167258530     A.U. after   14 cycles
 Optimization completed.
    -- Stationary point found.
 Normal termination of Gaussian 09 at Mon Jan 27 13:16:08 2020.

 ----------------------------------------------------------------------
 #N Geom=AllCheck Guess=TCheck SCRF=Check GenChk RB3LYP/6-31G(2df,p) Fr
 eq
 ----------------------------------------------------------------------

 Structure from the checkpoint file:  "/scratch/puck/g09_aee56d44-c2c9-4aea-bfe0-9ae29bbfa23c/Gau-100862.chk"
 -----
 titel
 -----
 Charge =  0 Multiplicity = 1

                         Standard orientation:
 ---------------------------------------------------------------------
 Center     Atomic      Atomic             Coordinates (Angstroms)
 Number     Number       Type             X           Y           Z
 ---------------------------------------------------------------------
      1          8           0       -2.307215    1.321294    0.173900
      2          6           0       -2.349859    0.199255   -0.267315
      3          6           0       -1.398408   -0.910476    0.091220
      4          6           0       -0.235166   -1.021956   -0.961331
      5          6           0        0.671041   -0.254383    0.030467
      6          6           0        1.137153    1.186383   -0.270462
      7          6           0        2.553323    0.616281   -0.067254
      8          8           0        2.023968   -0.703670    0.191264
      9          6           0       -0.341824   -0.542619    1.162026
     10          1           0       -3.114245   -0.082385   -1.028401
     11          1           0       -1.968808   -1.832746    0.234409
     12          1           0        0.101950   -2.055271   -1.071941
     13          1           0       -0.392783   -0.585771   -1.952163
     14          1           0        0.915970    1.543105   -1.277974
     15          1           0        0.812552    1.935153    0.452652
     16          1           0        3.207587    0.626986   -0.946748
     17          1           0        3.108556    1.006850    0.793452
     18          1           0       -0.028828   -1.414749    1.741173
     19          1           0       -0.593534    0.282926    1.830132
 ---------------------------------------------------------------------

 SCF Done:  E(RB3LYP) =  -423.167258531     A.U. after    1 cycles

 The electronic state is 1-A.
 Alpha  occ. eigenvalues --  -19.14254 -19.13224 -10.27270 -10.24144 -10.23002
 Alpha  occ. eigenvalues --  -10.20297 -10.19518 -10.18648 -10.18220  -1.04871
 Alpha  occ. eigenvalues --   -1.03906  -0.85094  -0.73925  -0.69952  -0.67399
 Alpha  occ. eigenvalues --   -0.63105  -0.55053  -0.52302  -0.50439  -0.49065
 Alpha  occ. eigenvalues --   -0.48320  -0.45841  -0.44308  -0.41365  -0.40177
 Alpha  occ. eigenvalues --   -0.38613  -0.37001  -0.36849  -0.36159  -0.32431
 Alpha  occ. eigenvalues --   -0.30612  -0.29621  -0.25451  -0.24467
 Alpha virt. eigenvalues --   -0.02411   0.06423   0.09103   0.10688   0.11642
 Alpha virt. eigenvalues --    0.12157   0.14047   0.14379   0.15047   0.17463
 Alpha virt. eigenvalues --    0.17500   0.18049   0.18807   0.19153   0.21442

 Mulliken charges:
               1
     1  O   -0.245389
     2  C    0.148589
     3  C   -0.101561
     4  C   -0.316062
     5  C    0.480503
     6  C   -0.339760
     7  C   -0.081910
     8  O   -0.313584
     9  C   -0.306595
    10  H    0.076733
    11  H    0.089795
    12  H    0.123502
    13  H    0.105178
    14  H    0.111511
    15  H    0.126457
    16  H    0.103741
    17  H    0.105631
    18  H    0.113276
    19  H    0.119944
 Sum of Mulliken charges =   0.00000

 Dipole moment (field-independent basis, Debye):
    X=             -0.0607    Y=             -0.8937    Z=             -0.9554  Tot=              1.3096
 Quadrupole moment (field-independent basis, Debye-Ang):
   XX=            -55.0611   YY=            -55.2883   ZZ=            -51.5023
   XY=              9.0113   XZ=              0.6482   YZ=             -0.2465

  Exact polarizability:  86.644   3.264  72.617   2.054   2.165  67.754
 Approx polarizability: 110.470  -0.435 115.486   1.921   6.288 101.704

                      1                      2                      3
                      A                      A                      A
 Frequencies --     53.4761                77.5794                92.5973
 Red. masses --      5.9525                 2.0876                 3.0670
 Frc consts  --      0.0100                 0.0074                 0.0155
 IR Inten    --      5.7805                 1.1654                 4.3559

                      4                      5                      6
                      A                      A                      A
 Frequencies --    199.0207               261.0012               318.7259
 Red. masses --      4.3918                 3.3647                 1.9845
 Frc consts  --      0.1025                 0.1350                 0.1188
 IR Inten    --      4.9927                 1.0060                 3.6633

                      7                      8                      9
                      A                      A                      A
 Frequencies --    378.5246               406.6073               495.7182
 Red. masses --      1.8879                 2.8842                 4.5351
 Frc consts  --      0.1594                 0.2809                 0.6566
 IR Inten    --      3.3030                 1.4689                 7.0554

                     10                     11                     12
                      A                      A                      A
 Frequencies --    636.6428               771.1674               780.7797
 Red. masses --      3.0656                 2.9163                 1.1200
 Frc consts  --      0.7321                 1.0218                 0.4023
 IR Inten    --      7.0141                 9.7737                 0.0143

                     13                     14                     15
                      A                      A                      A
 Frequencies --    811.9566               840.8671               867.3129
 Red. masses --      1.9138                 2.1172                 4.4856
 Frc consts  --      0.7434                 0.8820                 1.9880
 IR Inten    --      2.8305                 0.4729                10.2900

                     16                     17                     18
                      A                      A                      A
 Frequencies --    896.2449               924.6960               932.9895
 Red. masses --      2.5673                 1.7437                 2.7972
 Frc consts  --      1.2150                 0.8785                 1.4346
 IR Inten    --      7.1785                 2.8066                19.3854

                     19                     20                     21
                      A                      A                      A
 Frequencies --    974.2391              1000.8887              1019.3382
 Red. masses --      2.5501                 1.4986                 2.5605
 Frc consts  --      1.4261                 0.8845                 1.5675
 IR Inten    --      2.5285                 3.9328                41.8289

                     22                     23                     24
                      A                      A                      A
 Frequencies --   1027.4689              1096.0233              1133.2261
 Red. masses --      3.3887                 1.3954                 1.9352
 Frc consts  --      2.1078                 0.9876                 1.4642
 IR Inten    --     83.1228                 9.6211                 8.1102

                     25                     26                     27
                      A                      A                      A
 Frequencies --   1152.8738              1160.9179              1170.7020
 Red. masses --      1.6580                 2.1293                 1.3701
 Frc consts  --      1.2984                 1.6908                 1.1064
 IR Inten    --     10.1070                58.5740                 7.2841

                     28                     29                     30
                      A                      A                      A
 Frequencies --   1197.0310              1224.6657              1238.0282
 Red. masses --      1.4768                 1.3419                 1.5427
 Frc consts  --      1.2468                 1.1858                 1.3932
 IR Inten    --      0.8589                 2.1926                 2.4344

                     31                     32                     33
                      A                      A                      A
 Frequencies --   1251.0764              1265.6743              1311.7896
 Red. masses --      1.5221                 1.5402                 2.4060
 Frc consts  --      1.4036                 1.4537                 2.4394
 IR Inten    --      0.8925                 0.7430                35.3679

                     34                     35                     36
                      A                      A                      A
 Frequencies --   1353.0772              1363.1247              1421.4047
 Red. masses --      1.6691                 1.5791                 1.1942
 Frc consts  --      1.8005                 1.7288                 1.4215
 IR Inten    --      4.3756                11.2317                10.6693

                     37                     38                     39
                      A                      A                      A
 Frequencies --   1453.5602              1477.1196              1489.1721
 Red. masses --      1.0933                 1.1226                 1.1040
 Frc consts  --      1.3610                 1.4431                 1.4425
 IR Inten    --      8.2304                 1.9144                 2.2446

                     40                     41                     42
                      A                      A                      A
 Frequencies --   1532.4336              1818.3441              2863.6769
 Red. masses --      1.1097                10.0982                 1.0824
 Frc consts  --      1.5354                19.6718                 5.2300
 IR Inten    --      1.3193               129.5744               135.3818

                     43                     44                     45
                      A                      A                      A
 Frequencies --   3022.6491              3053.9601              3063.2778
 Red. masses --      1.0552                 1.0595                 1.1113
 Frc consts  --      5.6801                 5.8221                 6.1441
 IR Inten    --     91.9498                25.0882                32.5189

                     46                     47                     48
                      A                      A                      A
 Frequencies --   3065.7874              3074.4949              3083.7918
 Red. masses --      1.0744                 1.0693                 1.0605
 Frc consts  --      5.9496                 5.9554                 5.9419
 IR Inten    --     26.4886                15.5484                15.7851

                     49                     50                     51
                      A                      A                      A
 Frequencies --   3118.3521              3133.8472              3140.1667
 Red. masses --      1.1063                 1.1081                 1.1080
 Frc consts  --      6.3384                 6.4121                 6.4372
 IR Inten    --     12.0365                 5.8539                18.5023

 - Thermochemistry -
 -------------------
 Temperature   298.150 Kelvin.  Pressure   1.00000 Atm.
 Atom     1 has atomic number  8 and mass  15.99491

 Molecular mass:   126.06808 amu.
 Principal axes and moments of inertia in atomic units:
                           1         2         3
     Eigenvalues --   528.264751514.482831712.85512
           X            0.99909   0.04261   0.00273
           Y           -0.04262   0.99908   0.00361
           Z           -0.00258  -0.00372   0.99999
 This molecule is an asymmetric top.
 Rotational symmetry number  1.
 Warning -- assumption of classical behavior for rotation
           may cause significant error
 Rotational temperatures (Kelvin)      0.16396     0.05719     0.05057
 Rotational constants (GHZ):           3.41636     1.19166     1.05364
 Zero-point vibrational energy     415690.9 (Joules/Mol)
                                   99.35251 (Kcal/Mol)
 Warning -- explicit consideration of   9 degrees of freedom as
           vibrations may cause significant error
 Vibrational temperatures:     76.94   111.62   133.23   286.35   375.52
          (Kelvin)            458.57   544.61   585.02   713.23   915.99
                             1109.54  1123.37  1168.22  1209.82  1247.87
                             1289.49  1330.43  1342.36  1401.71  1440.05
                             1466.60  1478.30  1576.93  1630.46  1658.73
                             1670.30  1684.38  1722.26  1762.02  1781.24
                             1800.02  1821.02  1887.37  1946.77  1961.23
                             2045.08  2091.35  2125.24  2142.58  2204.83
                             2616.19  4120.19  4348.91  4393.96  4407.37
                             4410.98  4423.51  4436.88  4486.61  4508.90
                             4517.99

 Zero-point correction=                           0.158328 (Hartree/Particle)
 Thermal correction to Energy=                    0.166856
 Thermal correction to Enthalpy=                  0.167800
 Thermal correction to Gibbs Free Energy=         0.124164
 Sum of electronic and zero-point Energies=           -423.008930
 Sum of electronic and thermal Energies=              -423.000403
 Sum of electronic and thermal Enthalpies=            -422.999459
 Sum of electronic and thermal Free Energies=         -423.043095

                     E (Thermal)             CV                S
                      KCal/Mol        Cal/Mol-Kelvin    Cal/Mol-Kelvin
 Total                  104.704             31.299             91.840
 Electronic               0.000              0.000              0.000
 Translational            0.889              2.981             40.409
 Rotational               0.889              2.981             28.707
 Vibrational            102.926             25.337             22.725
 Vibration     1          0.596              1.976              4.685
 Vibration     2          0.599              1.964              3.951
 Vibration     3          0.602              1.954              3.604
 Vibration     4          0.637              1.841              2.142
 Vibration     5          0.669              1.744              1.655
 Vibration     6          0.705              1.638              1.317
 Vibration     7          0.749              1.516              1.045
 Vibration     8          0.771              1.456              0.939
 Vibration     9          0.851              1.260              0.669

 Normal termination of Gaussian 09 at Mon Jan 27 13:57:46 2020.
