 Gaussian 09, Revision D.01,
 Gaussian 09:  ES64L-G09RevD.01 24-Apr-2013

 -----------------------------
 # b3lyp 6-31G(2df,p) opt Freq
 -----------------------------

 -----
 titel
 -----
 Symbolic Z-matrix:
 Charge =  0 Multiplicity = 1

 SCF Done:  E(RB3LYP) =  -423.174311513     A.U. after   14 cycles
 Optimization completed.
    -- Stationary point found.
 Normal termination of Gaussian 09 at Tue Jan 28 03:14:09 2020.

 ----------------------------------------------------------------------
 #N Geom=AllCheck Guess=TCheck SCRF=Check GenChk RB3LYP/6-31G(2df,p) Fr
 eq
 ----------------------------------------------------------------------

 Structure from the checkpoint file:  "/scratch/puck/g09_2005ff52-e744-4984-908c-caa0990aebf1/Gau-115146.chk"
 -----
 titel
 -----
 Charge =  0 Multiplicity = 1

                         Standard orientation:
 ---------------------------------------------------------------------
 Center     Atomic      Atomic             Coordinates (Angstroms)
 Number     Number       Type             X           Y           Z
 ---------------------------------------------------------------------
      1          8           0       -2.189286   -0.293254    1.056563
      2          6           0       -1.719517    0.117914   -0.231376
      3          6           0       -0.843835    1.380173   -0.155869
      4          6           0        0.569745    1.086070    0.343719
      5          6           0        1.731031    0.999012   -0.633364
      6          6           0        1.168649   -0.248245    0.007358
      7          8           0        1.919074   -0.846731    1.037316
      8          6           0        0.325548   -1.191164   -0.779006
      9          6           0       -0.991465   -1.026219   -0.908114
     10          1           0       -1.444306   -0.702976    1.510614
     11          1           0       -2.631348    0.358379   -0.787887
     12          1           0       -0.802917    1.831096   -1.154765
     13          1           0       -1.339162    2.101704    0.500190
     14          1           0        0.826895    1.456502    1.330060
     15          1           0        1.527073    1.180885   -1.684148
     16          1           0        2.703585    1.328312   -0.283387
     17          1           0        2.643085   -1.337319    0.631814
     18          1           0        0.827819   -2.049407   -1.223113
     19          1           0       -1.589959   -1.752543   -1.450497
 ---------------------------------------------------------------------

 SCF Done:  E(RB3LYP) =  -423.174311513     A.U. after    1 cycles

 The electronic state is 1-A.
 Alpha  occ. eigenvalues --  -19.14558 -19.12784 -10.24191 -10.23069 -10.19042
 Alpha  occ. eigenvalues --  -10.18959 -10.18582 -10.18514 -10.18052  -1.03069
 Alpha  occ. eigenvalues --   -1.00907  -0.86370  -0.78075  -0.73872  -0.64691
 Alpha  occ. eigenvalues --   -0.60580  -0.59400  -0.52779  -0.52606  -0.48344
 Alpha  occ. eigenvalues --   -0.46111  -0.45540  -0.43703  -0.41589  -0.40398
 Alpha  occ. eigenvalues --   -0.38012  -0.36936  -0.34957  -0.33640  -0.31524
 Alpha  occ. eigenvalues --   -0.29738  -0.26885  -0.25230  -0.24273
 Alpha virt. eigenvalues --    0.00287   0.08026   0.09400   0.09752   0.11432
 Alpha virt. eigenvalues --    0.12013   0.13826   0.16243   0.16745   0.17190
 Alpha virt. eigenvalues --    0.18311   0.19686   0.20081   0.23845   0.25107

 Mulliken charges:
               1
     1  O   -0.438390
     2  C    0.083698
     3  C   -0.253875
     4  C   -0.084196
     5  C   -0.352165
     6  C    0.380929
     7  O   -0.472035
     8  C   -0.139068
     9  C   -0.091907
    10  H    0.286068
    11  H    0.083637
    12  H    0.098739
    13  H    0.109770
    14  H    0.101176
    15  H    0.112188
    16  H    0.112107
    17  H    0.280877
    18  H    0.085678
    19  H    0.096767
 Sum of Mulliken charges =   0.00000

 Dipole moment (field-independent basis, Debye):
    X=              1.8388    Y=             -0.2711    Z=             -1.6330  Tot=              2.4741
 Quadrupole moment (field-independent basis, Debye-Ang):
   XX=            -53.3524   YY=            -50.9906   ZZ=            -54.2321
   XY=             -2.5054   XZ=              1.5638   YZ=              1.1918

  Exact polarizability:  91.202  -1.856  72.436   1.350   2.763  65.051
 Approx polarizability: 135.631  -5.760 103.095   0.973   1.803 102.029

                      1                      2                      3
                      A                      A                      A
 Frequencies --     73.6401               160.6883               233.5562
 Red. masses --      4.6493                 2.9588                 2.3369
 Frc consts  --      0.0149                 0.0450                 0.0751
 IR Inten    --      0.7761                 1.0812                18.5660

                      4                      5                      6
                      A                      A                      A
 Frequencies --    284.1723               320.7138               353.0662
 Red. masses --      1.3911                 1.3172                 2.6585
 Frc consts  --      0.0662                 0.0798                 0.1953
 IR Inten    --     60.9934                43.7582                 3.2316

                      7                      8                      9
                      A                      A                      A
 Frequencies --    364.6946               371.2827               448.5202
 Red. masses --      2.1329                 3.4221                 2.0004
 Frc consts  --      0.1671                 0.2779                 0.2371
 IR Inten    --     64.4863                 2.3329                11.0907

                     10                     11                     12
                      A                      A                      A
 Frequencies --    507.4757               565.2503               585.5082
 Red. masses --      3.7475                 4.5044                 3.3691
 Frc consts  --      0.5686                 0.8479                 0.6805
 IR Inten    --      0.9830                 1.8666                 3.4065

                     13                     14                     15
                      A                      A                      A
 Frequencies --    682.9770               770.9870               787.4442
 Red. masses --      4.2986                 2.3327                 1.7160
 Frc consts  --      1.1814                 0.8170                 0.6269
 IR Inten    --      5.9052                 5.7455                23.6583

                     16                     17                     18
                      A                      A                      A
 Frequencies --    845.2255               873.4390               909.5290
 Red. masses --      2.6954                 1.6580                 2.0578
 Frc consts  --      1.1345                 0.7452                 1.0030
 IR Inten    --      2.4843                 4.3885                11.5383

                     19                     20                     21
                      A                      A                      A
 Frequencies --    929.5800               941.0856               987.2114
 Red. masses --      2.2189                 2.7663                 2.2869
 Frc consts  --      1.1297                 1.4435                 1.3132
 IR Inten    --     16.9993                11.8596                 9.3255

                     22                     23                     24
                      A                      A                      A
 Frequencies --   1000.6778              1029.4559              1037.7440
 Red. masses --      1.3575                 2.2555                 1.4356
 Frc consts  --      0.8009                 1.4084                 0.9109
 IR Inten    --      0.7390                21.4249                30.3260

                     25                     26                     27
                      A                      A                      A
 Frequencies --   1064.9299              1107.0689              1133.9069
 Red. masses --      1.9267                 2.5758                 1.5659
 Frc consts  --      1.2873                 1.8600                 1.1863
 IR Inten    --     64.5373                19.8811                 9.6876

                     28                     29                     30
                      A                      A                      A
 Frequencies --   1183.5308              1212.2335              1242.6254
 Red. masses --      1.1018                 1.9025                 1.1774
 Frc consts  --      0.9093                 1.6472                 1.0711
 IR Inten    --      3.1164                86.8780                41.9288

                     31                     32                     33
                      A                      A                      A
 Frequencies --   1265.6333              1283.2717              1328.1429
 Red. masses --      1.6049                 1.5592                 1.6617
 Frc consts  --      1.5146                 1.5129                 1.7270
 IR Inten    --      4.5370                 7.5088                 4.3925

                     34                     35                     36
                      A                      A                      A
 Frequencies --   1338.3143              1387.3059              1407.4471
 Red. masses --      1.3041                 1.4605                 1.5405
 Frc consts  --      1.3762                 1.6561                 1.7979
 IR Inten    --     22.3026                 8.4605                 2.8578

                     37                     38                     39
                      A                      A                      A
 Frequencies --   1414.6223              1433.7846              1469.3801
 Red. masses --      1.5240                 1.3836                 1.2861
 Frc consts  --      1.7968                 1.6758                 1.6360
 IR Inten    --     15.9323                47.8307                 0.7276

                     40                     41                     42
                      A                      A                      A
 Frequencies --   1486.1667              1704.5481              3030.5947
 Red. masses --      1.3441                 7.0452                 1.0657
 Frc consts  --      1.7491                12.0604                 5.7671
 IR Inten    --      9.0391                 1.7969                17.3937

                     43                     44                     45
                      A                      A                      A
 Frequencies --   3057.6445              3087.4146              3121.6905
 Red. masses --      1.0846                 1.0986                 1.0535
 Frc consts  --      5.9742                 6.1702                 6.0485
 IR Inten    --     49.4796                19.0648                11.1616

                     46                     47                     48
                      A                      A                      A
 Frequencies --   3131.8694              3169.7990              3173.5619
 Red. masses --      1.0858                 1.0895                 1.0950
 Frc consts  --      6.2749                 6.4499                 6.4977
 IR Inten    --     18.0335                 7.8966                21.5755

                     49                     50                     51
                      A                      A                      A
 Frequencies --   3216.6560              3788.9071              3802.6532
 Red. masses --      1.1171                 1.0661                 1.0661
 Frc consts  --      6.8098                 9.0172                 9.0826
 IR Inten    --      8.5143                19.2672                14.8108

 - Thermochemistry -
 -------------------
 Temperature   298.150 Kelvin.  Pressure   1.00000 Atm.
 Atom     1 has atomic number  8 and mass  15.99491

 Molecular mass:   126.06808 amu.
 Principal axes and moments of inertia in atomic units:
                           1         2         3
     Eigenvalues --   670.992981263.143321415.69532
           X            0.99999  -0.00045   0.00407
           Y            0.00033   0.99953   0.03050
           Z           -0.00408  -0.03050   0.99953
 This molecule is an asymmetric top.
 Rotational symmetry number  1.
 Warning -- assumption of classical behavior for rotation
           may cause significant error
 Rotational temperatures (Kelvin)      0.12908     0.06857     0.06118
 Rotational constants (GHZ):           2.68966     1.42877     1.27481
 Zero-point vibrational energy     419336.7 (Joules/Mol)
                                  100.22389 (Kcal/Mol)
 Warning -- explicit consideration of  12 degrees of freedom as
           vibrations may cause significant error
 Vibrational temperatures:    105.95   231.19   336.03   408.86   461.44
          (Kelvin)            507.98   524.71   534.19   645.32   730.14
                              813.27   842.41   982.65  1109.28  1132.96
                             1216.09  1256.68  1308.61  1337.46  1354.01
                             1420.38  1439.75  1481.16  1493.08  1532.19
                             1592.82  1631.44  1702.83  1744.13  1787.86
                             1820.96  1846.34  1910.90  1925.53  1996.02
                             2025.00  2035.32  2062.89  2114.11  2138.26
                             2452.46  4360.34  4399.26  4442.10  4491.41
                             4506.06  4560.63  4566.04  4628.04  5451.39
                             5471.16

 Zero-point correction=                           0.159717 (Hartree/Particle)
 Thermal correction to Energy=                    0.168090
 Thermal correction to Enthalpy=                  0.169034
 Thermal correction to Gibbs Free Energy=         0.127054
 Sum of electronic and zero-point Energies=           -423.014595
 Sum of electronic and thermal Energies=              -423.006222
 Sum of electronic and thermal Enthalpies=            -423.005278
 Sum of electronic and thermal Free Energies=         -423.047257

                     E (Thermal)             CV                S
                      KCal/Mol        Cal/Mol-Kelvin    Cal/Mol-Kelvin
 Total                  105.478             33.177             88.353
 Electronic               0.000              0.000              0.000
 Translational            0.889              2.981             40.409
 Rotational               0.889              2.981             28.575
 Vibrational            103.700             27.215             19.370
 Vibration     1          0.599              1.966              4.054
 Vibration     2          0.622              1.891              2.542
 Vibration     3          0.654              1.790              1.851
 Vibration     4          0.683              1.703              1.508
 Vibration     5          0.706              1.634              1.306
 Vibration     6          0.729              1.569              1.152
 Vibration     7          0.738              1.545              1.102
 Vibration     8          0.743              1.531              1.074
 Vibration     9          0.808              1.364              0.800
 Vibration    10          0.863              1.233              0.640
 Vibration    11          0.921              1.106              0.513
 Vibration    12          0.943              1.063              0.475

 Optimization completed.
    -- Stationary point found.
 Normal termination of Gaussian 09 at Tue Jan 28 03:58:13 2020.
