 Gaussian 09, Revision D.01,
 Gaussian 09:  ES64L-G09RevD.01 24-Apr-2013

 -----------------------------
 # b3lyp 6-31G(2df,p) opt Freq
 -----------------------------

 -----
 titel
 -----
 Symbolic Z-matrix:
 Charge =  0 Multiplicity = 1

 SCF Done:  E(RB3LYP) =  -423.183777703     A.U. after   13 cycles
 Optimization completed.
    -- Stationary point found.
 Normal termination of Gaussian 09 at Mon Jan 27 11:16:06 2020.

 ----------------------------------------------------------------------
 #N Geom=AllCheck Guess=TCheck SCRF=Check GenChk RB3LYP/6-31G(2df,p) Fr
 eq
 ----------------------------------------------------------------------

 Structure from the checkpoint file:  "/scratch/puck/g09_4bdd675b-798a-4552-b2df-5a4f617f85e3/Gau-149619.chk"
 -----
 titel
 -----
 Charge =  0 Multiplicity = 1

                         Standard orientation:
 ---------------------------------------------------------------------
 Center     Atomic      Atomic             Coordinates (Angstroms)
 Number     Number       Type             X           Y           Z
 ---------------------------------------------------------------------
      1          6           0       -2.402450   -0.162503    0.324631
      2          6           0       -1.500893    0.414158   -0.733332
      3          8           0       -0.528040    1.346882   -0.337340
      4          6           0        0.313180    0.767933    0.669231
      5          6           0        1.780660    0.916479    0.267273
      6          6           0        1.976004   -0.305599   -0.634774
      7          8           0        1.214040   -1.342824   -0.019506
      8          6           0        0.082200   -0.771239    0.634714
      9          6           0       -1.192599   -0.939089   -0.170651
     10          1           0       -2.377945    0.269240    1.320454
     11          1           0       -3.378276   -0.521084    0.015321
     12          1           0       -1.855758    0.594535   -1.741078
     13          1           0        0.082418    1.216305    1.641009
     14          1           0        1.965880    1.869334   -0.232338
     15          1           0        2.421007    0.846252    1.152570
     16          1           0        1.609737   -0.098683   -1.651089
     17          1           0        3.011886   -0.648325   -0.702802
     18          1           0        0.018495   -1.219125    1.632408
     19          1           0       -1.322054   -1.861760   -0.722241
 ---------------------------------------------------------------------

 SCF Done:  E(RB3LYP) =  -423.183777703     A.U. after    1 cycles

 The electronic state is 1-A.
 Alpha  occ. eigenvalues --  -19.14215 -19.13444 -10.23455 -10.23422 -10.23346
 Alpha  occ. eigenvalues --  -10.22447 -10.18798 -10.18635 -10.18427  -1.05137
 Alpha  occ. eigenvalues --   -1.02248  -0.84942  -0.77443  -0.73896  -0.62874
 Alpha  occ. eigenvalues --   -0.61161  -0.57537  -0.56685  -0.51216  -0.50855
 Alpha  occ. eigenvalues --   -0.47593  -0.46125  -0.42610  -0.42215  -0.39733
 Alpha  occ. eigenvalues --   -0.38483  -0.37791  -0.35309  -0.33873  -0.33460
 Alpha  occ. eigenvalues --   -0.30705  -0.28481  -0.25384  -0.23110
 Alpha virt. eigenvalues --    0.08774   0.09676   0.10528   0.11947   0.13439
 Alpha virt. eigenvalues --    0.13886   0.15076   0.15925   0.16898   0.17227
 Alpha virt. eigenvalues --    0.17370   0.18657   0.19735   0.20583   0.22772

 Mulliken charges:
               1
     1  C   -0.334866
     2  C    0.117704
     3  O   -0.279593
     4  C    0.067487
     5  C   -0.238092
     6  C   -0.080851
     7  O   -0.274663
     8  C    0.097600
     9  C   -0.100083
    10  H    0.115557
    11  H    0.115390
    12  H    0.101807
    13  H    0.078034
    14  H    0.116140
    15  H    0.104944
    16  H    0.101042
    17  H    0.107747
    18  H    0.084110
    19  H    0.100586
 Sum of Mulliken charges =   0.00000

 Dipole moment (field-independent basis, Debye):
    X=             -0.2048    Y=              0.1770    Z=              0.3624  Tot=              0.4524
 Quadrupole moment (field-independent basis, Debye-Ang):
   XX=            -49.4802   YY=            -58.0326   ZZ=            -50.3559
   XY=              3.7823   XZ=              0.6205   YZ=              1.1560

  Exact polarizability:  87.696   2.753  65.578  -0.639   0.598  67.605
 Approx polarizability: 112.808   0.734 102.942  -1.042  -1.887 103.112

                      1                      2                      3
                      A                      A                      A
 Frequencies --     94.0336               175.4658               241.4665
 Red. masses --      3.9988                 2.5818                 2.8364
 Frc consts  --      0.0208                 0.0468                 0.0974
 IR Inten    --      4.5220                 0.1648                 4.1604

                      4                      5                      6
                      A                      A                      A
 Frequencies --    337.1395               409.5561               442.3007
 Red. masses --      2.5010                 2.8948                 3.5717
 Frc consts  --      0.1675                 0.2861                 0.4117
 IR Inten    --      3.7819                 1.5745                 2.7138

                      7                      8                      9
                      A                      A                      A
 Frequencies --    592.7157               645.0298               703.7770
 Red. masses --      4.0576                 2.2777                 3.2906
 Frc consts  --      0.8399                 0.5584                 0.9603
 IR Inten    --      5.7651                 0.5518                 1.2889

                     10                     11                     12
                      A                      A                      A
 Frequencies --    788.9768               806.7855               843.3719
 Red. masses --      2.1142                 2.0671                 2.8691
 Frc consts  --      0.7754                 0.7927                 1.2024
 IR Inten    --     13.8134                16.9663                13.8150

                     13                     14                     15
                      A                      A                      A
 Frequencies --    850.5772               867.0741               901.6507
 Red. masses --      2.8008                 2.8835                 2.1769
 Frc consts  --      1.1939                 1.2773                 1.0427
 IR Inten    --      4.6879                 3.2986                10.7242

                     16                     17                     18
                      A                      A                      A
 Frequencies --    921.4072               947.9802               972.4130
 Red. masses --      2.1674                 2.8446                 2.2778
 Frc consts  --      1.0842                 1.5061                 1.2690
 IR Inten    --      8.6573                13.0420                 8.2727

                     19                     20                     21
                      A                      A                      A
 Frequencies --   1010.1776              1013.0271              1044.3507
 Red. masses --      1.6372                 2.1971                 1.7829
 Frc consts  --      0.9844                 1.3285                 1.1457
 IR Inten    --      2.9633                27.9428                11.1679

                     22                     23                     24
                      A                      A                      A
 Frequencies --   1060.8034              1075.1603              1101.1807
 Red. masses --      1.9009                 1.5647                 1.4344
 Frc consts  --      1.2603                 1.0657                 1.0248
 IR Inten    --      2.4938                47.6635                 2.8649

                     25                     26                     27
                      A                      A                      A
 Frequencies --   1107.5416              1127.1809              1160.3515
 Red. masses --      3.9842                 1.9410                 2.9122
 Frc consts  --      2.8795                 1.4530                 2.3102
 IR Inten    --     65.4167                19.7724                95.3995

                     28                     29                     30
                      A                      A                      A
 Frequencies --   1192.1434              1209.7004              1233.4221
 Red. masses --      1.5633                 1.5721                 1.2822
 Frc consts  --      1.3090                 1.3555                 1.1493
 IR Inten    --      7.0128                23.6853                 7.6190

                     31                     32                     33
                      A                      A                      A
 Frequencies --   1284.9240              1295.6175              1315.6035
 Red. masses --      1.9461                 1.2878                 1.4260
 Frc consts  --      1.8931                 1.2736                 1.4542
 IR Inten    --      3.2893                 3.1933                 5.8046

                     34                     35                     36
                      A                      A                      A
 Frequencies --   1331.2477              1349.7585              1360.3036
 Red. masses --      1.3446                 1.3025                 1.4690
 Frc consts  --      1.4040                 1.3981                 1.6015
 IR Inten    --      1.2038                 7.1985                 3.4066

                     37                     38                     39
                      A                      A                      A
 Frequencies --   1394.8429              1397.7755              1469.6880
 Red. masses --      1.5909                 1.3752                 1.1048
 Frc consts  --      1.8237                 1.5830                 1.4060
 IR Inten    --     17.1138                 0.2757                 4.0306

                     40                     41                     42
                      A                      A                      A
 Frequencies --   1479.3583              1520.3201              2998.1430
 Red. masses --      1.2848                 1.0921                 1.0696
 Frc consts  --      1.6567                 1.4872                 5.6646
 IR Inten    --     10.3983                 0.5207                55.3726

                     43                     44                     45
                      A                      A                      A
 Frequencies --   3039.9548              3050.5514              3062.7268
 Red. masses --      1.0850                 1.0765                 1.0755
 Frc consts  --      5.9074                 5.9026                 5.9439
 IR Inten    --     11.3198                23.1061                59.2486

                     46                     47                     48
                      A                      A                      A
 Frequencies --   3092.5243              3125.0657              3126.9439
 Red. masses --      1.0940                 1.1019                 1.0543
 Frc consts  --      6.1642                 6.3405                 6.0735
 IR Inten    --     43.4080                14.7667                11.6077

                     49                     50                     51
                      A                      A                      A
 Frequencies --   3182.5823              3193.6226              3215.7163
 Red. masses --      1.0902                 1.0960                 1.1143
 Frc consts  --      6.5060                 6.5863                 6.7889
 IR Inten    --     15.2223                 4.6340                12.5425

 - Thermochemistry -
 -------------------
 Temperature   298.150 Kelvin.  Pressure   1.00000 Atm.
 Atom     1 has atomic number  6 and mass  12.00000

 Molecular mass:   126.06808 amu.
 Principal axes and moments of inertia in atomic units:
                           1         2         3
     Eigenvalues --   532.167601117.395691355.92784
           X            0.99929   0.03749  -0.00480
           Y           -0.03735   0.99895   0.02655
           Z            0.00579  -0.02636   0.99964
 This molecule is an asymmetric top.
 Rotational symmetry number  1.
 Warning -- assumption of classical behavior for rotation
           may cause significant error
 Rotational temperatures (Kelvin)      0.16276     0.07751     0.06388
 Rotational constants (GHZ):           3.39130     1.61513     1.33100
 Zero-point vibrational energy     425655.4 (Joules/Mol)
                                  101.73409 (Kcal/Mol)
 Warning -- explicit consideration of   7 degrees of freedom as
           vibrations may cause significant error
 Vibrational temperatures:    135.29   252.46   347.42   485.07   589.26
          (Kelvin)            636.37   852.78   928.05  1012.58  1135.16
                             1160.78  1213.42  1223.79  1247.52  1297.27
                             1325.70  1363.93  1399.08  1453.42  1457.52
                             1502.59  1526.26  1546.91  1584.35  1593.50
                             1621.76  1669.48  1715.23  1740.49  1774.62
                             1848.72  1864.10  1892.86  1915.37  1942.00
                             1957.17  2006.87  2011.08  2114.55  2128.46
                             2187.40  4313.65  4373.81  4389.06  4406.58
                             4449.45  4496.27  4498.97  4579.02  4594.90
                             4626.69

 Zero-point correction=                           0.162124 (Hartree/Particle)
 Thermal correction to Energy=                    0.169089
 Thermal correction to Enthalpy=                  0.170033
 Thermal correction to Gibbs Free Energy=         0.130681
 Sum of electronic and zero-point Energies=           -423.021654
 Sum of electronic and thermal Energies=              -423.014689
 Sum of electronic and thermal Enthalpies=            -423.013744
 Sum of electronic and thermal Free Energies=         -423.053096

                     E (Thermal)             CV                S
                      KCal/Mol        Cal/Mol-Kelvin    Cal/Mol-Kelvin
 Total                  106.105             28.212             82.823
 Electronic               0.000              0.000              0.000
 Translational            0.889              2.981             40.409
 Rotational               0.889              2.981             28.180
 Vibrational            104.328             22.251             14.235
 Vibration     1          0.603              1.953              3.574
 Vibration     2          0.627              1.873              2.376
 Vibration     3          0.658              1.777              1.792
 Vibration     4          0.718              1.601              1.226
 Vibration     5          0.774              1.449              0.928
 Vibration     6          0.802              1.378              0.819
 Vibration     7          0.950              1.047              0.462

 Optimization completed.
    -- Stationary point found.
 Normal termination of Gaussian 09 at Mon Jan 27 12:07:39 2020.
