 Gaussian 09, Revision D.01,
 Gaussian 09:  ES64L-G09RevD.01 24-Apr-2013

 -----------------------------
 # b3lyp 6-31G(2df,p) opt Freq
 -----------------------------

 -----
 titel
 -----
 Symbolic Z-matrix:
 Charge =  0 Multiplicity = 1

 SCF Done:  E(RB3LYP) =  -423.118108076     A.U. after   13 cycles
 Optimization completed.
    -- Stationary point found.
 Normal termination of Gaussian 09 at Tue Jan 28 02:52:31 2020.

 ----------------------------------------------------------------------
 #N Geom=AllCheck Guess=TCheck SCRF=Check GenChk RB3LYP/6-31G(2df,p) Fr
 eq
 ----------------------------------------------------------------------

 Structure from the checkpoint file:  "/scratch/puck/g09_1e9783d8-3ca0-4cd2-8376-b9014ea42b1e/Gau-105048.chk"
 -----
 titel
 -----
 Charge =  0 Multiplicity = 1

                         Standard orientation:
 ---------------------------------------------------------------------
 Center     Atomic      Atomic             Coordinates (Angstroms)
 Number     Number       Type             X           Y           Z
 ---------------------------------------------------------------------
      1          8           0        2.882054   -0.238733   -0.726170
      2          6           0        1.624117    0.328086   -0.429798
      3          6           0        1.378271    0.590079    1.097888
      4          6           0        0.306995   -0.508098    1.096165
      5          6           0        0.556275   -0.764742   -0.400011
      6          6           0       -0.741716   -0.202312    0.078715
      7          6           0       -2.101043   -0.889948   -0.032239
      8          8           0       -2.735966    0.370294   -0.335554
      9          6           0       -1.485498    1.090721   -0.261812
     10          1           0        3.547086    0.452985   -0.646886
     11          1           0        1.411382    1.176883   -1.097890
     12          1           0        2.270482    0.305576    1.659882
     13          1           0        1.058374    1.592617    1.402810
     14          1           0        0.127596   -1.219446    1.894804
     15          1           0        0.621918   -1.694832   -0.952823
     16          1           0       -2.209571   -1.612220   -0.852207
     17          1           0       -2.491901   -1.335907    0.892035
     18          1           0       -1.227090    1.559099   -1.220786
     19          1           0       -1.501378    1.860038    0.521403
 ---------------------------------------------------------------------

 SCF Done:  E(RB3LYP) =  -423.118108076     A.U. after    1 cycles

 The electronic state is 1-A.
 Alpha  occ. eigenvalues --  -19.14074 -19.13037 -10.23944 -10.22987 -10.22814
 Alpha  occ. eigenvalues --  -10.20257 -10.19663 -10.19258 -10.18686  -1.03514
 Alpha  occ. eigenvalues --   -1.02472  -0.89583  -0.73698  -0.69193  -0.66298
 Alpha  occ. eigenvalues --   -0.65344  -0.54643  -0.54088  -0.52260  -0.49422
 Alpha  occ. eigenvalues --   -0.47595  -0.46801  -0.45139  -0.42097  -0.40320
 Alpha  occ. eigenvalues --   -0.37946  -0.36186  -0.34943  -0.32623  -0.31194
 Alpha  occ. eigenvalues --   -0.29417  -0.27873  -0.24821  -0.24300
 Alpha virt. eigenvalues --    0.06618   0.07722   0.09431   0.10221   0.10915
 Alpha virt. eigenvalues --    0.11965   0.14232   0.14643   0.15856   0.16741
 Alpha virt. eigenvalues --    0.17137   0.17964   0.20121   0.20578   0.23614

 Mulliken charges:
               1
     1  O   -0.437922
     2  C    0.129849
     3  C   -0.279260
     4  C   -0.131764
     5  C   -0.140254
     6  C    0.298031
     7  C   -0.154271
     8  O   -0.276885
     9  C   -0.145885
    10  H    0.282623
    11  H    0.062707
    12  H    0.110585
    13  H    0.092016
    14  H    0.087249
    15  H    0.095563
    16  H    0.102867
    17  H    0.101912
    18  H    0.101440
    19  H    0.101398
 Sum of Mulliken charges =   0.00000

 Dipole moment (field-independent basis, Debye):
    X=              1.7685    Y=              0.6487    Z=              0.7510  Tot=              2.0279
 Quadrupole moment (field-independent basis, Debye-Ang):
   XX=            -58.1793   YY=            -50.4986   ZZ=            -53.1324
   XY=              7.0337   XZ=             -0.2420   YZ=             -0.9900

  Exact polarizability:  86.403   4.258  72.179   0.078   0.116  67.853
 Approx polarizability: 113.145   2.409 107.355  -0.761   0.938 104.195

                      1                      2                      3
                      A                      A                      A
 Frequencies --     84.7374               122.3317               171.8063
 Red. masses --      4.5009                 3.4159                 2.8450
 Frc consts  --      0.0190                 0.0301                 0.0495
 IR Inten    --      3.2775                 1.9135                 1.1526

                      4                      5                      6
                      A                      A                      A
 Frequencies --    223.5479               280.9018               311.6575
 Red. masses --      2.1361                 1.2218                 3.1951
 Frc consts  --      0.0629                 0.0568                 0.1828
 IR Inten    --     11.8880                83.5884                11.7361

                      7                      8                      9
                      A                      A                      A
 Frequencies --    405.0377               421.7033               473.4542
 Red. masses --      2.6417                 3.7921                 2.2013
 Frc consts  --      0.2553                 0.3973                 0.2907
 IR Inten    --      4.1890                 3.4735                 5.8950

                     10                     11                     12
                      A                      A                      A
 Frequencies --    586.6919               734.0599               827.4088
 Red. masses --      4.2314                 2.5376                 2.1419
 Frc consts  --      0.8581                 0.8056                 0.8639
 IR Inten    --      5.3492                 0.9251                 0.8594

                     13                     14                     15
                      A                      A                      A
 Frequencies --    851.7107               862.4168               874.1178
 Red. masses --      3.0058                 2.1598                 1.9918
 Frc consts  --      1.2847                 0.9464                 0.8967
 IR Inten    --      3.5843                13.6059                12.8506

                     16                     17                     18
                      A                      A                      A
 Frequencies --    941.2082               956.2579               981.3196
 Red. masses --      1.7230                 2.6412                 1.5396
 Frc consts  --      0.8993                 1.4230                 0.8735
 IR Inten    --      5.7811                13.9313                11.9875

                     19                     20                     21
                      A                      A                      A
 Frequencies --    991.7106              1009.3941              1011.9763
 Red. masses --      2.4962                 1.9486                 1.8637
 Frc consts  --      1.4465                 1.1698                 1.1245
 IR Inten    --      5.3988                 3.2632                 2.5394

                     22                     23                     24
                      A                      A                      A
 Frequencies --   1032.5363              1053.4235              1112.3143
 Red. masses --     11.1921                 2.6748                 2.3207
 Frc consts  --      7.0303                 1.7488                 1.6917
 IR Inten    --     82.7824                24.1900                31.8993

                     25                     26                     27
                      A                      A                      A
 Frequencies --   1117.6295              1139.2529              1155.1544
 Red. masses --      2.0326                 1.6467                 1.0761
 Frc consts  --      1.4959                 1.2592                 0.8460
 IR Inten    --     15.7028                 6.7690                 0.2512

                     28                     29                     30
                      A                      A                      A
 Frequencies --   1172.7090              1199.9119              1205.7378
 Red. masses --      1.5891                 1.5232                 1.2323
 Frc consts  --      1.2876                 1.2921                 1.0556
 IR Inten    --      4.4874                19.2487                10.8195

                     31                     32                     33
                      A                      A                      A
 Frequencies --   1239.0799              1255.8851              1258.1437
 Red. masses --      1.8168                 1.6459                 1.6459
 Frc consts  --      1.6435                 1.5296                 1.5350
 IR Inten    --      5.0069                13.5220                28.1180

                     34                     35                     36
                      A                      A                      A
 Frequencies --   1310.4969              1321.3070              1367.0108
 Red. masses --      1.3369                 1.3875                 1.4413
 Frc consts  --      1.3528                 1.4272                 1.5869
 IR Inten    --      0.5390                24.7876                14.5741

                     37                     38                     39
                      A                      A                      A
 Frequencies --   1427.4052              1462.5228              1476.9256
 Red. masses --      1.4638                 3.7970                 1.2631
 Frc consts  --      1.7572                 4.7851                 1.6233
 IR Inten    --     10.3739                 1.6638                 1.0129

                     40                     41                     42
                      A                      A                      A
 Frequencies --   1510.1064              1535.0038              2972.8575
 Red. masses --      1.0819                 1.1087                 1.0835
 Frc consts  --      1.4536                 1.5392                 5.6418
 IR Inten    --      2.2055                 0.2554                52.7491

                     43                     44                     45
                      A                      A                      A
 Frequencies --   2995.4345              3006.6873              3040.1813
 Red. masses --      1.0521                 1.0571                 1.0906
 Frc consts  --      5.5621                 5.6305                 5.9389
 IR Inten    --    135.9866                 7.7838                21.1564

                     46                     47                     48
                      A                      A                      A
 Frequencies --   3040.7026              3042.6796              3113.0000
 Red. masses --      1.0948                 1.0975                 1.1026
 Frc consts  --      5.9637                 5.9862                 6.2955
 IR Inten    --     31.8887                83.3703                18.5010

                     49                     50                     51
                      A                      A                      A
 Frequencies --   3167.3235              3183.9294              3811.2869
 Red. masses --      1.0897                 1.0952                 1.0661
 Frc consts  --      6.4407                 6.5415                 9.1240
 IR Inten    --     19.2955                 9.7577                19.8892

 - Thermochemistry -
 -------------------
 Temperature   298.150 Kelvin.  Pressure   1.00000 Atm.
 Atom     1 has atomic number  8 and mass  15.99491

 Molecular mass:   126.06808 amu.
 Principal axes and moments of inertia in atomic units:
                           1         2         3
     Eigenvalues --   429.304551759.765001772.24489
           X            0.99984   0.01788   0.00256
           Y           -0.01766   0.99728  -0.07157
           Z           -0.00383   0.07151   0.99743
 This molecule is an asymmetric top.
 Rotational symmetry number  1.
 Rotational temperatures (Kelvin)      0.20175     0.04922     0.04887
 Rotational constants (GHZ):           4.20387     1.02556     1.01834
 Zero-point vibrational energy     417796.3 (Joules/Mol)
                                   99.85572 (Kcal/Mol)
 Warning -- explicit consideration of  10 degrees of freedom as
           vibrations may cause significant error
 Vibrational temperatures:    121.92   176.01   247.19   321.64   404.15
          (Kelvin)            448.41   582.76   606.74   681.19   844.12
                             1056.15  1190.46  1225.42  1240.82  1257.66
                             1354.19  1375.84  1411.90  1426.85  1452.29
                             1456.01  1485.59  1515.64  1600.37  1608.02
                             1639.13  1662.01  1687.26  1726.40  1734.79
                             1782.76  1806.94  1810.19  1885.51  1901.06
                             1966.82  2053.72  2104.24  2124.96  2172.70
                             2208.53  4277.27  4309.76  4325.95  4374.14
                             4374.89  4377.73  4478.91  4557.07  4580.96
                             5483.58

 Zero-point correction=                           0.159130 (Hartree/Particle)
 Thermal correction to Energy=                    0.167301
 Thermal correction to Enthalpy=                  0.168246
 Thermal correction to Gibbs Free Energy=         0.126205
 Sum of electronic and zero-point Energies=           -422.958978
 Sum of electronic and thermal Energies=              -422.950807
 Sum of electronic and thermal Enthalpies=            -422.949862
 Sum of electronic and thermal Free Energies=         -422.991903

                     E (Thermal)             CV                S
                      KCal/Mol        Cal/Mol-Kelvin    Cal/Mol-Kelvin
 Total                  104.983             31.204             88.482
 Electronic               0.000              0.000              0.000
 Translational            0.889              2.981             40.409
 Rotational               0.889              2.981             28.684
 Vibrational            103.206             25.243             19.389
 Vibration     1          0.601              1.960              3.778
 Vibration     2          0.610              1.930              3.063
 Vibration     3          0.626              1.877              2.416
 Vibration     4          0.649              1.805              1.930
 Vibration     5          0.681              1.709              1.528
 Vibration     6          0.700              1.651              1.354
 Vibration     7          0.770              1.459              0.944
 Vibration     8          0.784              1.423              0.886
 Vibration     9          0.830              1.309              0.728
 Vibration    10          0.944              1.060              0.473

 Normal termination of Gaussian 09 at Tue Jan 28 03:44:55 2020.
