 Gaussian 09, Revision D.01,
 Gaussian 09:  ES64L-G09RevD.01 24-Apr-2013

 -----------------------------
 # b3lyp 6-31G(2df,p) opt Freq
 -----------------------------

 -----
 titel
 -----
 Symbolic Z-matrix:
 Charge =  0 Multiplicity = 1

 SCF Done:  E(RB3LYP) =  -423.166487164     A.U. after   14 cycles
 Optimization completed.
    -- Stationary point found.
 Normal termination of Gaussian 09 at Tue Jan 28 13:26:12 2020.

 ----------------------------------------------------------------------
 #N Geom=AllCheck Guess=TCheck SCRF=Check GenChk RB3LYP/6-31G(2df,p) Fr
 eq
 ----------------------------------------------------------------------

 Structure from the checkpoint file:  "/scratch/puck/g09_00db3199-cac1-475f-93ed-788d99cc2ddf/Gau-159599.chk"
 -----
 titel
 -----
 Charge =  0 Multiplicity = 1

                         Standard orientation:
 ---------------------------------------------------------------------
 Center     Atomic      Atomic             Coordinates (Angstroms)
 Number     Number       Type             X           Y           Z
 ---------------------------------------------------------------------
      1          6           0        3.205556    0.017720   -0.359563
      2          8           0        1.871766    0.487636   -0.439740
      3          6           0        0.932453   -0.494832   -0.164365
      4          6           0        0.526248   -0.756120    1.252955
      5          6           0       -0.400365    0.011792    0.329301
      6          6           0       -0.876005    1.472452    0.364494
      7          6           0       -2.234968    1.022765   -0.269207
      8          6           0       -1.726947   -0.433678   -0.217210
      9          8           0       -2.196310   -1.503162   -0.490940
     10          1           0        3.392285   -0.789489   -1.082889
     11          1           0        3.856271    0.862752   -0.594372
     12          1           0        3.443033   -0.354738    0.646730
     13          1           0        0.913812   -1.329669   -0.867437
     14          1           0        0.220159   -1.758478    1.534945
     15          1           0        1.018928   -0.174194    2.025079
     16          1           0       -0.973528    1.891097    1.368406
     17          1           0       -0.279652    2.150083   -0.247965
     18          1           0       -3.131332    1.204219    0.330063
     19          1           0       -2.419453    1.382034   -1.285552
 ---------------------------------------------------------------------

 SCF Done:  E(RB3LYP) =  -423.166487164     A.U. after    1 cycles

 The electronic state is 1-A.
 Alpha  occ. eigenvalues --  -19.15605 -19.12867 -10.26220 -10.24867 -10.23287
 Alpha  occ. eigenvalues --  -10.20006 -10.19758 -10.19167 -10.18967  -1.05174
 Alpha  occ. eigenvalues --   -1.03706  -0.87623  -0.80523  -0.70020  -0.63823
 Alpha  occ. eigenvalues --   -0.62248  -0.59484  -0.53034  -0.51290  -0.47190
 Alpha  occ. eigenvalues --   -0.46180  -0.45706  -0.43985  -0.43615  -0.40774
 Alpha  occ. eigenvalues --   -0.38328  -0.38141  -0.36471  -0.34997  -0.34258
 Alpha  occ. eigenvalues --   -0.31643  -0.28346  -0.26322  -0.23482
 Alpha virt. eigenvalues --   -0.01778   0.08225   0.10186   0.10960   0.12383
 Alpha virt. eigenvalues --    0.12935   0.13570   0.15192   0.15785   0.15982
 Alpha virt. eigenvalues --    0.17192   0.18308   0.18661   0.20134   0.23091

 Mulliken charges:
               1
     1  C   -0.232443
     2  O   -0.239311
     3  C    0.076997
     4  C   -0.381452
     5  C    0.194842
     6  C   -0.321178
     7  C   -0.343086
     8  C    0.339099
     9  O   -0.315357
    10  H    0.112947
    11  H    0.131652
    12  H    0.113210
    13  H    0.104780
    14  H    0.133607
    15  H    0.126445
    16  H    0.109888
    17  H    0.125595
    18  H    0.130416
    19  H    0.133349
 Sum of Mulliken charges =   0.00000

 Dipole moment (field-independent basis, Debye):
    X=              2.1468    Y=              1.3856    Z=              0.9469  Tot=              2.7249
 Quadrupole moment (field-independent basis, Debye-Ang):
   XX=            -51.7487   YY=            -56.0554   ZZ=            -51.7460
   XY=             -7.1784   XZ=             -1.4585   YZ=             -0.9432

  Exact polarizability:  96.435  -2.294  75.227   2.771  -0.041  65.323
 Approx polarizability: 122.228   2.992 115.150   5.033   1.381  99.053

                      1                      2                      3
                      A                      A                      A
 Frequencies --     71.0854                77.0041               125.1775
 Red. masses --      2.4438                 3.6578                 2.8580
 Frc consts  --      0.0073                 0.0128                 0.0264
 IR Inten    --      3.3850                 1.6773                 4.9727

                      4                      5                      6
                      A                      A                      A
 Frequencies --    138.5678               197.0829               231.2046
 Red. masses --      2.8389                 1.3539                 2.8060
 Frc consts  --      0.0321                 0.0310                 0.0884
 IR Inten    --      2.2787                 1.6129                 1.1583

                      7                      8                      9
                      A                      A                      A
 Frequencies --    294.4253               387.4292               453.9194
 Red. masses --      3.1810                 3.3059                 2.5041
 Frc consts  --      0.1625                 0.2924                 0.3040
 IR Inten    --      2.2208                 0.4877                 3.4555

                     10                     11                     12
                      A                      A                      A
 Frequencies --    510.3862               553.3580               616.4539
 Red. masses --      2.2374                 3.0427                 3.8390
 Frc consts  --      0.3434                 0.5489                 0.8596
 IR Inten    --      2.3989                 1.2404                 0.6283

                     13                     14                     15
                      A                      A                      A
 Frequencies --    725.6912               752.5600               835.4149
 Red. masses --      4.9480                 1.2629                 2.5389
 Frc consts  --      1.5353                 0.4214                 1.0440
 IR Inten    --      2.4716                 3.5695                 6.8938

                     16                     17                     18
                      A                      A                      A
 Frequencies --    852.7267               886.7384               926.1920
 Red. masses --      2.3346                 1.7513                 2.9970
 Frc consts  --      1.0002                 0.8113                 1.5147
 IR Inten    --     26.2339                 0.7990                 2.8224

                     19                     20                     21
                      A                      A                      A
 Frequencies --    998.6222              1025.1442              1043.8888
 Red. masses --      2.4078                 2.0808                 2.6808
 Frc consts  --      1.4147                 1.2884                 1.7212
 IR Inten    --      1.0919                10.0381               134.3869

                     22                     23                     24
                      A                      A                      A
 Frequencies --   1057.2530              1067.4511              1109.7088
 Red. masses --      2.3818                 2.1235                 1.3990
 Frc consts  --      1.5686                 1.4256                 1.0151
 IR Inten    --     61.8842                 9.7708                 3.0567

                     25                     26                     27
                      A                      A                      A
 Frequencies --   1120.7609              1172.4697              1175.3291
 Red. masses --      1.5645                 1.6524                 2.1827
 Frc consts  --      1.1579                 1.3384                 1.7765
 IR Inten    --      5.1145                42.0630                26.8847

                     28                     29                     30
                      A                      A                      A
 Frequencies --   1183.8197              1209.4294              1224.1677
 Red. masses --      1.3632                 1.1561                 1.7765
 Frc consts  --      1.1256                 0.9963                 1.5686
 IR Inten    --      9.3795                 0.6300                 2.8791

                     31                     32                     33
                      A                      A                      A
 Frequencies --   1247.1965              1258.7305              1327.7826
 Red. masses --      1.9308                 1.8638                 1.8050
 Frc consts  --      1.7695                 1.7399                 1.8749
 IR Inten    --     48.6943                17.9361                11.9396

                     34                     35                     36
                      A                      A                      A
 Frequencies --   1399.0560              1439.1217              1457.5487
 Red. masses --      1.5658                 1.0966                 1.3693
 Frc consts  --      1.8057                 1.3381                 1.7140
 IR Inten    --    102.0964                 3.8217                39.9474

                     37                     38                     39
                      A                      A                      A
 Frequencies --   1485.9932              1488.9914              1494.6687
 Red. masses --      1.0480                 1.3046                 1.1012
 Frc consts  --      1.3635                 1.7042                 1.4494
 IR Inten    --      4.8011                18.1384                 0.3219

                     40                     41                     42
                      A                      A                      A
 Frequencies --   1508.1579              1876.3403              2989.7062
 Red. masses --      1.0786                12.7099                 1.0355
 Frc consts  --      1.4454                26.3643                 5.4532
 IR Inten    --      2.6934               275.9258                60.5203

                     43                     44                     45
                      A                      A                      A
 Frequencies --   3042.9892              3063.6553              3077.1722
 Red. masses --      1.1034                 1.0584                 1.0607
 Frc consts  --      6.0200                 5.8533                 5.9175
 IR Inten    --     46.0886                13.8001                22.4963

                     46                     47                     48
                      A                      A                      A
 Frequencies --   3089.5175              3113.2439              3124.1668
 Red. masses --      1.0869                 1.1059                 1.0979
 Frc consts  --      6.1123                 6.3155                 6.3138
 IR Inten    --     19.8994                 1.6840                24.9750

                     49                     50                     51
                      A                      A                      A
 Frequencies --   3126.4822              3134.3274              3222.2918
 Red. masses --      1.0534                 1.1066                 1.1178
 Frc consts  --      6.0667                 6.4053                 6.8381
 IR Inten    --      7.0663                16.5410                 2.9712

 - Thermochemistry -
 -------------------
 Temperature   298.150 Kelvin.  Pressure   1.00000 Atm.
 Atom     1 has atomic number  6 and mass  12.00000

 Molecular mass:   126.06808 amu.
 Principal axes and moments of inertia in atomic units:
                           1         2         3
     Eigenvalues --   546.666171712.100351938.10290
           X            0.99936  -0.03577  -0.00265
           Y            0.03573   0.99923  -0.01608
           Z            0.00322   0.01598   0.99987
 This molecule is an asymmetric top.
 Rotational symmetry number  1.
 Warning -- assumption of classical behavior for rotation
           may cause significant error
 Rotational temperatures (Kelvin)      0.15844     0.05059     0.04469
 Rotational constants (GHZ):           3.30136     1.05411     0.93119
 Zero-point vibrational energy     412655.4 (Joules/Mol)
                                   98.62702 (Kcal/Mol)
 Warning -- explicit consideration of  12 degrees of freedom as
           vibrations may cause significant error
 Vibrational temperatures:    102.28   110.79   180.10   199.37   283.56
          (Kelvin)            332.65   423.61   557.42   653.09   734.33
                              796.16   886.94  1044.11  1082.76  1201.97
                             1226.88  1275.82  1332.58  1436.79  1474.95
                             1501.92  1521.15  1535.82  1596.62  1612.52
                             1686.92  1691.03  1703.25  1740.10  1761.30
                             1794.44  1811.03  1910.38  2012.93  2070.57
                             2097.08  2138.01  2142.32  2150.49  2169.90
                             2699.63  4301.51  4378.18  4407.91  4427.36
                             4445.12  4479.26  4494.97  4498.30  4509.59
                             4636.15

 Zero-point correction=                           0.157172 (Hartree/Particle)
 Thermal correction to Energy=                    0.166376
 Thermal correction to Enthalpy=                  0.167320
 Thermal correction to Gibbs Free Energy=         0.122534
 Sum of electronic and zero-point Energies=           -423.009315
 Sum of electronic and thermal Energies=              -423.000111
 Sum of electronic and thermal Enthalpies=            -422.999167
 Sum of electronic and thermal Free Energies=         -423.043953

                     E (Thermal)             CV                S
                      KCal/Mol        Cal/Mol-Kelvin    Cal/Mol-Kelvin
 Total                  104.402             33.286             94.260
 Electronic               0.000              0.000              0.000
 Translational            0.889              2.981             40.409
 Rotational               0.889              2.981             28.985
 Vibrational            102.625             27.325             24.866
 Vibration     1          0.598              1.968              4.123
 Vibration     2          0.599              1.964              3.966
 Vibration     3          0.610              1.928              3.019
 Vibration     4          0.614              1.915              2.824
 Vibration     5          0.636              1.844              2.160
 Vibration     6          0.653              1.793              1.870
 Vibration     7          0.689              1.684              1.448
 Vibration     8          0.756              1.497              1.010
 Vibration     9          0.812              1.352              0.784
 Vibration    10          0.866              1.227              0.633
 Vibration    11          0.909              1.132              0.537
 Vibration    12          0.976              0.997              0.422

 Optimization completed.
    -- Stationary point found.
 Normal termination of Gaussian 09 at Tue Jan 28 14:07:37 2020.
