 Gaussian 09, Revision D.01,
 Gaussian 09:  ES64L-G09RevD.01 24-Apr-2013

 -----------------------------
 # b3lyp 6-31G(2df,p) opt Freq
 -----------------------------

 -----
 titel
 -----
 Symbolic Z-matrix:
 Charge =  0 Multiplicity = 1

 SCF Done:  E(RB3LYP) =  -423.174986010     A.U. after   14 cycles
 Optimization completed.
    -- Stationary point found.
 Normal termination of Gaussian 09 at Tue Jan 28 03:10:47 2020.

 ----------------------------------------------------------------------
 #N Geom=AllCheck Guess=TCheck SCRF=Check GenChk RB3LYP/6-31G(2df,p) Fr
 eq
 ----------------------------------------------------------------------

 Structure from the checkpoint file:  "/scratch/puck/g09_c302d165-e1b5-42d9-96dd-125934eee6db/Gau-115034.chk"
 -----
 titel
 -----
 Charge =  0 Multiplicity = 1

                         Standard orientation:
 ---------------------------------------------------------------------
 Center     Atomic      Atomic             Coordinates (Angstroms)
 Number     Number       Type             X           Y           Z
 ---------------------------------------------------------------------
      1          6           0       -2.664142   -0.455891    0.031431
      2          6           0       -1.271332   -0.222467   -0.553898
      3          6           0       -0.801486    1.270685   -0.448185
      4          6           0        0.468886    1.133699    0.429950
      5          8           0        0.131643    0.043038    1.290519
      6          6           0       -0.153302   -0.921352    0.274524
      7          6           0        1.116774   -0.880063   -0.587025
      8          8           0        2.297617   -0.526200    0.133964
      9          6           0        1.542967    0.517514   -0.479520
     10          1           0       -3.417790    0.141962   -0.491537
     11          1           0       -2.958863   -1.507975   -0.046494
     12          1           0       -2.683124   -0.174251    1.089125
     13          1           0       -1.249103   -0.563838   -1.594841
     14          1           0       -0.594201    1.721361   -1.423156
     15          1           0       -1.553473    1.883877    0.054957
     16          1           0        0.752381    2.001214    1.024884
     17          1           0       -0.418244   -1.874079    0.733393
     18          1           0        1.237233   -1.497481   -1.471636
     19          1           0        2.020918    1.081756   -1.274224
 ---------------------------------------------------------------------

 SCF Done:  E(RB3LYP) =  -423.174986010     A.U. after    1 cycles

 The electronic state is 1-A.
 Alpha  occ. eigenvalues --  -19.15080 -19.14128 -10.23651 -10.23455 -10.23416
 Alpha  occ. eigenvalues --  -10.23393 -10.19645 -10.18854 -10.17748  -1.09013
 Alpha  occ. eigenvalues --   -1.03166  -0.80348  -0.75497  -0.71672  -0.66664
 Alpha  occ. eigenvalues --   -0.59885  -0.57628  -0.56870  -0.53746  -0.49885
 Alpha  occ. eigenvalues --   -0.46946  -0.43907  -0.42963  -0.40562  -0.39316
 Alpha  occ. eigenvalues --   -0.38932  -0.38331  -0.35113  -0.33912  -0.33523
 Alpha  occ. eigenvalues --   -0.32249  -0.29992  -0.26952  -0.25120
 Alpha virt. eigenvalues --    0.08868   0.09889   0.10178   0.11954   0.12192
 Alpha virt. eigenvalues --    0.13586   0.14049   0.14807   0.16020   0.16293
 Alpha virt. eigenvalues --    0.16832   0.18090   0.18434   0.20087   0.21334

 Mulliken charges:
               1
     1  C   -0.417305
     2  C    0.041716
     3  C   -0.245419
     4  C    0.021981
     5  O   -0.241759
     6  C    0.006783
     7  C    0.029221
     8  O   -0.241954
     9  C    0.034754
    10  H    0.114049
    11  H    0.112170
    12  H    0.131819
    13  H    0.071541
    14  H    0.099767
    15  H    0.107115
    16  H    0.086922
    17  H    0.083363
    18  H    0.102742
    19  H    0.102494
 Sum of Mulliken charges =   0.00000

 Dipole moment (field-independent basis, Debye):
    X=             -1.6840    Y=              0.6725    Z=             -2.3024  Tot=              2.9307
 Quadrupole moment (field-independent basis, Debye-Ang):
   XX=            -57.5940   YY=            -49.0177   ZZ=            -54.4276
   XY=              2.6196   XZ=             -2.3618   YZ=              0.8315

  Exact polarizability:  80.276   2.426  74.750  -1.378   0.605  63.318
 Approx polarizability: 108.200   2.454 114.680   1.768   0.357 102.095

                      1                      2                      3
                      A                      A                      A
 Frequencies --    128.0578               244.2201               265.4434
 Red. masses --      2.8437                 1.2537                 2.0414
 Frc consts  --      0.0275                 0.0441                 0.0847
 IR Inten    --      0.8582                 0.4965                 0.7741

                      4                      5                      6
                      A                      A                      A
 Frequencies --    315.1867               361.5160               438.8526
 Red. masses --      2.8298                 3.6077                 2.4281
 Frc consts  --      0.1656                 0.2778                 0.2755
 IR Inten    --      0.8887                 0.4211                 1.1103

                      7                      8                      9
                      A                      A                      A
 Frequencies --    475.1089               625.5323               664.3119
 Red. masses --      8.1476                 5.6344                 3.6027
 Frc consts  --      1.0836                 1.2990                 0.9368
 IR Inten    --      2.1142                15.3633                 6.6440

                     10                     11                     12
                      A                      A                      A
 Frequencies --    781.6431               796.8782               833.6233
 Red. masses --      3.6314                 3.8300                 2.7205
 Frc consts  --      1.3072                 1.4330                 1.1139
 IR Inten    --      2.8220                13.6281                 2.0607

                     13                     14                     15
                      A                      A                      A
 Frequencies --    858.2248               876.9833               894.1256
 Red. masses --      3.3716                 2.0754                 2.6773
 Frc consts  --      1.4632                 0.9405                 1.2611
 IR Inten    --      2.6761                28.2660                11.4909

                     16                     17                     18
                      A                      A                      A
 Frequencies --    911.6933               947.4323               953.2806
 Red. masses --      1.9225                 2.7251                 2.4979
 Frc consts  --      0.9415                 1.4412                 1.3374
 IR Inten    --      1.4519                 8.7525                20.9568

                     19                     20                     21
                      A                      A                      A
 Frequencies --    960.7179               981.4670              1018.4406
 Red. masses --      2.7400                 1.5498                 2.6279
 Frc consts  --      1.4900                 0.8796                 1.6060
 IR Inten    --     17.6148                 3.5881                14.5079

                     22                     23                     24
                      A                      A                      A
 Frequencies --   1030.4416              1064.2375              1073.7157
 Red. masses --      2.6039                 1.6083                 2.3907
 Frc consts  --      1.6290                 1.0732                 1.6239
 IR Inten    --     12.8825                16.2206                 7.9711

                     25                     26                     27
                      A                      A                      A
 Frequencies --   1110.1157              1123.2852              1201.7107
 Red. masses --      1.6655                 1.7299                 1.4355
 Frc consts  --      1.2093                 1.2860                 1.2214
 IR Inten    --      7.1760                 0.0823                 4.0867

                     28                     29                     30
                      A                      A                      A
 Frequencies --   1221.5061              1239.0703              1246.8085
 Red. masses --      1.4300                 1.3687                 1.2887
 Frc consts  --      1.2571                 1.2381                 1.1803
 IR Inten    --      2.4971                 2.6579                 2.7140

                     31                     32                     33
                      A                      A                      A
 Frequencies --   1269.9647              1293.3140              1296.1953
 Red. masses --      1.3098                 1.4832                 1.4357
 Frc consts  --      1.2446                 1.4617                 1.4212
 IR Inten    --      2.3675                 0.6826                 0.1870

                     34                     35                     36
                      A                      A                      A
 Frequencies --   1318.3570              1342.7932              1367.6049
 Red. masses --      1.4955                 1.6802                 1.5360
 Frc consts  --      1.5314                 1.7850                 1.6926
 IR Inten    --      2.4862                 7.2451                 2.8730

                     37                     38                     39
                      A                      A                      A
 Frequencies --   1404.8866              1419.4058              1490.5732
 Red. masses --      1.2897                 2.9053                 1.0942
 Frc consts  --      1.4998                 3.4487                 1.4323
 IR Inten    --      3.7931                 9.6566                 3.7544

                     40                     41                     42
                      A                      A                      A
 Frequencies --   1496.0345              1504.1352              3030.2021
 Red. masses --      1.0438                 1.0520                 1.0353
 Frc consts  --      1.3764                 1.4023                 5.6009
 IR Inten    --      4.7503                 1.5955                26.2149

                     43                     44                     45
                      A                      A                      A
 Frequencies --   3039.3751              3058.9687              3096.5497
 Red. masses --      1.0828                 1.0607                 1.1018
 Frc consts  --      5.8935                 5.8476                 6.2247
 IR Inten    --     17.9329                25.1800                21.4360

                     46                     47                     48
                      A                      A                      A
 Frequencies --   3104.2616              3109.3296              3121.0999
 Red. masses --      1.1050                 1.1023                 1.0883
 Frc consts  --      6.2738                 6.2787                 6.2464
 IR Inten    --     14.2521                29.9362                35.3136

                     49                     50                     51
                      A                      A                      A
 Frequencies --   3128.9452              3161.4924              3174.4427
 Red. masses --      1.0905                 1.0870                 1.0978
 Frc consts  --      6.2905                 6.4013                 6.5181
 IR Inten    --     24.5172                17.8478                16.7629

 - Thermochemistry -
 -------------------
 Temperature   298.150 Kelvin.  Pressure   1.00000 Atm.
 Atom     1 has atomic number  6 and mass  12.00000

 Molecular mass:   126.06808 amu.
 Principal axes and moments of inertia in atomic units:
                           1         2         3
     Eigenvalues --   498.546571199.684721309.65721
           X            0.99978   0.01879  -0.00904
           Y           -0.01885   0.99980  -0.00645
           Z            0.00892   0.00662   0.99994
 This molecule is an asymmetric top.
 Rotational symmetry number  1.
 Warning -- assumption of classical behavior for rotation
           may cause significant error
 Rotational temperatures (Kelvin)      0.17373     0.07220     0.06613
 Rotational constants (GHZ):           3.62001     1.50435     1.37803
 Zero-point vibrational energy     423906.1 (Joules/Mol)
                                  101.31598 (Kcal/Mol)
 Warning -- explicit consideration of   7 degrees of freedom as
           vibrations may cause significant error
 Vibrational temperatures:    184.25   351.38   381.91   453.48   520.14
          (Kelvin)            631.41   683.57   900.00   955.80  1124.61
                             1146.53  1199.40  1234.79  1261.78  1286.45
                             1311.72  1363.14  1371.56  1382.26  1412.11
                             1465.31  1482.57  1531.20  1544.84  1597.21
                             1616.15  1728.99  1757.47  1782.74  1793.88
                             1827.19  1860.79  1864.93  1896.82  1931.98
                             1967.68  2021.32  2042.21  2144.60  2152.46
                             2164.11  4359.78  4372.98  4401.17  4455.24
                             4466.33  4473.63  4490.56  4501.85  4548.68
                             4567.31

 Zero-point correction=                           0.161457 (Hartree/Particle)
 Thermal correction to Energy=                    0.168429
 Thermal correction to Enthalpy=                  0.169373
 Thermal correction to Gibbs Free Energy=         0.130344
 Sum of electronic and zero-point Energies=           -423.013529
 Sum of electronic and thermal Energies=              -423.006557
 Sum of electronic and thermal Enthalpies=            -423.005613
 Sum of electronic and thermal Free Energies=         -423.044642

                     E (Thermal)             CV                S
                      KCal/Mol        Cal/Mol-Kelvin    Cal/Mol-Kelvin
 Total                  105.691             28.752             82.144
 Electronic               0.000              0.000              0.000
 Translational            0.889              2.981             40.409
 Rotational               0.889              2.981             28.151
 Vibrational            103.914             22.790             13.584
 Vibration     1          0.611              1.925              2.975
 Vibration     2          0.660              1.772              1.772
 Vibration     3          0.671              1.736              1.626
 Vibration     4          0.703              1.645              1.335
 Vibration     5          0.736              1.552              1.116
 Vibration     6          0.799              1.385              0.830
 Vibration     7          0.832              1.305              0.723

 Optimization completed.
    -- Stationary point found.
 Normal termination of Gaussian 09 at Tue Jan 28 03:57:33 2020.
