 Gaussian 09, Revision D.01,
 Gaussian 09:  ES64L-G09RevD.01 24-Apr-2013

 -----------------------------
 # b3lyp 6-31G(2df,p) opt Freq
 -----------------------------

 -----
 titel
 -----
 Symbolic Z-matrix:
 Charge =  0 Multiplicity = 1

 SCF Done:  E(RB3LYP) =  -423.193444205     A.U. after   14 cycles
 Optimization completed.
    -- Stationary point found.
 Normal termination of Gaussian 09 at Mon Jan 27 17:21:21 2020.

 ----------------------------------------------------------------------
 #N Geom=AllCheck Guess=TCheck SCRF=Check GenChk RB3LYP/6-31G(2df,p) Fr
 eq
 ----------------------------------------------------------------------

 Structure from the checkpoint file:  "/scratch/puck/g09_9fb2ad83-bac4-4df2-b639-20af0270599e/Gau-72400.chk"
 -----
 titel
 -----
 Charge =  0 Multiplicity = 1

                         Standard orientation:
 ---------------------------------------------------------------------
 Center     Atomic      Atomic             Coordinates (Angstroms)
 Number     Number       Type             X           Y           Z
 ---------------------------------------------------------------------
      1          6           0       -0.572591    2.020861   -0.410780
      2          6           0        0.253366    0.875023    0.119025
      3          6           0       -0.110547    0.210737    1.420271
      4          6           0       -0.233837   -0.582524    0.132509
      5          8           0        0.803130   -1.452834   -0.225003
      6          6           0        2.040538   -0.742626   -0.129082
      7          6           0        1.710507    0.752085   -0.315454
      8          6           0       -1.553188   -0.985538   -0.393879
      9          8           0       -2.597350   -0.447138   -0.103714
     10          1           0       -0.259042    2.964899    0.049289
     11          1           0       -0.456533    2.123464   -1.495509
     12          1           0       -1.632738    1.870481   -0.194388
     13          1           0        0.662611   -0.089151    2.119897
     14          1           0       -1.053603    0.505015    1.868493
     15          1           0        2.497783   -0.924384    0.852673
     16          1           0        2.715479   -1.139346   -0.891799
     17          1           0        2.387714    1.389814    0.261447
     18          1           0        1.791563    1.045654   -1.367641
     19          1           0       -1.504960   -1.834781   -1.108383
 ---------------------------------------------------------------------

 SCF Done:  E(RB3LYP) =  -423.193444205     A.U. after    1 cycles

 The electronic state is 1-A.
 Alpha  occ. eigenvalues --  -19.15374 -19.13518 -10.26760 -10.24574 -10.23979
 Alpha  occ. eigenvalues --  -10.21580 -10.19909 -10.19581 -10.18228  -1.05923
 Alpha  occ. eigenvalues --   -1.03920  -0.86763  -0.77586  -0.71544  -0.67826
 Alpha  occ. eigenvalues --   -0.63406  -0.57506  -0.53352  -0.51619  -0.47929
 Alpha  occ. eigenvalues --   -0.46178  -0.45040  -0.43569  -0.42295  -0.41702
 Alpha  occ. eigenvalues --   -0.41181  -0.38637  -0.37984  -0.35516  -0.33832
 Alpha  occ. eigenvalues --   -0.32701  -0.29864  -0.25066  -0.23902
 Alpha virt. eigenvalues --   -0.02633   0.08132   0.10232   0.11381   0.11706
 Alpha virt. eigenvalues --    0.12697   0.14081   0.14901   0.15431   0.16894
 Alpha virt. eigenvalues --    0.17947   0.18788   0.20897   0.21759   0.22373

 Mulliken charges:
               1
     1  C   -0.486113
     2  C    0.261635
     3  C   -0.387180
     4  C    0.307651
     5  O   -0.305053
     6  C   -0.104818
     7  C   -0.287874
     8  C    0.090733
     9  O   -0.277478
    10  H    0.120259
    11  H    0.117025
    12  H    0.153503
    13  H    0.120465
    14  H    0.140017
    15  H    0.105405
    16  H    0.117222
    17  H    0.112266
    18  H    0.112198
    19  H    0.090137
 Sum of Mulliken charges =   0.00000

 Dipole moment (field-independent basis, Debye):
    X=              2.9729    Y=              1.1092    Z=              0.0308  Tot=              3.1732
 Quadrupole moment (field-independent basis, Debye-Ang):
   XX=            -57.7442   YY=            -54.1062   ZZ=            -51.1941
   XY=              0.4527   XZ=              0.1967   YZ=              0.0380

  Exact polarizability:  86.436   0.781  75.299   0.214   2.834  67.441
 Approx polarizability: 125.592   1.507 110.389  -0.848   6.630 103.278

                      1                      2                      3
                      A                      A                      A
 Frequencies --    133.1433               174.7114               197.1792
 Red. masses --      4.5822                 3.5376                 2.1456
 Frc consts  --      0.0479                 0.0636                 0.0491
 IR Inten    --      1.9421                 4.8206                 0.4324

                      4                      5                      6
                      A                      A                      A
 Frequencies --    202.1067               216.0708               288.2148
 Red. masses --      1.9374                 1.1345                 3.3389
 Frc consts  --      0.0466                 0.0312                 0.1634
 IR Inten    --      9.8197                 1.1240                 4.8212

                      7                      8                      9
                      A                      A                      A
 Frequencies --    339.2571               414.3252               418.8409
 Red. masses --      2.4189                 4.3339                 2.2692
 Frc consts  --      0.1640                 0.4383                 0.2345
 IR Inten    --      0.6481                 0.7043                 2.5606

                     10                     11                     12
                      A                      A                      A
 Frequencies --    512.2674               597.2409               668.7295
 Red. masses --      3.3109                 3.7431                 2.9713
 Frc consts  --      0.5119                 0.7866                 0.7829
 IR Inten    --      3.3251                 2.0328                 6.0822

                     13                     14                     15
                      A                      A                      A
 Frequencies --    704.7936               735.7122               816.9115
 Red. masses --      4.6013                 3.8975                 2.3091
 Frc consts  --      1.3466                 1.2430                 0.9079
 IR Inten    --     10.0955                17.7547                 7.9099

                     16                     17                     18
                      A                      A                      A
 Frequencies --    887.0454               918.0037               943.3601
 Red. masses --      2.2189                 1.3666                 1.6876
 Frc consts  --      1.0287                 0.6785                 0.8849
 IR Inten    --      1.2081                20.6792                28.6840

                     19                     20                     21
                      A                      A                      A
 Frequencies --    955.2562               993.9462              1037.1685
 Red. masses --      2.2131                 1.6126                 2.2154
 Frc consts  --      1.1898                 0.9386                 1.4041
 IR Inten    --      7.0711                11.3214                28.7756

                     22                     23                     24
                      A                      A                      A
 Frequencies --   1046.5285              1066.7825              1071.8269
 Red. masses --      1.6737                 1.5188                 2.2413
 Frc consts  --      1.0800                 1.0184                 1.5170
 IR Inten    --      1.3258                 5.8684                21.4017

                     25                     26                     27
                      A                      A                      A
 Frequencies --   1119.4258              1157.6387              1221.0755
 Red. masses --      2.0175                 3.0900                 1.3300
 Frc consts  --      1.4895                 2.4398                 1.1684
 IR Inten    --      2.0986                91.3272                 8.0725

                     28                     29                     30
                      A                      A                      A
 Frequencies --   1231.6685              1252.2290              1268.0381
 Red. masses --      2.0625                 1.8324                 1.5637
 Frc consts  --      1.8435                 1.6930                 1.4814
 IR Inten    --     55.5968                 4.4067                 0.0795

                     31                     32                     33
                      A                      A                      A
 Frequencies --   1338.4412              1377.7703              1386.3262
 Red. masses --      2.2421                 2.0214                 1.2988
 Frc consts  --      2.3664                 2.2608                 1.4707
 IR Inten    --      8.7763                26.6355                 1.4394

                     34                     35                     36
                      A                      A                      A
 Frequencies --   1419.0823              1422.0213              1469.2428
 Red. masses --      1.3580                 1.4603                 1.2735
 Frc consts  --      1.6112                 1.7399                 1.6197
 IR Inten    --      1.0952                19.3594                20.7697

                     37                     38                     39
                      A                      A                      A
 Frequencies --   1488.9090              1496.3994              1502.1116
 Red. masses --      1.0874                 1.0497                 1.0969
 Frc consts  --      1.4203                 1.3849                 1.4583
 IR Inten    --      2.9309                 2.0837                 2.4766

                     40                     41                     42
                      A                      A                      A
 Frequencies --   1529.1172              1801.2679              2910.9116
 Red. masses --      1.0950                 9.9076                 1.0840
 Frc consts  --      1.5085                18.9398                 5.4115
 IR Inten    --      1.1393               146.4574               101.5714

                     43                     44                     45
                      A                      A                      A
 Frequencies --   3012.3798              3028.5147              3044.2815
 Red. masses --      1.0703                 1.0377                 1.0598
 Frc consts  --      5.7224                 5.6077                 5.7869
 IR Inten    --     47.5354                24.6216                32.2943

                     46                     47                     48
                      A                      A                      A
 Frequencies --   3083.6179              3086.7618              3097.1393
 Red. masses --      1.0986                 1.1002                 1.1012
 Frc consts  --      6.1547                 6.1765                 6.2236
 IR Inten    --     18.1085                21.3067                38.6629

                     49                     50                     51
                      A                      A                      A
 Frequencies --   3125.2360              3131.5431              3224.8180
 Red. masses --      1.0976                 1.0552                 1.1174
 Frc consts  --      6.3161                 6.0966                 6.8463
 IR Inten    --      4.8061                 8.3013                 2.1996

 - Thermochemistry -
 -------------------
 Temperature   298.150 Kelvin.  Pressure   1.00000 Atm.
 Atom     1 has atomic number  6 and mass  12.00000

 Molecular mass:   126.06808 amu.
 Principal axes and moments of inertia in atomic units:
                           1         2         3
     Eigenvalues --   700.692981117.782631490.66380
           X            0.99976  -0.02204   0.00006
           Y            0.02204   0.99966  -0.01365
           Z            0.00024   0.01365   0.99991
 This molecule is an asymmetric top.
 Rotational symmetry number  1.
 Warning -- assumption of classical behavior for rotation
           may cause significant error
 Rotational temperatures (Kelvin)      0.12361     0.07749     0.05810
 Rotational constants (GHZ):           2.57565     1.61457     1.21070
 Zero-point vibrational energy     416093.4 (Joules/Mol)
                                   99.44872 (Kcal/Mol)
 Warning -- explicit consideration of  11 degrees of freedom as
           vibrations may cause significant error
 Vibrational temperatures:    191.56   251.37   283.70   290.79   310.88
          (Kelvin)            414.68   488.11   596.12   602.62   737.04
                              859.30   962.15  1014.04  1058.52  1175.35
                             1276.26  1320.80  1357.28  1374.40  1430.07
                             1492.25  1505.72  1534.86  1542.12  1610.60
                             1665.58  1756.85  1772.09  1801.68  1824.42
                             1925.72  1982.30  1994.61  2041.74  2045.97
                             2113.91  2142.21  2152.98  2161.20  2200.06
                             2591.62  4188.15  4334.14  4357.35  4380.04
                             4436.63  4441.16  4456.09  4496.51  4505.59
                             4639.79

 Zero-point correction=                           0.158482 (Hartree/Particle)
 Thermal correction to Energy=                    0.166947
 Thermal correction to Enthalpy=                  0.167891
 Thermal correction to Gibbs Free Energy=         0.125839
 Sum of electronic and zero-point Energies=           -423.034963
 Sum of electronic and thermal Energies=              -423.026497
 Sum of electronic and thermal Enthalpies=            -423.025553
 Sum of electronic and thermal Free Energies=         -423.067605

                     E (Thermal)             CV                S
                      KCal/Mol        Cal/Mol-Kelvin    Cal/Mol-Kelvin
 Total                  104.761             32.473             88.507
 Electronic               0.000              0.000              0.000
 Translational            0.889              2.981             40.409
 Rotational               0.889              2.981             28.548
 Vibrational            102.984             26.511             19.551
 Vibration     1          0.613              1.920              2.900
 Vibration     2          0.627              1.874              2.384
 Vibration     3          0.637              1.844              2.159
 Vibration     4          0.639              1.837              2.114
 Vibration     5          0.645              1.817              1.992
 Vibration     6          0.685              1.696              1.484
 Vibration     7          0.719              1.597              1.216
 Vibration     8          0.778              1.439              0.911
 Vibration     9          0.782              1.429              0.896
 Vibration    10          0.867              1.223              0.628
 Vibration    11          0.955              1.038              0.454

 Normal termination of Gaussian 09 at Mon Jan 27 18:16:39 2020.
