 Gaussian 09, Revision D.01,
 Gaussian 09:  ES64L-G09RevD.01 24-Apr-2013

 -----------------------------
 # b3lyp 6-31G(2df,p) opt Freq
 -----------------------------

 -----
 titel
 -----
 Symbolic Z-matrix:
 Charge =  0 Multiplicity = 1

 SCF Done:  E(RB3LYP) =  -423.136741374     A.U. after   13 cycles
 Optimization completed.
    -- Stationary point found.
 Normal termination of Gaussian 09 at Mon Jan 27 22:05:00 2020.

 ----------------------------------------------------------------------
 #N Geom=AllCheck Guess=TCheck SCRF=Check GenChk RB3LYP/6-31G(2df,p) Fr
 eq
 ----------------------------------------------------------------------

 Structure from the checkpoint file:  "/scratch/puck/g09_5ee07ef1-f51c-4260-9fd4-b0c334969502/Gau-62990.chk"
 -----
 titel
 -----
 Charge =  0 Multiplicity = 1

                         Standard orientation:
 ---------------------------------------------------------------------
 Center     Atomic      Atomic             Coordinates (Angstroms)
 Number     Number       Type             X           Y           Z
 ---------------------------------------------------------------------
      1          8           0        2.078508   -1.262126   -0.119290
      2          6           0        0.704759   -1.061966   -0.116809
      3          6           0        0.053405    0.133670   -0.809614
      4          6           0        0.950255    1.354464   -0.597176
      5          8           0        1.049192    1.103476    0.844893
      6          6           0        0.099582    0.025070    0.707162
      7          6           0       -1.297693    0.017384    1.269426
      8          6           0       -2.151975   -0.429228    0.041176
      9          6           0       -1.402671    0.089499   -1.231692
     10          1           0        2.450207   -0.560790    0.433870
     11          1           0        0.157116   -1.996635   -0.190760
     12          1           0        1.936252    1.355033   -1.074278
     13          1           0        0.443625    2.307377   -0.784939
     14          1           0       -1.452317   -0.630653    2.137637
     15          1           0       -1.550444    1.041151    1.567141
     16          1           0       -2.212235   -1.522501    0.014989
     17          1           0       -3.180898   -0.063702    0.099652
     18          1           0       -1.611020   -0.537857   -2.104299
     19          1           0       -1.735853    1.104416   -1.478686
 ---------------------------------------------------------------------

 SCF Done:  E(RB3LYP) =  -423.136741374     A.U. after    1 cycles

 The electronic state is 1-A.
 Alpha  occ. eigenvalues --  -19.14913 -19.14055 -10.24243 -10.24086 -10.23198
 Alpha  occ. eigenvalues --  -10.19457 -10.19384 -10.19337 -10.18534  -1.06366
 Alpha  occ. eigenvalues --   -1.01687  -0.86153  -0.76473  -0.72775  -0.67343
 Alpha  occ. eigenvalues --   -0.62513  -0.58744  -0.52124  -0.50560  -0.50169
 Alpha  occ. eigenvalues --   -0.46175  -0.44528  -0.43987  -0.42375  -0.41176
 Alpha  occ. eigenvalues --   -0.38978  -0.36227  -0.35324  -0.34942  -0.33691
 Alpha  occ. eigenvalues --   -0.32526  -0.29141  -0.23667  -0.23271
 Alpha virt. eigenvalues --    0.05064   0.08234   0.08891   0.10297   0.12639
 Alpha virt. eigenvalues --    0.13825   0.14732   0.15949   0.16123   0.16946
 Alpha virt. eigenvalues --    0.17670   0.18826   0.18979   0.21366   0.22633

 Mulliken charges:
               1
     1  O   -0.443514
     2  C    0.047436
     3  C    0.122655
     4  C   -0.163745
     5  O   -0.348163
     6  C    0.323742
     7  C   -0.305311
     8  C   -0.219352
     9  C   -0.299209
    10  H    0.297434
    11  H    0.107803
    12  H    0.114149
    13  H    0.111653
    14  H    0.107645
    15  H    0.117012
    16  H    0.112893
    17  H    0.106245
    18  H    0.106336
    19  H    0.104290
 Sum of Mulliken charges =   0.00000

 Dipole moment (field-independent basis, Debye):
    X=             -2.0102    Y=              0.6514    Z=             -0.3474  Tot=              2.1415
 Quadrupole moment (field-independent basis, Debye-Ang):
   XX=            -53.1440   YY=            -53.8120   ZZ=            -54.1739
   XY=              2.6099   XZ=             -0.0503   YZ=             -2.8362

  Exact polarizability:  81.094   1.849  71.453  -1.189  -2.438  67.572
 Approx polarizability: 110.531   0.612 109.126   0.174  -1.241 107.016

                      1                      2                      3
                      A                      A                      A
 Frequencies --    183.1915               213.5546               239.6739
 Red. masses --      2.2237                 2.4703                 3.3307
 Frc consts  --      0.0440                 0.0664                 0.1127
 IR Inten    --      0.2522                 2.0581                 3.6381

                      4                      5                      6
                      A                      A                      A
 Frequencies --    265.4059               309.5651               386.7914
 Red. masses --      3.6846                 2.4847                 2.8342
 Frc consts  --      0.1529                 0.1403                 0.2498
 IR Inten    --     11.0546                 1.5075                 7.6229

                      7                      8                      9
                      A                      A                      A
 Frequencies --    464.0653               500.8298               591.2207
 Red. masses --      1.2202                 3.5691                 2.9603
 Frc consts  --      0.1548                 0.5275                 0.6097
 IR Inten    --     66.9847                 2.1060                11.6047

                     10                     11                     12
                      A                      A                      A
 Frequencies --    617.8742               640.7933               757.6170
 Red. masses --      2.3055                 3.2674                 4.2498
 Frc consts  --      0.5186                 0.7905                 1.4372
 IR Inten    --      2.6766                 5.0352                21.9450

                     13                     14                     15
                      A                      A                      A
 Frequencies --    789.5621               824.2410               846.0397
 Red. masses --      2.7973                 4.0640                 3.2236
 Frc consts  --      1.0275                 1.6267                 1.3595
 IR Inten    --      2.2987                17.4855                 4.5641

                     16                     17                     18
                      A                      A                      A
 Frequencies --    875.5952               905.8693               944.7545
 Red. masses --      1.7721                 2.1674                 5.1272
 Frc consts  --      0.8005                 1.0479                 2.6963
 IR Inten    --      0.4791                 9.0268                25.4698

                     19                     20                     21
                      A                      A                      A
 Frequencies --    972.0003               993.3475              1023.4161
 Red. masses --      2.1922                 2.3662                 1.5912
 Frc consts  --      1.2203                 1.3756                 0.9819
 IR Inten    --      0.6510                23.6932                19.0017

                     22                     23                     24
                      A                      A                      A
 Frequencies --   1032.3255              1050.2986              1139.0402
 Red. masses --      1.5661                 2.0316                 3.1008
 Frc consts  --      0.9834                 1.3204                 2.3703
 IR Inten    --      7.2248                16.7455               106.4000

                     25                     26                     27
                      A                      A                      A
 Frequencies --   1156.2034              1189.2015              1195.3139
 Red. masses --      1.2342                 1.3300                 2.1626
 Frc consts  --      0.9721                 1.1082                 1.8205
 IR Inten    --     22.4764                 6.0076                18.0127

                     28                     29                     30
                      A                      A                      A
 Frequencies --   1222.6808              1237.6741              1249.0687
 Red. masses --      1.7222                 2.0205                 1.4379
 Frc consts  --      1.5170                 1.8236                 1.3218
 IR Inten    --      5.9743                 6.4067                 0.7818

                     31                     32                     33
                      A                      A                      A
 Frequencies --   1280.6236              1304.3029              1326.2062
 Red. masses --      1.5443                 1.2861                 1.4063
 Frc consts  --      1.4922                 1.2891                 1.4573
 IR Inten    --      8.6874                 2.8163                 9.0338

                     34                     35                     36
                      A                      A                      A
 Frequencies --   1335.5000              1347.1936              1382.5639
 Red. masses --      1.5853                 1.9444                 1.5456
 Frc consts  --      1.6659                 2.0792                 1.7407
 IR Inten    --      3.7836                 4.5739                22.5497

                     37                     38                     39
                      A                      A                      A
 Frequencies --   1471.2389              1487.1588              1489.1946
 Red. masses --      2.0722                 1.0930                 1.0826
 Frc consts  --      2.6427                 1.4242                 1.4146
 IR Inten    --     47.0837                 1.6173                 2.8043

                     40                     41                     42
                      A                      A                      A
 Frequencies --   1503.3937              1513.0663              3029.1402
 Red. masses --      1.1066                 1.1508                 1.0548
 Frc consts  --      1.4736                 1.5523                 5.7026
 IR Inten    --      1.7835                 9.4901                53.3481

                     43                     44                     45
                      A                      A                      A
 Frequencies --   3035.9563              3044.5646              3047.6906
 Red. masses --      1.0604                 1.0584                 1.0688
 Frc consts  --      5.7586                 5.7805                 5.8492
 IR Inten    --     59.6335                21.6715                14.9553

                     46                     47                     48
                      A                      A                      A
 Frequencies --   3076.0699              3082.7730              3085.5580
 Red. masses --      1.0990                 1.1116                 1.1017
 Frc consts  --      6.1268                 6.2243                 6.1796
 IR Inten    --     34.8121                27.9449                20.2117

                     49                     50                     51
                      A                      A                      A
 Frequencies --   3101.4786              3160.4088              3745.2983
 Red. masses --      1.1045                 1.0892                 1.0650
 Frc consts  --      6.2599                 6.4100                 8.8021
 IR Inten    --     39.4591                13.6986                37.5953

 - Thermochemistry -
 -------------------
 Temperature   298.150 Kelvin.  Pressure   1.00000 Atm.
 Atom     1 has atomic number  8 and mass  15.99491

 Molecular mass:   126.06808 amu.
 Principal axes and moments of inertia in atomic units:
                           1         2         3
     Eigenvalues --   653.867391145.535561209.47265
           X            0.99962   0.02478  -0.01240
           Y           -0.02671   0.98099  -0.19220
           Z            0.00740   0.19246   0.98128
 This molecule is an asymmetric top.
 Rotational symmetry number  1.
 Warning -- assumption of classical behavior for rotation
           may cause significant error
 Rotational temperatures (Kelvin)      0.13246     0.07561     0.07161
 Rotational constants (GHZ):           2.76010     1.57546     1.49217
 Zero-point vibrational energy     422680.1 (Joules/Mol)
                                  101.02297 (Kcal/Mol)
 Warning -- explicit consideration of  10 degrees of freedom as
           vibrations may cause significant error
 Vibrational temperatures:    263.57   307.26   344.84   381.86   445.39
          (Kelvin)            556.51   667.69   720.58   850.63   888.98
                              921.96  1090.04  1136.00  1185.90  1217.26
                             1259.78  1303.34  1359.29  1398.49  1429.20
                             1472.47  1485.28  1511.14  1638.82  1663.52
                             1710.99  1719.79  1759.16  1780.73  1797.13
                             1842.53  1876.60  1908.11  1921.48  1938.31
                             1989.20  2116.78  2139.69  2142.62  2163.05
                             2176.96  4358.25  4368.06  4380.44  4384.94
                             4425.77  4435.42  4439.42  4462.33  4547.12
                             5388.64

 Zero-point correction=                           0.160990 (Hartree/Particle)
 Thermal correction to Energy=                    0.168426
 Thermal correction to Enthalpy=                  0.169370
 Thermal correction to Gibbs Free Energy=         0.129612
 Sum of electronic and zero-point Energies=           -422.975751
 Sum of electronic and thermal Energies=              -422.968316
 Sum of electronic and thermal Enthalpies=            -422.967372
 Sum of electronic and thermal Free Energies=         -423.007129

                     E (Thermal)             CV                S
                      KCal/Mol        Cal/Mol-Kelvin    Cal/Mol-Kelvin
 Total                  105.689             30.393             83.676
 Electronic               0.000              0.000              0.000
 Translational            0.889              2.981             40.409
 Rotational               0.889              2.981             28.295
 Vibrational            103.911             24.431             14.972
 Vibration     1          0.631              1.863              2.296
 Vibration     2          0.644              1.820              2.013
 Vibration     3          0.657              1.780              1.805
 Vibration     4          0.671              1.736              1.626
 Vibration     5          0.699              1.655              1.365
 Vibration     6          0.755              1.498              1.012
 Vibration     7          0.822              1.330              0.754
 Vibration     8          0.856              1.248              0.656
 Vibration     9          0.949              1.050              0.465
 Vibration    10          0.978              0.994              0.420

 Optimization completed.
    -- Stationary point found.
 Normal termination of Gaussian 09 at Mon Jan 27 22:53:15 2020.
