 Gaussian 09, Revision D.01,
 Gaussian 09:  ES64L-G09RevD.01 24-Apr-2013

 -----------------------------
 # b3lyp 6-31G(2df,p) opt Freq
 -----------------------------

 -----
 titel
 -----
 Symbolic Z-matrix:
 Charge =  0 Multiplicity = 1

 SCF Done:  E(RB3LYP) =  -423.129606510     A.U. after   12 cycles
 Optimization completed.
    -- Stationary point found.
 Normal termination of Gaussian 09 at Mon Jan 27 22:05:14 2020.

 ----------------------------------------------------------------------
 #N Geom=AllCheck Guess=TCheck SCRF=Check GenChk RB3LYP/6-31G(2df,p) Fr
 eq
 ----------------------------------------------------------------------

 Structure from the checkpoint file:  "/scratch/puck/g09_17e3f07a-8c4c-436f-a110-2951a3d55cdf/Gau-111378.chk"
 -----
 titel
 -----
 Charge =  0 Multiplicity = 1

                         Standard orientation:
 ---------------------------------------------------------------------
 Center     Atomic      Atomic             Coordinates (Angstroms)
 Number     Number       Type             X           Y           Z
 ---------------------------------------------------------------------
      1          6           0       -2.171745   -0.891472   -0.085991
      2          6           0       -1.050269   -0.128714   -0.781570
      3          6           0        0.228711   -0.949244   -0.971861
      4          6           0        1.428665    0.043910   -0.945555
      5          6           0        0.838348    1.437007   -0.722694
      6          6           0       -0.200343    0.751595    0.187285
      7          8           0       -0.768560    1.516581    1.188804
      8          6           0        0.823841   -0.500641    0.323276
      9          8           0        1.298035   -1.249888    1.369033
     10          1           0       -2.973225   -0.213746    0.232045
     11          1           0       -2.620995   -1.633946   -0.753177
     12          1           0       -1.798005   -1.426589    0.795402
     13          1           0       -1.434866    0.401011   -1.662980
     14          1           0        0.332193   -1.920037   -1.439614
     15          1           0        2.366358   -0.222850   -1.415031
     16          1           0        1.513723    2.075453   -0.146355
     17          1           0        0.446769    1.989662   -1.583799
     18          1           0       -1.414984    0.975886    1.656389
     19          1           0        1.963980   -0.733039    1.837082
 ---------------------------------------------------------------------

 SCF Done:  E(RB3LYP) =  -423.129606510     A.U. after    1 cycles

 The electronic state is 1-A.
 Alpha  occ. eigenvalues --  -19.15613 -19.14644 -10.23485 -10.22918 -10.18666
 Alpha  occ. eigenvalues --  -10.18515 -10.18471 -10.17850 -10.17765  -1.04192
 Alpha  occ. eigenvalues --   -1.02930  -0.91432  -0.75793  -0.71063  -0.65286
 Alpha  occ. eigenvalues --   -0.60943  -0.56070  -0.55164  -0.53076  -0.47168
 Alpha  occ. eigenvalues --   -0.46237  -0.43539  -0.42617  -0.40513  -0.39285
 Alpha  occ. eigenvalues --   -0.37976  -0.36707  -0.35887  -0.35151  -0.33071
 Alpha  occ. eigenvalues --   -0.29659  -0.27662  -0.24233  -0.22308
 Alpha virt. eigenvalues --    0.06378   0.08280   0.11818   0.12258   0.12932
 Alpha virt. eigenvalues --    0.13647   0.14118   0.16394   0.16821   0.17440
 Alpha virt. eigenvalues --    0.18306   0.19589   0.20269   0.21128   0.22610

 Mulliken charges:
               1
     1  C   -0.439114
     2  C   -0.037371
     3  C   -0.110407
     4  C   -0.168554
     5  C   -0.272707
     6  C    0.314498
     7  O   -0.480051
     8  C    0.285883
     9  O   -0.456127
    10  H    0.111728
    11  H    0.120423
    12  H    0.125460
    13  H    0.061087
    14  H    0.088169
    15  H    0.088828
    16  H    0.098812
    17  H    0.091521
    18  H    0.286248
    19  H    0.291675
 Sum of Mulliken charges =   0.00000

 Dipole moment (field-independent basis, Debye):
    X=              0.1822    Y=             -0.2670    Z=              0.1046  Tot=              0.3397
 Quadrupole moment (field-independent basis, Debye-Ang):
   XX=            -47.6579   YY=            -58.2366   ZZ=            -51.2401
   XY=              1.6618   XZ=              0.5356   YZ=              0.6774

  Exact polarizability:  80.502   3.039  72.686  -0.646  -0.048  70.847
 Approx polarizability: 110.849   2.026 108.913   0.340   0.090 110.887

                      1                      2                      3
                      A                      A                      A
 Frequencies --    151.2449               181.4330               229.5338
 Red. masses --      3.4227                 4.0176                 3.0095
 Frc consts  --      0.0461                 0.0779                 0.0934
 IR Inten    --      1.5622                 1.1200                 0.2179

                      4                      5                      6
                      A                      A                      A
 Frequencies --    245.9499               288.7122               299.0710
 Red. masses --      1.0404                 1.1740                 1.9803
 Frc consts  --      0.0371                 0.0577                 0.1044
 IR Inten    --      2.3701               107.0711                26.7498

                      7                      8                      9
                      A                      A                      A
 Frequencies --    362.5907               405.6100               449.8052
 Red. masses --      1.3512                 2.8409                 2.9031
 Frc consts  --      0.1047                 0.2754                 0.3461
 IR Inten    --     60.2862                 4.3542                15.4195

                     10                     11                     12
                      A                      A                      A
 Frequencies --    489.7807               516.2639               614.4295
 Red. masses --      3.5039                 2.9325                 4.6075
 Frc consts  --      0.4952                 0.4605                 1.0248
 IR Inten    --      1.3966                 1.2810                14.6287

                     13                     14                     15
                      A                      A                      A
 Frequencies --    665.0843               723.4672               777.6145
 Red. masses --      3.9226                 3.5660                 3.5360
 Frc consts  --      1.0223                 1.0997                 1.2598
 IR Inten    --     15.5055                 1.6804                 5.2743

                     16                     17                     18
                      A                      A                      A
 Frequencies --    834.0409               844.7567               914.3207
 Red. masses --      2.4121                 1.8862                 1.9814
 Frc consts  --      0.9886                 0.7930                 0.9759
 IR Inten    --      5.1218                 0.2205                 7.3206

                     19                     20                     21
                      A                      A                      A
 Frequencies --    931.4743               961.6405               981.8260
 Red. masses --      1.4764                 2.4106                 1.5543
 Frc consts  --      0.7548                 1.3134                 0.8828
 IR Inten    --     12.2424                14.4697                 5.9119

                     22                     23                     24
                      A                      A                      A
 Frequencies --   1005.0641              1034.6240              1072.0527
 Red. masses --      2.0945                 1.5416                 1.5165
 Frc consts  --      1.2465                 0.9722                 1.0269
 IR Inten    --      4.0010                 2.7852                 5.2382

                     25                     26                     27
                      A                      A                      A
 Frequencies --   1093.2401              1101.7703              1114.2200
 Red. masses --      1.8346                 2.0665                 1.7878
 Frc consts  --      1.2919                 1.4780                 1.3077
 IR Inten    --      5.7979                 2.0405                14.9945

                     28                     29                     30
                      A                      A                      A
 Frequencies --   1139.9739              1211.5725              1235.5462
 Red. masses --      2.0995                 2.1780                 1.8851
 Frc consts  --      1.6075                 1.8837                 1.6956
 IR Inten    --      4.5426                18.0450                64.7822

                     31                     32                     33
                      A                      A                      A
 Frequencies --   1242.4343              1261.3769              1307.4421
 Red. masses --      1.4694                 1.8425                 1.4778
 Frc consts  --      1.3364                 1.7272                 1.4883
 IR Inten    --     14.7197                 3.9967                78.7428

                     34                     35                     36
                      A                      A                      A
 Frequencies --   1321.3284              1364.8571              1387.8606
 Red. masses --      1.9643                 2.2020                 1.7036
 Frc consts  --      2.0206                 2.4169                 1.9334
 IR Inten    --    163.0491                26.9358                13.7573

                     37                     38                     39
                      A                      A                      A
 Frequencies --   1410.5154              1482.6451              1500.1417
 Red. masses --      1.3362                 3.4349                 1.0971
 Frc consts  --      1.5663                 4.4487                 1.4547
 IR Inten    --      0.7747                44.1393                 3.3736

                     40                     41                     42
                      A                      A                      A
 Frequencies --   1502.7987              1508.0167              3016.9570
 Red. masses --      1.0847                 1.1608                 1.0807
 Frc consts  --      1.4433                 1.5554                 5.7953
 IR Inten    --      2.0546                13.9829                28.0705

                     43                     44                     45
                      A                      A                      A
 Frequencies --   3020.0614              3040.2890              3084.1023
 Red. masses --      1.0384                 1.0594                 1.1009
 Frc consts  --      5.5803                 5.7696                 6.1694
 IR Inten    --     26.9655                59.1251                30.6492

                     46                     47                     48
                      A                      A                      A
 Frequencies --   3096.5922              3100.6153              3196.1611
 Red. masses --      1.0997                 1.1058                 1.0922
 Frc consts  --      6.2127                 6.2633                 6.5738
 IR Inten    --     19.1801                31.8483                 4.8642

                     49                     50                     51
                      A                      A                      A
 Frequencies --   3206.3494              3784.3346              3801.2902
 Red. masses --      1.0945                 1.0660                 1.0654
 Frc consts  --      6.6296                 8.9947                 9.0705
 IR Inten    --     17.5130                23.9936                20.6687

 - Thermochemistry -
 -------------------
 Temperature   298.150 Kelvin.  Pressure   1.00000 Atm.
 Atom     1 has atomic number  6 and mass  12.00000

 Molecular mass:   126.06808 amu.
 Principal axes and moments of inertia in atomic units:
                           1         2         3
     Eigenvalues --   861.724191040.692261139.69039
           X            0.99022   0.13836  -0.01778
           Y           -0.13883   0.98989  -0.02891
           Z            0.01360   0.03110   0.99942
 This molecule is an asymmetric top.
 Rotational symmetry number  1.
 Warning -- assumption of classical behavior for rotation
           may cause significant error
 Rotational temperatures (Kelvin)      0.10051     0.08323     0.07600
 Rotational constants (GHZ):           2.09434     1.73417     1.58354
 Zero-point vibrational energy     415779.4 (Joules/Mol)
                                   99.37365 (Kcal/Mol)
 Warning -- explicit consideration of  12 degrees of freedom as
           vibrations may cause significant error
 Vibrational temperatures:    217.61   261.04   330.25   353.87   415.39
          (Kelvin)            430.30   521.69   583.58   647.17   704.68
                              742.79   884.03   956.91  1040.91  1118.81
                             1200.00  1215.41  1315.50  1340.18  1383.58
                             1412.63  1446.06  1488.59  1542.44  1572.93
                             1585.20  1603.11  1640.17  1743.18  1777.67
                             1787.58  1814.84  1881.12  1901.09  1963.72
                             1996.82  2029.41  2133.19  2158.37  2162.19
                             2169.70  4340.72  4345.19  4374.29  4437.33
                             4455.30  4461.09  4598.56  4613.22  5444.81
                             5469.20

 Zero-point correction=                           0.158362 (Hartree/Particle)
 Thermal correction to Energy=                    0.166748
 Thermal correction to Enthalpy=                  0.167693
 Thermal correction to Gibbs Free Energy=         0.126179
 Sum of electronic and zero-point Energies=           -422.971245
 Sum of electronic and thermal Energies=              -422.962858
 Sum of electronic and thermal Enthalpies=            -422.961914
 Sum of electronic and thermal Free Energies=         -423.003427

                     E (Thermal)             CV                S
                      KCal/Mol        Cal/Mol-Kelvin    Cal/Mol-Kelvin
 Total                  104.636             33.566             87.372
 Electronic               0.000              0.000              0.000
 Translational            0.889              2.981             40.409
 Rotational               0.889              2.981             28.415
 Vibrational            102.859             27.604             18.548
 Vibration     1          0.619              1.901              2.657
 Vibration     2          0.630              1.865              2.314
 Vibration     3          0.652              1.796              1.883
 Vibration     4          0.660              1.769              1.759
 Vibration     5          0.685              1.695              1.482
 Vibration     6          0.692              1.675              1.422
 Vibration     7          0.736              1.549              1.111
 Vibration     8          0.771              1.458              0.942
 Vibration     9          0.809              1.361              0.796
 Vibration    10          0.846              1.273              0.684
 Vibration    11          0.871              1.214              0.619
 Vibration    12          0.974              1.001              0.425

 Optimization completed.
    -- Stationary point found.
 Normal termination of Gaussian 09 at Mon Jan 27 23:02:54 2020.
