 Gaussian 09, Revision D.01,
 Gaussian 09:  ES64L-G09RevD.01 24-Apr-2013

 -----------------------------
 # b3lyp 6-31G(2df,p) opt Freq
 -----------------------------

 -----
 titel
 -----
 Symbolic Z-matrix:
 Charge =  0 Multiplicity = 1

 SCF Done:  E(RB3LYP) =  -423.163486105     A.U. after   14 cycles
 Optimization completed.
    -- Stationary point found.
 Normal termination of Gaussian 09 at Tue Jan 28 14:08:52 2020.

 ----------------------------------------------------------------------
 #N Geom=AllCheck Guess=TCheck SCRF=Check GenChk RB3LYP/6-31G(2df,p) Fr
 eq
 ----------------------------------------------------------------------

 Structure from the checkpoint file:  "/scratch/puck/g09_752e5388-7798-45b0-b17d-ccfee099a26b/Gau-91401.chk"
 -----
 titel
 -----
 Charge =  0 Multiplicity = 1

                         Standard orientation:
 ---------------------------------------------------------------------
 Center     Atomic      Atomic             Coordinates (Angstroms)
 Number     Number       Type             X           Y           Z
 ---------------------------------------------------------------------
      1          6           0       -2.976187   -0.784037   -0.057300
      2          6           0       -1.983798    0.356323    0.185238
      3          6           0       -0.582590    0.067133   -0.366380
      4          6           0        0.309303   -0.918270    0.451616
      5          6           0        1.428762   -1.581486   -0.361434
      6          8           0        2.286062   -0.420137   -0.219870
      7          6           0        1.364996    0.209855    0.700920
      8          6           0        0.438243    1.189336   -0.053887
      9          8           0        0.448128    2.368209   -0.251508
     10          1           0       -3.959589   -0.541680    0.356983
     11          1           0       -3.101551   -0.976070   -1.128313
     12          1           0       -2.640683   -1.716418    0.409380
     13          1           0       -2.346815    1.278773   -0.281794
     14          1           0       -1.915112    0.567455    1.260552
     15          1           0       -0.648407   -0.177425   -1.433588
     16          1           0       -0.173952   -1.482071    1.247078
     17          1           0        1.883848   -2.460495    0.111494
     18          1           0        1.207177   -1.809639   -1.410832
     19          1           0        1.829195    0.499874    1.647420
 ---------------------------------------------------------------------

 SCF Done:  E(RB3LYP) =  -423.163486105     A.U. after    1 cycles

 The electronic state is 1-A.
 Alpha  occ. eigenvalues --  -19.15029 -19.14462 -10.26952 -10.24359 -10.24252
 Alpha  occ. eigenvalues --  -10.20638 -10.20221 -10.19774 -10.18559  -1.05958
 Alpha  occ. eigenvalues --   -1.04475  -0.84121  -0.76760  -0.71813  -0.67295
 Alpha  occ. eigenvalues --   -0.60745  -0.58566  -0.52968  -0.50920  -0.48499
 Alpha  occ. eigenvalues --   -0.47011  -0.44571  -0.44179  -0.43033  -0.41655
 Alpha  occ. eigenvalues --   -0.38888  -0.37910  -0.36559  -0.35604  -0.33928
 Alpha  occ. eigenvalues --   -0.32560  -0.30306  -0.28314  -0.23261
 Alpha virt. eigenvalues --   -0.03551   0.07530   0.09336   0.09903   0.10681
 Alpha virt. eigenvalues --    0.11811   0.13311   0.14380   0.15483   0.15875
 Alpha virt. eigenvalues --    0.17091   0.17784   0.18461   0.19666   0.20786

 Mulliken charges:
               1
     1  C   -0.388493
     2  C   -0.192953
     3  C   -0.123840
     4  C   -0.094725
     5  C   -0.085481
     6  O   -0.287682
     7  C   -0.016085
     8  C    0.408615
     9  O   -0.297269
    10  H    0.120752
    11  H    0.120092
    12  H    0.117498
    13  H    0.122105
    14  H    0.100671
    15  H    0.099583
    16  H    0.088718
    17  H    0.107719
    18  H    0.108532
    19  H    0.092244
 Sum of Mulliken charges =   0.00000

 Dipole moment (field-independent basis, Debye):
    X=             -1.9434    Y=             -2.9859    Z=              0.9330  Tot=              3.6828
 Quadrupole moment (field-independent basis, Debye-Ang):
   XX=            -56.4371   YY=            -58.4912   ZZ=            -50.8934
   XY=             -2.0254   XZ=              1.6983   YZ=              1.4690

  Exact polarizability:  83.522  -1.227  80.647   2.554   1.424  63.844
 Approx polarizability: 108.755  -0.212 123.141   2.041   0.458  99.147

                      1                      2                      3
                      A                      A                      A
 Frequencies --     66.9049               102.1521               134.9604
 Red. masses --      3.9498                 2.3076                 3.8762
 Frc consts  --      0.0104                 0.0142                 0.0416
 IR Inten    --      1.4916                 1.0190                 2.7325

                      4                      5                      6
                      A                      A                      A
 Frequencies --    196.1745               218.0624               279.3838
 Red. masses --      1.8085                 3.3009                 1.5676
 Frc consts  --      0.0410                 0.0925                 0.0721
 IR Inten    --      1.6411                 4.0304                 0.1088

                      7                      8                      9
                      A                      A                      A
 Frequencies --    292.6137               405.0001               451.4300
 Red. masses --      3.5580                 2.6947                 3.9699
 Frc consts  --      0.1795                 0.2604                 0.4767
 IR Inten    --      1.9891                 0.2869                 3.1105

                     10                     11                     12
                      A                      A                      A
 Frequencies --    629.7235               725.5109               753.9107
 Red. masses --      4.7430                 4.5234                 1.5056
 Frc consts  --      1.1082                 1.4028                 0.5042
 IR Inten    --      1.4309                 7.9022                 1.9413

                     13                     14                     15
                      A                      A                      A
 Frequencies --    791.9733               823.6011               843.5976
 Red. masses --      2.3243                 1.6640                 2.6616
 Frc consts  --      0.8589                 0.6650                 1.1160
 IR Inten    --      9.5094                 2.2922                 3.0503

                     16                     17                     18
                      A                      A                      A
 Frequencies --    899.7424               950.2065               962.2674
 Red. masses --      2.7691                 2.9584                 2.1490
 Frc consts  --      1.3208                 1.5738                 1.1724
 IR Inten    --      1.3111                23.5018                22.5739

                     19                     20                     21
                      A                      A                      A
 Frequencies --   1006.8027              1011.4032              1040.7960
 Red. masses --      3.7159                 1.6046                 2.5888
 Frc consts  --      2.2192                 0.9671                 1.6523
 IR Inten    --     34.5443                18.2030                 5.5767

                     22                     23                     24
                      A                      A                      A
 Frequencies --   1059.7420              1078.4654              1113.8838
 Red. masses --      2.5024                 2.8527                 1.9479
 Frc consts  --      1.6558                 1.9549                 1.4240
 IR Inten    --     10.2030                42.7125                 4.4540

                     25                     26                     27
                      A                      A                      A
 Frequencies --   1140.0257              1160.3610              1171.8974
 Red. masses --      1.9828                 1.4029                 1.4687
 Frc consts  --      1.5183                 1.1129                 1.1884
 IR Inten    --      0.7616                 5.0829                 1.8793

                     28                     29                     30
                      A                      A                      A
 Frequencies --   1210.7916              1222.5634              1253.5714
 Red. masses --      1.6082                 1.7657                 1.3767
 Frc consts  --      1.3891                 1.5549                 1.2747
 IR Inten    --      1.3730                 4.9570                 0.1877

                     31                     32                     33
                      A                      A                      A
 Frequencies --   1267.3771              1301.4355              1331.8842
 Red. masses --      1.3685                 1.3932                 1.4573
 Frc consts  --      1.2951                 1.3903                 1.5231
 IR Inten    --      0.7184                 2.4052                 2.5303

                     34                     35                     36
                      A                      A                      A
 Frequencies --   1353.7069              1372.3592              1413.6277
 Red. masses --      1.3977                 1.4337                 1.2324
 Frc consts  --      1.5091                 1.5909                 1.4510
 IR Inten    --      0.6543                13.6254                 1.5086

                     37                     38                     39
                      A                      A                      A
 Frequencies --   1486.1459              1498.9918              1505.4353
 Red. masses --      1.0638                 1.0415                 1.0640
 Frc consts  --      1.3843                 1.3789                 1.4208
 IR Inten    --      1.0585                 5.5226                 3.0781

                     40                     41                     42
                      A                      A                      A
 Frequencies --   1522.3745              1889.5537              3016.3955
 Red. masses --      1.0971                12.6982                 1.0555
 Frc consts  --      1.4981                26.7123                 5.6580
 IR Inten    --      0.8751               232.3601                74.1768

                     43                     44                     45
                      A                      A                      A
 Frequencies --   3021.6291              3032.6218              3038.5294
 Red. masses --      1.0662                 1.0381                 1.0780
 Frc consts  --      5.7356                 5.6248                 5.8640
 IR Inten    --      8.6144                19.7204                22.1559

                     46                     47                     48
                      A                      A                      A
 Frequencies --   3063.4380              3066.7038              3078.4782
 Red. masses --      1.1105                 1.0979                 1.0891
 Frc consts  --      6.1404                 6.0834                 6.0810
 IR Inten    --     33.6927                 8.8938                37.6080

                     49                     50                     51
                      A                      A                      A
 Frequencies --   3101.6322              3106.2468              3134.7258
 Red. masses --      1.1019                 1.1013                 1.0902
 Frc consts  --      6.2456                 6.2607                 6.3119
 IR Inten    --     38.3651                31.1859                21.7731

 - Thermochemistry -
 -------------------
 Temperature   298.150 Kelvin.  Pressure   1.00000 Atm.
 Atom     1 has atomic number  6 and mass  12.00000

 Molecular mass:   126.06808 amu.
 Principal axes and moments of inertia in atomic units:
                           1         2         3
     Eigenvalues --   722.378761321.304361862.20867
           X            0.99998   0.00351   0.00444
           Y           -0.00357   0.99991   0.01328
           Z           -0.00440  -0.01330   0.99990
 This molecule is an asymmetric top.
 Rotational symmetry number  1.
 Warning -- assumption of classical behavior for rotation
           may cause significant error
 Rotational temperatures (Kelvin)      0.11990     0.06555     0.04651
 Rotational constants (GHZ):           2.49833     1.36588     0.96914
 Zero-point vibrational energy     416305.3 (Joules/Mol)
                                   99.49935 (Kcal/Mol)
 Warning -- explicit consideration of   9 degrees of freedom as
           vibrations may cause significant error
 Vibrational temperatures:     96.26   146.97   194.18   282.25   313.74
          (Kelvin)            401.97   421.01   582.70   649.51   906.03
                             1043.85  1084.71  1139.47  1184.98  1213.75
                             1294.53  1367.13  1384.49  1448.56  1455.18
                             1497.47  1524.73  1551.67  1602.63  1640.24
                             1669.50  1686.10  1742.06  1758.99  1803.61
                             1823.47  1872.47  1916.28  1947.68  1974.52
                             2033.89  2138.23  2156.71  2165.98  2190.35
                             2718.64  4339.91  4347.44  4363.26  4371.76
                             4407.60  4412.30  4429.24  4462.55  4469.19
                             4510.17

 Zero-point correction=                           0.158562 (Hartree/Particle)
 Thermal correction to Energy=                    0.167204
 Thermal correction to Enthalpy=                  0.168148
 Thermal correction to Gibbs Free Energy=         0.124648
 Sum of electronic and zero-point Energies=           -423.004924
 Sum of electronic and thermal Energies=              -422.996282
 Sum of electronic and thermal Enthalpies=            -422.995338
 Sum of electronic and thermal Free Energies=         -423.038838

                     E (Thermal)             CV                S
                      KCal/Mol        Cal/Mol-Kelvin    Cal/Mol-Kelvin
 Total                  104.922             31.687             91.555
 Electronic               0.000              0.000              0.000
 Translational            0.889              2.981             40.409
 Rotational               0.889              2.981             28.965
 Vibrational            103.145             25.725             22.181
 Vibration     1          0.598              1.970              4.242
 Vibration     2          0.604              1.947              3.413
 Vibration     3          0.613              1.918              2.874
 Vibration     4          0.636              1.845              2.169
 Vibration     5          0.646              1.814              1.975
 Vibration     6          0.680              1.712              1.537
 Vibration     7          0.688              1.687              1.459
 Vibration     8          0.770              1.459              0.944
 Vibration     9          0.810              1.358              0.791

 Normal termination of Gaussian 09 at Tue Jan 28 14:53:40 2020.
