 Gaussian 09, Revision D.01,
 Gaussian 09:  ES64L-G09RevD.01 24-Apr-2013

 -----------------------------
 # b3lyp 6-31G(2df,p) opt Freq
 -----------------------------

 -----
 titel
 -----
 Symbolic Z-matrix:
 Charge =  0 Multiplicity = 1

 SCF Done:  E(RB3LYP) =  -423.118845013     A.U. after   14 cycles
 Optimization completed.
    -- Stationary point found.
 Normal termination of Gaussian 09 at Mon Jan 27 23:07:25 2020.

 ----------------------------------------------------------------------
 #N Geom=AllCheck Guess=TCheck SCRF=Check GenChk RB3LYP/6-31G(2df,p) Fr
 eq
 ----------------------------------------------------------------------

 Structure from the checkpoint file:  "/scratch/puck/g09_0d34b71c-f1b7-46cc-82d8-3245707bae64/Gau-18435.chk"
 -----
 titel
 -----
 Charge =  0 Multiplicity = 1

                         Standard orientation:
 ---------------------------------------------------------------------
 Center     Atomic      Atomic             Coordinates (Angstroms)
 Number     Number       Type             X           Y           Z
 ---------------------------------------------------------------------
      1          6           0       -1.330898    1.887499    0.142624
      2          6           0       -0.863012    0.674387   -0.646818
      3          6           0       -1.678923   -0.623876   -0.504481
      4          8           0       -1.554882   -1.056578    0.856842
      5          6           0       -0.497455   -1.375813   -0.059453
      6          6           0        0.393083   -0.135378   -0.146167
      7          6           0        1.702113   -0.169524   -0.956964
      8          8           0        2.488804    0.101673    0.218058
      9          6           0        1.302505    0.261791    1.028582
     10          1           0       -1.518282    1.615130    1.184990
     11          1           0       -0.583946    2.688007    0.124393
     12          1           0       -2.259007    2.291063   -0.276403
     13          1           0       -0.725537    0.922401   -1.705915
     14          1           0       -2.561543   -0.945152   -1.045731
     15          1           0       -0.228002   -2.420891   -0.168123
     16          1           0        1.964096   -1.130436   -1.419614
     17          1           0        1.797989    0.624134   -1.711161
     18          1           0        1.290994   -0.413937    1.891775
     19          1           0        1.187391    1.294404    1.382658
 ---------------------------------------------------------------------

 SCF Done:  E(RB3LYP) =  -423.118845013     A.U. after    1 cycles

 The electronic state is 1-A.
 Alpha  occ. eigenvalues --  -19.15652 -19.13114 -10.24027 -10.23995 -10.23266
 Alpha  occ. eigenvalues --  -10.22733 -10.20431 -10.20173 -10.17935  -1.08202
 Alpha  occ. eigenvalues --   -1.03626  -0.81997  -0.73262  -0.69433  -0.68226
 Alpha  occ. eigenvalues --   -0.62724  -0.58974  -0.53705  -0.52494  -0.49546
 Alpha  occ. eigenvalues --   -0.45768  -0.45090  -0.43236  -0.42331  -0.40319
 Alpha  occ. eigenvalues --   -0.39093  -0.38459  -0.37214  -0.33595  -0.32274
 Alpha  occ. eigenvalues --   -0.30625  -0.28361  -0.26083  -0.24600
 Alpha virt. eigenvalues --    0.07240   0.08636   0.08848   0.10292   0.11048
 Alpha virt. eigenvalues --    0.12693   0.13411   0.13808   0.15247   0.16431
 Alpha virt. eigenvalues --    0.16947   0.18073   0.18376   0.19985   0.20463

 Mulliken charges:
               1
     1  C   -0.413231
     2  C   -0.104244
     3  C    0.024648
     4  O   -0.249734
     5  C   -0.060517
     6  C    0.280716
     7  C   -0.144186
     8  O   -0.275581
     9  C   -0.130319
    10  H    0.135312
    11  H    0.119762
    12  H    0.117061
    13  H    0.078007
    14  H    0.104638
    15  H    0.107476
    16  H    0.101431
    17  H    0.097200
    18  H    0.110022
    19  H    0.101538
 Sum of Mulliken charges =   0.00000

 Dipole moment (field-independent basis, Debye):
    X=             -1.1634    Y=              0.1416    Z=             -1.8720  Tot=              2.2086
 Quadrupole moment (field-independent basis, Debye-Ang):
   XX=            -60.3744   YY=            -51.0855   ZZ=            -52.1782
   XY=             -1.9262   XZ=              2.0032   YZ=              1.6730

  Exact polarizability:  79.046  -2.590  74.413   0.762   0.330  69.062
 Approx polarizability: 111.629  -3.424 104.702  -0.318  -2.700 108.162

                      1                      2                      3
                      A                      A                      A
 Frequencies --     69.9478               114.3135               199.0333
 Red. masses --      3.9464                 3.3127                 2.2202
 Frc consts  --      0.0114                 0.0255                 0.0518
 IR Inten    --      4.4689                 1.8064                 0.5730

                      4                      5                      6
                      A                      A                      A
 Frequencies --    235.3072               238.5451               269.3686
 Red. masses --      1.2101                 2.9972                 2.4249
 Frc consts  --      0.0395                 0.1005                 0.1037
 IR Inten    --      0.0963                 4.7180                 0.9029

                      7                      8                      9
                      A                      A                      A
 Frequencies --    382.5712               457.9227               547.9711
 Red. masses --      2.4402                 4.1076                 3.2080
 Frc consts  --      0.2104                 0.5075                 0.5676
 IR Inten    --      0.6788                 1.5679                 1.4189

                     10                     11                     12
                      A                      A                      A
 Frequencies --    597.3117               730.3171               837.0761
 Red. masses --      4.0225                 3.4784                 3.4911
 Frc consts  --      0.8456                 1.0931                 1.4413
 IR Inten    --      7.8746                 0.1562                 8.6049

                     13                     14                     15
                      A                      A                      A
 Frequencies --    848.0320               857.2667               860.6104
 Red. masses --      2.4966                 3.4002                 1.5600
 Frc consts  --      1.0579                 1.4723                 0.6808
 IR Inten    --      2.5714                14.2482                24.3633

                     16                     17                     18
                      A                      A                      A
 Frequencies --    874.7421               954.2400               978.1043
 Red. masses --      2.7353                 1.3861                 3.5226
 Frc consts  --      1.2331                 0.7436                 1.9855
 IR Inten    --      2.0742                 1.4609                28.9999

                     19                     20                     21
                      A                      A                      A
 Frequencies --    985.8474              1015.3128              1036.1151
 Red. masses --      2.3256                 1.6181                10.3254
 Frc consts  --      1.3317                 0.9828                 6.5309
 IR Inten    --      8.1781                 3.8734                82.6332

                     22                     23                     24
                      A                      A                      A
 Frequencies --   1047.5410              1067.4680              1104.4963
 Red. masses --      1.4290                 1.5944                 2.6254
 Frc consts  --      0.9239                 1.0704                 1.8870
 IR Inten    --      1.8299                 1.6642                 3.7600

                     25                     26                     27
                      A                      A                      A
 Frequencies --   1145.7572              1155.2302              1161.1054
 Red. masses --      1.4181                 1.1000                 2.4374
 Frc consts  --      1.0969                 0.8650                 1.9360
 IR Inten    --      2.5103                 0.0135                 1.4598

                     28                     29                     30
                      A                      A                      A
 Frequencies --   1186.9643              1203.7704              1236.3473
 Red. masses --      1.8388                 1.9065                 1.4184
 Frc consts  --      1.5264                 1.6277                 1.2774
 IR Inten    --      6.9255                 3.3066                 1.3967

                     31                     32                     33
                      A                      A                      A
 Frequencies --   1253.6116              1301.5373              1306.2735
 Red. masses --      1.6452                 1.9162                 1.4817
 Frc consts  --      1.5233                 1.9125                 1.4897
 IR Inten    --      3.6197                 1.6690                 1.6858

                     34                     35                     36
                      A                      A                      A
 Frequencies --   1360.4740              1378.7595              1384.7940
 Red. masses --      1.6026                 2.2702                 2.0620
 Frc consts  --      1.7477                 2.5427                 2.3297
 IR Inten    --      2.3657                13.0506                 6.9439

                     37                     38                     39
                      A                      A                      A
 Frequencies --   1408.5637              1491.3996              1502.1852
 Red. masses --      1.3812                 1.0448                 1.0503
 Frc consts  --      1.6146                 1.3692                 1.3964
 IR Inten    --      3.3985                 4.0794                 3.9183

                     40                     41                     42
                      A                      A                      A
 Frequencies --   1508.2089              1532.7755              2992.8052
 Red. masses --      1.0768                 1.1084                 1.0543
 Frc consts  --      1.4432                 1.5343                 5.5635
 IR Inten    --      1.4276                 0.8225                89.5405

                     43                     44                     45
                      A                      A                      A
 Frequencies --   3014.1455              3033.6746              3035.8223
 Red. masses --      1.0583                 1.0417                 1.1027
 Frc consts  --      5.6651                 5.6485                 5.9877
 IR Inten    --     24.6803                35.9629                22.7415

                     46                     47                     48
                      A                      A                      A
 Frequencies --   3042.4153              3059.6350              3096.7527
 Red. masses --      1.0841                 1.1085                 1.1009
 Frc consts  --      5.9125                 6.1138                 6.2205
 IR Inten    --     28.4581                37.3325                22.4623

                     49                     50                     51
                      A                      A                      A
 Frequencies --   3117.7625              3172.7953              3189.4491
 Red. masses --      1.1010                 1.0875                 1.1009
 Frc consts  --      6.3057                 6.4503                 6.5984
 IR Inten    --     16.4874                15.7217                23.8636

 - Thermochemistry -
 -------------------
 Temperature   298.150 Kelvin.  Pressure   1.00000 Atm.
 Atom     1 has atomic number  6 and mass  12.00000

 Molecular mass:   126.06808 amu.
 Principal axes and moments of inertia in atomic units:
                           1         2         3
     Eigenvalues --   649.295931242.628871458.18514
           X            0.99910  -0.04228   0.00268
           Y            0.04211   0.99799   0.04741
           Z           -0.00467  -0.04725   0.99887
 This molecule is an asymmetric top.
 Rotational symmetry number  1.
 Warning -- assumption of classical behavior for rotation
           may cause significant error
 Rotational temperatures (Kelvin)      0.13340     0.06970     0.05940
 Rotational constants (GHZ):           2.77954     1.45236     1.23766
 Zero-point vibrational energy     416195.6 (Joules/Mol)
                                   99.47314 (Kcal/Mol)
 Warning -- explicit consideration of  10 degrees of freedom as
           vibrations may cause significant error
 Vibrational temperatures:    100.64   164.47   286.36   338.55   343.21
          (Kelvin)            387.56   550.43   658.85   788.41   859.40
                             1050.76  1204.36  1220.13  1233.41  1238.22
                             1258.56  1372.94  1407.27  1418.41  1460.81
                             1490.74  1507.18  1535.85  1589.12  1648.49
                             1662.12  1670.57  1707.77  1731.96  1778.83
                             1803.67  1872.62  1879.43  1957.42  1983.72
                             1992.41  2026.61  2145.79  2161.31  2169.97
                             2205.32  4305.97  4336.68  4364.78  4367.87
                             4377.35  4402.13  4455.53  4485.76  4564.94
                             4588.90

 Zero-point correction=                           0.158521 (Hartree/Particle)
 Thermal correction to Energy=                    0.166712
 Thermal correction to Enthalpy=                  0.167656
 Thermal correction to Gibbs Free Energy=         0.125470
 Sum of electronic and zero-point Energies=           -422.960324
 Sum of electronic and thermal Energies=              -422.952133
 Sum of electronic and thermal Enthalpies=            -422.951189
 Sum of electronic and thermal Free Energies=         -422.993375

                     E (Thermal)             CV                S
                      KCal/Mol        Cal/Mol-Kelvin    Cal/Mol-Kelvin
 Total                  104.614             30.984             88.788
 Electronic               0.000              0.000              0.000
 Translational            0.889              2.981             40.409
 Rotational               0.889              2.981             28.555
 Vibrational            102.836             25.022             19.825
 Vibration     1          0.598              1.968              4.155
 Vibration     2          0.607              1.938              3.194
 Vibration     3          0.637              1.841              2.142
 Vibration     4          0.655              1.787              1.838
 Vibration     5          0.657              1.782              1.814
 Vibration     6          0.674              1.730              1.600
 Vibration     7          0.752              1.507              1.029
 Vibration     8          0.816              1.343              0.772
 Vibration     9          0.903              1.144              0.548
 Vibration    10          0.955              1.038              0.454

 Optimization completed.
    -- Stationary point found.
 Normal termination of Gaussian 09 at Mon Jan 27 23:55:30 2020.
