 Gaussian 09, Revision D.01,
 Gaussian 09:  ES64L-G09RevD.01 24-Apr-2013

 -----------------------------
 # b3lyp 6-31G(2df,p) opt Freq
 -----------------------------

 -----
 titel
 -----
 Symbolic Z-matrix:
 Charge =  0 Multiplicity = 1

 SCF Done:  E(RB3LYP) =  -423.202433078     A.U. after   14 cycles
 Optimization completed.
    -- Stationary point found.
 Normal termination of Gaussian 09 at Tue Jan 28 00:36:28 2020.

 ----------------------------------------------------------------------
 #N Geom=AllCheck Guess=TCheck SCRF=Check GenChk RB3LYP/6-31G(2df,p) Fr
 eq
 ----------------------------------------------------------------------

 Structure from the checkpoint file:  "/scratch/puck/g09_eeb260c5-45cc-4dbc-88e3-d9c04105c04d/Gau-36582.chk"
 -----
 titel
 -----
 Charge =  0 Multiplicity = 1

                         Standard orientation:
 ---------------------------------------------------------------------
 Center     Atomic      Atomic             Coordinates (Angstroms)
 Number     Number       Type             X           Y           Z
 ---------------------------------------------------------------------
      1          6           0        2.250897   -0.942010   -0.350470
      2          6           0        1.449361    0.122633    0.407340
      3          6           0        1.132817    1.361463   -0.401205
      4          6           0       -0.139932    1.741118   -0.308487
      5          6           0       -0.945257    0.814548    0.567924
      6          8           0       -2.030637    0.171682   -0.103110
      7          6           0       -1.467127   -0.962395   -0.709426
      8          8           0       -0.482747   -1.455518    0.177271
      9          6           0        0.046550   -0.343972    0.898408
     10          1           0        3.219000   -0.538228   -0.664613
     11          1           0        2.436623   -1.816373    0.280096
     12          1           0        1.714400   -1.282362   -1.239100
     13          1           0        2.034938    0.416802    1.290891
     14          1           0        1.897758    1.879257   -0.972425
     15          1           0       -0.586699    2.603949   -0.788728
     16          1           0       -1.371649    1.311230    1.444378
     17          1           0       -2.245713   -1.719729   -0.839578
     18          1           0       -1.015210   -0.708806   -1.683912
     19          1           0        0.059760   -0.623352    1.955202
 ---------------------------------------------------------------------

 SCF Done:  E(RB3LYP) =  -423.202433078     A.U. after    1 cycles

 The electronic state is 1-A.
 Alpha  occ. eigenvalues --  -19.14482 -19.14248 -10.26884 -10.23636 -10.23324
 Alpha  occ. eigenvalues --  -10.19371 -10.18976 -10.18248 -10.17463  -1.08440
 Alpha  occ. eigenvalues --   -0.99101  -0.84414  -0.74637  -0.72732  -0.65431
 Alpha  occ. eigenvalues --   -0.62645  -0.57915  -0.54106  -0.52770  -0.48955
 Alpha  occ. eigenvalues --   -0.47635  -0.45027  -0.43176  -0.41446  -0.40408
 Alpha  occ. eigenvalues --   -0.39254  -0.37362  -0.36257  -0.33909  -0.32782
 Alpha  occ. eigenvalues --   -0.31910  -0.27328  -0.25824  -0.25001
 Alpha virt. eigenvalues --    0.00875   0.08654   0.11607   0.12255   0.12785
 Alpha virt. eigenvalues --    0.13697   0.14671   0.16018   0.16460   0.16782
 Alpha virt. eigenvalues --    0.17946   0.18513   0.19846   0.20717   0.21716

 Mulliken charges:
               1
     1  C   -0.387037
     2  C   -0.054467
     3  C   -0.064017
     4  C   -0.114724
     5  C    0.037279
     6  O   -0.250336
     7  C    0.013801
     8  O   -0.254985
     9  C    0.057658
    10  H    0.108315
    11  H    0.121278
    12  H    0.126210
    13  H    0.083669
    14  H    0.098258
    15  H    0.102160
    16  H    0.091679
    17  H    0.117185
    18  H    0.084361
    19  H    0.083714
 Sum of Mulliken charges =   0.00000

 Dipole moment (field-independent basis, Debye):
    X=              1.2646    Y=              0.9342    Z=              0.0429  Tot=              1.5728
 Quadrupole moment (field-independent basis, Debye-Ang):
   XX=            -54.3420   YY=            -53.7705   ZZ=            -50.9589
   XY=              1.1954   XZ=              0.6124   YZ=              0.8315

  Exact polarizability:  86.827  -1.280  73.567  -0.060  -0.943  65.100
 Approx polarizability: 129.159  -4.850 105.676   0.298  -1.069  98.502

                      1                      2                      3
                      A                      A                      A
 Frequencies --     66.1753               178.9902               215.2142
 Red. masses --      4.0641                 2.3132                 1.2127
 Frc consts  --      0.0105                 0.0437                 0.0331
 IR Inten    --      0.3016                 0.7136                 0.2373

                      4                      5                      6
                      A                      A                      A
 Frequencies --    247.9700               271.4155               366.4730
 Red. masses --      2.6558                 2.6942                 2.9573
 Frc consts  --      0.0962                 0.1169                 0.2340
 IR Inten    --      1.1265                 5.0597                 6.6908

                      7                      8                      9
                      A                      A                      A
 Frequencies --    470.3151               521.7854               617.7289
 Red. masses --      3.6642                 3.9586                 4.2024
 Frc consts  --      0.4775                 0.6350                 0.9448
 IR Inten    --      0.8895                 3.0031                 3.4084

                     10                     11                     12
                      A                      A                      A
 Frequencies --    732.8185               744.4797               774.6287
 Red. masses --      2.7139                 5.6764                 1.8712
 Frc consts  --      0.8587                 1.8536                 0.6615
 IR Inten    --      9.2136                 0.2755                12.1432

                     13                     14                     15
                      A                      A                      A
 Frequencies --    814.8436               870.3920               882.6780
 Red. masses --      3.7323                 2.3943                 3.7365
 Frc consts  --      1.4601                 1.0687                 1.7152
 IR Inten    --     12.4573                 4.2463                 4.5249

                     16                     17                     18
                      A                      A                      A
 Frequencies --    919.3011               972.7142               983.5187
 Red. masses --      2.2852                 1.9733                 1.4479
 Frc consts  --      1.1378                 1.1001                 0.8252
 IR Inten    --     18.0111                26.6868                 9.9846

                     19                     20                     21
                      A                      A                      A
 Frequencies --    986.8224              1015.9562              1039.9024
 Red. masses --      2.5447                 2.7989                 2.4006
 Frc consts  --      1.4600                 1.7021                 1.5296
 IR Inten    --     42.0450                18.2524                11.7979

                     22                     23                     24
                      A                      A                      A
 Frequencies --   1072.2129              1100.1019              1117.6624
 Red. masses --      2.2024                 2.8081                 1.7128
 Frc consts  --      1.4918                 2.0023                 1.2606
 IR Inten    --     10.9008               113.1603                18.2445

                     25                     26                     27
                      A                      A                      A
 Frequencies --   1132.7302              1160.4459              1182.8348
 Red. masses --      2.4894                 1.4987                 1.9361
 Frc consts  --      1.8819                 1.1891                 1.5959
 IR Inten    --      4.4402                 6.9245                76.8566

                     28                     29                     30
                      A                      A                      A
 Frequencies --   1230.3240              1251.3464              1291.6556
 Red. masses --      1.0955                 1.8647                 1.3635
 Frc consts  --      0.9770                 1.7203                 1.3403
 IR Inten    --      0.4247                 3.4102                 0.5351

                     31                     32                     33
                      A                      A                      A
 Frequencies --   1316.7892              1332.0061              1345.4659
 Red. masses --      1.5457                 1.3342                 1.3040
 Frc consts  --      1.5791                 1.3947                 1.3909
 IR Inten    --      3.8347                 3.3565                 5.9249

                     34                     35                     36
                      A                      A                      A
 Frequencies --   1363.3353              1385.1368              1413.2392
 Red. masses --      1.2403                 1.5976                 1.2378
 Frc consts  --      1.3583                 1.8059                 1.4566
 IR Inten    --      6.2211                 4.7034                 0.9293

                     37                     38                     39
                      A                      A                      A
 Frequencies --   1430.4569              1493.9159              1495.9194
 Red. masses --      1.2637                 1.0488                 1.0497
 Frc consts  --      1.5235                 1.3791                 1.3840
 IR Inten    --      7.2750                 3.6524                 4.5456

                     40                     41                     42
                      A                      A                      A
 Frequencies --   1540.5117              1683.1317              2950.6588
 Red. masses --      1.0986                 6.7079                 1.0697
 Frc consts  --      1.5361                11.1963                 5.4874
 IR Inten    --      2.1482                 2.1561                80.5394

                     43                     44                     45
                      A                      A                      A
 Frequencies --   2991.9638              3041.4221              3062.6284
 Red. masses --      1.0820                 1.0363                 1.0867
 Frc consts  --      5.7068                 5.6477                 6.0054
 IR Inten    --     22.8550                27.5848                12.7184

                     46                     47                     48
                      A                      A                      A
 Frequencies --   3075.1181              3085.5792              3107.6571
 Red. masses --      1.0867                 1.0957                 1.1010
 Frc consts  --      6.0547                 6.1461                 6.2649
 IR Inten    --     60.8971                49.6048                21.6430

                     49                     50                     51
                      A                      A                      A
 Frequencies --   3127.5148              3173.2456              3208.1242
 Red. masses --      1.1009                 1.0868                 1.1017
 Frc consts  --      6.3446                 6.4478                 6.6808
 IR Inten    --     22.5987                10.3587                14.1554

 - Thermochemistry -
 -------------------
 Temperature   298.150 Kelvin.  Pressure   1.00000 Atm.
 Atom     1 has atomic number  6 and mass  12.00000

 Molecular mass:   126.06808 amu.
 Principal axes and moments of inertia in atomic units:
                           1         2         3
     Eigenvalues --   668.955621017.301831388.94124
           X            0.99961  -0.02784  -0.00345
           Y            0.02789   0.99952   0.01353
           Z            0.00308  -0.01362   0.99990
 This molecule is an asymmetric top.
 Rotational symmetry number  1.
 Warning -- assumption of classical behavior for rotation
           may cause significant error
 Rotational temperatures (Kelvin)      0.12948     0.08514     0.06236
 Rotational constants (GHZ):           2.69785     1.77405     1.29936
 Zero-point vibrational energy     423820.5 (Joules/Mol)
                                  101.29553 (Kcal/Mol)
 Warning -- explicit consideration of   9 degrees of freedom as
           vibrations may cause significant error
 Vibrational temperatures:     95.21   257.53   309.64   356.77   390.51
          (Kelvin)            527.27   676.68   750.73   888.77  1054.36
                             1071.14  1114.52  1172.38  1252.30  1269.98
                             1322.67  1399.52  1415.06  1419.82  1461.73
                             1496.19  1542.67  1582.80  1608.06  1629.74
                             1669.62  1701.83  1770.16  1800.41  1858.40
                             1894.56  1916.46  1935.82  1961.53  1992.90
                             2033.33  2058.11  2149.41  2152.29  2216.45
                             2421.65  4245.33  4304.76  4375.92  4406.43
                             4424.40  4439.45  4471.22  4499.79  4565.59
                             4615.77

 Zero-point correction=                           0.161425 (Hartree/Particle)
 Thermal correction to Energy=                    0.169048
 Thermal correction to Enthalpy=                  0.169992
 Thermal correction to Gibbs Free Energy=         0.129123
 Sum of electronic and zero-point Energies=           -423.041008
 Sum of electronic and thermal Energies=              -423.033385
 Sum of electronic and thermal Enthalpies=            -423.032441
 Sum of electronic and thermal Free Energies=         -423.073310

                     E (Thermal)             CV                S
                      KCal/Mol        Cal/Mol-Kelvin    Cal/Mol-Kelvin
 Total                  106.079             29.578             86.015
 Electronic               0.000              0.000              0.000
 Translational            0.889              2.981             40.409
 Rotational               0.889              2.981             28.338
 Vibrational            104.302             23.616             17.269
 Vibration     1          0.598              1.970              4.264
 Vibration     2          0.629              1.868              2.339
 Vibration     3          0.645              1.818              1.999
 Vibration     4          0.662              1.766              1.745
 Vibration     5          0.675              1.726              1.587
 Vibration     6          0.739              1.541              1.095
 Vibration     7          0.827              1.316              0.737
 Vibration     8          0.877              1.202              0.606
 Vibration     9          0.978              0.994              0.420

 Optimization completed.
    -- Stationary point found.
 Normal termination of Gaussian 09 at Tue Jan 28 02:45:47 2020.
