 Gaussian 09, Revision D.01,
 Gaussian 09:  ES64L-G09RevD.01 24-Apr-2013

 -----------------------------
 # b3lyp 6-31G(2df,p) opt Freq
 -----------------------------

 -----
 titel
 -----
 Symbolic Z-matrix:
 Charge =  0 Multiplicity = 1

 SCF Done:  E(RB3LYP) =  -423.171862726     A.U. after   14 cycles
 Optimization completed.
    -- Stationary point found.
 Normal termination of Gaussian 09 at Mon Jan 27 22:03:37 2020.

 ----------------------------------------------------------------------
 #N Geom=AllCheck Guess=TCheck SCRF=Check GenChk RB3LYP/6-31G(2df,p) Fr
 eq
 ----------------------------------------------------------------------

 Structure from the checkpoint file:  "/scratch/puck/g09_03bcaed0-14af-4c21-af5f-a0f40c3ef285/Gau-181014.chk"
 -----
 titel
 -----
 Charge =  0 Multiplicity = 1

                         Standard orientation:
 ---------------------------------------------------------------------
 Center     Atomic      Atomic             Coordinates (Angstroms)
 Number     Number       Type             X           Y           Z
 ---------------------------------------------------------------------
      1          6           0       -1.399106    1.946753   -0.006550
      2          6           0       -0.249830    0.979308    0.061833
      3          6           0        1.030306    1.362791    0.060796
      4          6           0        2.182045    0.397136    0.032348
      5          8           0        1.800274   -0.905414   -0.361747
      6          6           0        0.669185   -1.357965    0.352459
      7          6           0       -0.545972   -0.483341    0.104241
      8          6           0       -1.866372   -1.014158    0.484245
      9          8           0       -1.483193   -0.966823   -0.886707
     10          1           0       -2.086955    1.663341   -0.810345
     11          1           0       -1.976852    1.961179    0.925752
     12          1           0       -1.044594    2.962473   -0.196856
     13          1           0        1.285797    2.420091    0.063489
     14          1           0        2.933164    0.726667   -0.694327
     15          1           0        2.683647    0.371889    1.019289
     16          1           0        0.462228   -2.375785    0.012545
     17          1           0        0.882370   -1.382785    1.435996
     18          1           0       -1.927495   -2.012106    0.920588
     19          1           0       -2.669495   -0.340223    0.775270
 ---------------------------------------------------------------------

 SCF Done:  E(RB3LYP) =  -423.171862726     A.U. after    1 cycles

 The electronic state is 1-A.
 Alpha  occ. eigenvalues --  -19.15092 -19.14157 -10.24320 -10.23558 -10.23425
 Alpha  occ. eigenvalues --  -10.23113 -10.19603 -10.18584 -10.18335  -1.07092
 Alpha  occ. eigenvalues --   -1.03763  -0.81316  -0.75559  -0.71275  -0.66614
 Alpha  occ. eigenvalues --   -0.62672  -0.61868  -0.52350  -0.50748  -0.49432
 Alpha  occ. eigenvalues --   -0.47806  -0.45204  -0.42665  -0.41883  -0.41361
 Alpha  occ. eigenvalues --   -0.40224  -0.38521  -0.38093  -0.36011  -0.33110
 Alpha  occ. eigenvalues --   -0.29971  -0.28100  -0.25209  -0.23971
 Alpha virt. eigenvalues --    0.00719   0.09159   0.09461   0.11423   0.12040
 Alpha virt. eigenvalues --    0.12391   0.13903   0.14012   0.16061   0.16905
 Alpha virt. eigenvalues --    0.17556   0.18037   0.19197   0.21369   0.22542

 Mulliken charges:
               1
     1  C   -0.504299
     2  C    0.276292
     3  C   -0.180407
     4  C   -0.133117
     5  O   -0.241763
     6  C   -0.163298
     7  C    0.327399
     8  C   -0.240683
     9  O   -0.274221
    10  H    0.147041
    11  H    0.124112
    12  H    0.122261
    13  H    0.090606
    14  H    0.121253
    15  H    0.096104
    16  H    0.119631
    17  H    0.088542
    18  H    0.111434
    19  H    0.113113
 Sum of Mulliken charges =   0.00000

 Dipole moment (field-independent basis, Debye):
    X=             -0.2197    Y=              1.2295    Z=              2.2695  Tot=              2.5905
 Quadrupole moment (field-independent basis, Debye-Ang):
   XX=            -52.1371   YY=            -50.7231   ZZ=            -55.4603
   XY=              2.2178   XZ=             -1.8013   YZ=             -3.1268

  Exact polarizability:  98.647   7.230  80.760  -1.832  -2.920  56.151
 Approx polarizability: 144.306  16.510 110.417  -1.542  -0.220  93.294

                      1                      2                      3
                      A                      A                      A
 Frequencies --     84.4549               194.4151               225.6297
 Red. masses --      3.2027                 1.3498                 2.1803
 Frc consts  --      0.0135                 0.0301                 0.0654
 IR Inten    --      0.9382                 0.2091                 0.7879

                      4                      5                      6
                      A                      A                      A
 Frequencies --    256.9103               289.6665               296.9018
 Red. masses --      3.8209                 2.3081                 2.3345
 Frc consts  --      0.1486                 0.1141                 0.1212
 IR Inten    --      5.5788                 1.6959                 1.4494

                      7                      8                      9
                      A                      A                      A
 Frequencies --    362.7430               388.8384               449.6061
 Red. masses --      2.3938                 2.9981                 3.6291
 Frc consts  --      0.1856                 0.2671                 0.4322
 IR Inten    --      1.8150                 6.6229                 0.7633

                     10                     11                     12
                      A                      A                      A
 Frequencies --    521.3482               596.7531               668.0288
 Red. masses --      4.4905                 3.5054                 4.9060
 Frc consts  --      0.7191                 0.7355                 1.2899
 IR Inten    --      4.5103                 4.8903                 4.2544

                     13                     14                     15
                      A                      A                      A
 Frequencies --    733.9223               783.5563               831.9476
 Red. masses --      3.7348                 4.0642                 1.2658
 Frc consts  --      1.1853                 1.4701                 0.5162
 IR Inten    --     13.8820                16.6873                10.0653

                     16                     17                     18
                      A                      A                      A
 Frequencies --    899.9028               909.6294               973.9062
 Red. masses --      2.6093                 1.5755                 3.1807
 Frc consts  --      1.2450                 0.7681                 1.7775
 IR Inten    --     12.4578                 2.7477                34.7921

                     19                     20                     21
                      A                      A                      A
 Frequencies --   1004.8223              1025.0370              1044.6992
 Red. masses --      2.8885                 1.9375                 2.1416
 Frc consts  --      1.7183                 1.1994                 1.3771
 IR Inten    --      4.4086                11.9263                 1.2744

                     22                     23                     24
                      A                      A                      A
 Frequencies --   1062.0096              1071.1052              1131.3352
 Red. masses --      1.7206                 1.5470                 1.2887
 Frc consts  --      1.1434                 1.0457                 0.9718
 IR Inten    --      9.8939                 0.1811                 2.1857

                     25                     26                     27
                      A                      A                      A
 Frequencies --   1146.2955              1164.0687              1183.8310
 Red. masses --      3.6925                 1.7125                 2.3376
 Frc consts  --      2.8587                 1.3672                 1.9302
 IR Inten    --     18.3042                28.0938                49.4061

                     28                     29                     30
                      A                      A                      A
 Frequencies --   1248.0992              1270.1686              1316.0182
 Red. masses --      1.2013                 1.7254                 1.2861
 Frc consts  --      1.1026                 1.6400                 1.3123
 IR Inten    --      9.8412                 3.9690                 1.8406

                     31                     32                     33
                      A                      A                      A
 Frequencies --   1345.1268              1374.4833              1400.4548
 Red. masses --      1.7886                 1.5564                 1.6821
 Frc consts  --      1.9067                 1.7325                 1.9438
 IR Inten    --     12.6369                 3.2813                10.8157

                     34                     35                     36
                      A                      A                      A
 Frequencies --   1409.9012              1431.8764              1477.2074
 Red. masses --      1.6089                 1.6261                 1.0797
 Frc consts  --      1.8844                 1.9643                 1.3881
 IR Inten    --      5.0241                 6.5478                 1.4382

                     37                     38                     39
                      A                      A                      A
 Frequencies --   1479.3125              1490.2072              1498.5454
 Red. masses --      1.0511                 1.1006                 1.0849
 Frc consts  --      1.3552                 1.4400                 1.4355
 IR Inten    --      6.8438                 3.9831                 8.3828

                     40                     41                     42
                      A                      A                      A
 Frequencies --   1528.4792              1730.1632              2917.3758
 Red. masses --      1.2519                 7.4438                 1.0729
 Frc consts  --      1.7232                13.1287                 5.3801
 IR Inten    --      0.8499                 1.0151                68.4656

                     43                     44                     45
                      A                      A                      A
 Frequencies --   2949.7859              3026.3858              3059.0172
 Red. masses --      1.0706                 1.0400                 1.0864
 Frc consts  --      5.4888                 5.6124                 5.9898
 IR Inten    --     56.5244                21.1162                28.6636

                     46                     47                     48
                      A                      A                      A
 Frequencies --   3075.8493              3084.3310              3100.9937
 Red. masses --      1.0533                 1.0944                 1.0918
 Frc consts  --      5.8713                 6.1338                 6.1860
 IR Inten    --     25.2000                17.6954                16.8244

                     49                     50                     51
                      A                      A                      A
 Frequencies --   3121.4759              3152.8905              3164.4425
 Red. masses --      1.1008                 1.0899                 1.1164
 Frc consts  --      6.3193                 6.3837                 6.5866
 IR Inten    --     15.3961                16.6060                22.1237

 - Thermochemistry -
 -------------------
 Temperature   298.150 Kelvin.  Pressure   1.00000 Atm.
 Atom     1 has atomic number  6 and mass  12.00000

 Molecular mass:   126.06808 amu.
 Principal axes and moments of inertia in atomic units:
                           1         2         3
     Eigenvalues --   735.576571058.843141611.32719
           X            0.99978  -0.02001  -0.00693
           Y            0.01983   0.99946  -0.02625
           Z            0.00745   0.02610   0.99963
 This molecule is an asymmetric top.
 Rotational symmetry number  1.
 Warning -- assumption of classical behavior for rotation
           may cause significant error
 Rotational temperatures (Kelvin)      0.11775     0.08180     0.05375
 Rotational constants (GHZ):           2.45351     1.70445     1.12003
 Zero-point vibrational energy     418417.6 (Joules/Mol)
                                  100.00420 (Kcal/Mol)
 Warning -- explicit consideration of  11 degrees of freedom as
           vibrations may cause significant error
 Vibrational temperatures:    121.51   279.72   324.63   369.64   416.77
          (Kelvin)            427.17   521.91   559.45   646.88   750.10
                              858.59   961.14  1055.95  1127.36  1196.99
                             1294.76  1308.75  1401.23  1445.71  1474.80
                             1503.09  1527.99  1541.08  1627.74  1649.26
                             1674.83  1703.27  1795.73  1827.49  1893.45
                             1935.33  1977.57  2014.94  2028.53  2060.15
                             2125.37  2128.40  2144.07  2156.07  2199.14
                             2489.32  4197.45  4244.08  4354.29  4401.24
                             4425.46  4437.66  4461.63  4491.10  4536.30
                             4552.92

 Zero-point correction=                           0.159367 (Hartree/Particle)
 Thermal correction to Energy=                    0.167558
 Thermal correction to Enthalpy=                  0.168502
 Thermal correction to Gibbs Free Energy=         0.126824
 Sum of electronic and zero-point Energies=           -423.012496
 Sum of electronic and thermal Energies=              -423.004305
 Sum of electronic and thermal Enthalpies=            -423.003361
 Sum of electronic and thermal Free Energies=         -423.045039

                     E (Thermal)             CV                S
                      KCal/Mol        Cal/Mol-Kelvin    Cal/Mol-Kelvin
 Total                  105.144             31.727             87.719
 Electronic               0.000              0.000              0.000
 Translational            0.889              2.981             40.409
 Rotational               0.889              2.981             28.619
 Vibrational            103.367             25.765             18.691
 Vibration     1          0.601              1.960              3.785
 Vibration     2          0.635              1.848              2.185
 Vibration     3          0.650              1.802              1.913
 Vibration     4          0.666              1.751              1.683
 Vibration     5          0.686              1.693              1.476
 Vibration     6          0.691              1.680              1.434
 Vibration     7          0.737              1.549              1.110
 Vibration     8          0.757              1.494              1.005
 Vibration     9          0.809              1.362              0.797
 Vibration    10          0.876              1.203              0.607
 Vibration    11          0.955              1.039              0.455

 Optimization completed.
    -- Stationary point found.
 Normal termination of Gaussian 09 at Mon Jan 27 22:48:28 2020.
