 Gaussian 09, Revision D.01,
 Gaussian 09:  ES64L-G09RevD.01 24-Apr-2013

 -----------------------------
 # b3lyp 6-31G(2df,p) opt Freq
 -----------------------------

 -----
 titel
 -----
 Symbolic Z-matrix:
 Charge =  0 Multiplicity = 1

 SCF Done:  E(RB3LYP) =  -423.166950746     A.U. after   14 cycles
 Optimization completed.
    -- Stationary point found.
 Normal termination of Gaussian 09 at Tue Jan 28 14:12:31 2020.

 ----------------------------------------------------------------------
 #N Geom=AllCheck Guess=TCheck SCRF=Check GenChk RB3LYP/6-31G(2df,p) Fr
 eq
 ----------------------------------------------------------------------

 Structure from the checkpoint file:  "/scratch/puck/g09_931764a8-63ea-48a5-8414-2123a86a5d1c/Gau-44073.chk"
 -----
 titel
 -----
 Charge =  0 Multiplicity = 1

                         Standard orientation:
 ---------------------------------------------------------------------
 Center     Atomic      Atomic             Coordinates (Angstroms)
 Number     Number       Type             X           Y           Z
 ---------------------------------------------------------------------
      1          6           0       -3.337480    0.085633   -0.246229
      2          6           0       -1.980752    0.110731    0.431819
      3          8           0       -0.994877   -0.271501   -0.536206
      4          6           0        0.281058   -0.284307   -0.047616
      5          6           0        0.822477   -1.454946    0.777527
      6          6           0        1.496862   -1.122820   -0.512516
      7          6           0        2.448774    0.060646   -0.280852
      8          6           0        1.194173    0.902890    0.092368
      9          8           0        1.001714    2.079444    0.217360
     10          1           0       -4.118991    0.371524    0.463940
     11          1           0       -3.359633    0.784769   -1.086621
     12          1           0       -3.561516   -0.915688   -0.625194
     13          1           0       -1.746792    1.113073    0.812228
     14          1           0       -1.949581   -0.588731    1.280597
     15          1           0        1.333650   -1.302400    1.724524
     16          1           0        0.148851   -2.305957    0.753987
     17          1           0        1.523968   -1.795510   -1.358662
     18          1           0        3.215612   -0.072108    0.487725
     19          1           0        2.909069    0.460526   -1.188751
 ---------------------------------------------------------------------

 SCF Done:  E(RB3LYP) =  -423.166950746     A.U. after    1 cycles

 The electronic state is 1-A.
 Alpha  occ. eigenvalues --  -19.15654 -19.13134 -10.26761 -10.25055 -10.23317
 Alpha  occ. eigenvalues --  -10.21379 -10.20599 -10.19778 -10.17896  -1.05695
 Alpha  occ. eigenvalues --   -1.03705  -0.90323  -0.76092  -0.72753  -0.64668
 Alpha  occ. eigenvalues --   -0.62045  -0.59193  -0.54198  -0.50037  -0.48479
 Alpha  occ. eigenvalues --   -0.46075  -0.45153  -0.44334  -0.41758  -0.40619
 Alpha  occ. eigenvalues --   -0.38896  -0.38368  -0.37366  -0.36030  -0.34737
 Alpha  occ. eigenvalues --   -0.32201  -0.28759  -0.26872  -0.23044
 Alpha virt. eigenvalues --   -0.01044   0.09587   0.10110   0.10785   0.11230
 Alpha virt. eigenvalues --    0.12875   0.13653   0.14112   0.15682   0.16976
 Alpha virt. eigenvalues --    0.17061   0.17751   0.19124   0.19450   0.21480

 Mulliken charges:
               1
     1  C   -0.389557
     2  C   -0.067681
     3  O   -0.288814
     4  C    0.345160
     5  C   -0.340591
     6  C   -0.141049
     7  C   -0.354275
     8  C    0.346063
     9  O   -0.324384
    10  H    0.118980
    11  H    0.133713
    12  H    0.125129
    13  H    0.124067
    14  H    0.093229
    15  H    0.119261
    16  H    0.129675
    17  H    0.116465
    18  H    0.119887
    19  H    0.134721
 Sum of Mulliken charges =   0.00000

 Dipole moment (field-independent basis, Debye):
    X=             -0.0880    Y=             -2.6547    Z=              0.5134  Tot=              2.7053
 Quadrupole moment (field-independent basis, Debye-Ang):
   XX=            -48.0459   YY=            -58.5461   ZZ=            -52.0065
   XY=             -2.8362   XZ=             -2.2294   YZ=             -0.9637

  Exact polarizability:  91.842  -1.385  77.847  -2.637  -0.706  63.222
 Approx polarizability: 114.102  -4.131 124.937  -3.550   1.428  98.362

                      1                      2                      3
                      A                      A                      A
 Frequencies --     56.1817                71.3052               119.2881
 Red. masses --      3.2730                 2.0047                 3.2309
 Frc consts  --      0.0061                 0.0060                 0.0271
 IR Inten    --      1.5975                 4.1251                 3.7982

                      4                      5                      6
                      A                      A                      A
 Frequencies --    164.2839               237.5458               280.4384
 Red. masses --      3.6976                 1.2914                 3.4378
 Frc consts  --      0.0588                 0.0429                 0.1593
 IR Inten    --      0.8318                 0.4430                 2.8870

                      7                      8                      9
                      A                      A                      A
 Frequencies --    344.9190               368.2705               429.1854
 Red. masses --      3.2381                 3.0070                 2.2858
 Frc consts  --      0.2270                 0.2403                 0.2481
 IR Inten    --      2.0771                 0.3413                 0.1653

                     10                     11                     12
                      A                      A                      A
 Frequencies --    507.9446               568.4699               659.8898
 Red. masses --      3.4685                 3.6258                 3.2210
 Frc consts  --      0.5273                 0.6904                 0.8264
 IR Inten    --      5.0655                 3.0782                 1.9182

                     13                     14                     15
                      A                      A                      A
 Frequencies --    711.9318               820.3123               822.3407
 Red. masses --      2.8579                 1.1516                 2.1314
 Frc consts  --      0.8534                 0.4566                 0.8492
 IR Inten    --     12.7168                 0.1579                 0.5846

                     16                     17                     18
                      A                      A                      A
 Frequencies --    835.9393               890.5882               916.2776
 Red. masses --      3.7621                 2.8706                 1.8179
 Frc consts  --      1.5489                 1.3414                 0.8992
 IR Inten    --     16.7818                12.2995                 8.8744

                     19                     20                     21
                      A                      A                      A
 Frequencies --    955.1774               977.2451              1016.0808
 Red. masses --      1.7446                 2.0187                 1.3593
 Frc consts  --      0.9378                 1.1359                 0.8268
 IR Inten    --     11.0842                38.2769                 8.8142

                     22                     23                     24
                      A                      A                      A
 Frequencies --   1019.2664              1059.4770              1079.2270
 Red. masses --      2.2721                 2.6795                 1.3765
 Frc consts  --      1.3907                 1.7721                 0.9446
 IR Inten    --      0.8353                 9.4238                 1.1734

                     25                     26                     27
                      A                      A                      A
 Frequencies --   1086.4184              1138.7347              1144.8324
 Red. masses --      2.4510                 1.9500                 1.7801
 Frc consts  --      1.7045                 1.4898                 1.3746
 IR Inten    --    111.7240                 8.2826                26.1265

                     28                     29                     30
                      A                      A                      A
 Frequencies --   1185.0774              1197.6852              1250.8180
 Red. masses --      1.5329                 1.6130                 2.0012
 Frc consts  --      1.2684                 1.3632                 1.8447
 IR Inten    --      4.0703                18.1284                19.5840

                     31                     32                     33
                      A                      A                      A
 Frequencies --   1287.8755              1295.3146              1366.7058
 Red. masses --      2.2985                 1.2123                 2.5132
 Frc consts  --      2.2462                 1.1984                 2.7658
 IR Inten    --     11.1058                 6.5593               145.7317

                     34                     35                     36
                      A                      A                      A
 Frequencies --   1404.1309              1434.5747              1456.7047
 Red. masses --      1.3157                 1.4807                 1.1055
 Frc consts  --      1.5284                 1.7954                 1.3822
 IR Inten    --     13.8076                 1.0106                 2.7866

                     37                     38                     39
                      A                      A                      A
 Frequencies --   1483.3123              1492.7707              1500.4331
 Red. masses --      1.0401                 1.3167                 1.0531
 Frc consts  --      1.3484                 1.7287                 1.3968
 IR Inten    --      4.6279                14.5673                 2.1313

                     40                     41                     42
                      A                      A                      A
 Frequencies --   1525.1450              1875.3168              2993.5484
 Red. masses --      1.0968                12.7331                 1.0623
 Frc consts  --      1.5032                26.3835                 5.6088
 IR Inten    --      0.4884               303.5698                37.3933

                     43                     44                     45
                      A                      A                      A
 Frequencies --   3045.8026              3047.3056              3056.9544
 Red. masses --      1.0518                 1.0812                 1.0583
 Frc consts  --      5.7487                 5.9153                 5.8268
 IR Inten    --     16.6126                18.7983                20.9766

                     46                     47                     48
                      A                      A                      A
 Frequencies --   3112.0385              3113.3926              3120.6968
 Red. masses --      1.0584                 1.1030                 1.1016
 Frc consts  --      6.0393                 6.2991                 6.3209
 IR Inten    --      7.7622                15.3523                23.4712

                     49                     50                     51
                      A                      A                      A
 Frequencies --   3124.8237              3204.6986              3217.2721
 Red. masses --      1.1028                 1.1133                 1.0957
 Frc consts  --      6.3442                 6.7364                 6.6824
 IR Inten    --     23.4345                 4.4435                 5.0738

 - Thermochemistry -
 -------------------
 Temperature   298.150 Kelvin.  Pressure   1.00000 Atm.
 Atom     1 has atomic number  6 and mass  12.00000

 Molecular mass:   126.06808 amu.
 Principal axes and moments of inertia in atomic units:
                           1         2         3
     Eigenvalues --   594.235261570.317401943.46763
           X            0.99981  -0.01903  -0.00380
           Y            0.01895   0.99962  -0.01997
           Z            0.00417   0.01990   0.99979
 This molecule is an asymmetric top.
 Rotational symmetry number  1.
 Warning -- assumption of classical behavior for rotation
           may cause significant error
 Rotational temperatures (Kelvin)      0.14576     0.05516     0.04457
 Rotational constants (GHZ):           3.03708     1.14928     0.92862
 Zero-point vibrational energy     413154.1 (Joules/Mol)
                                   98.74620 (Kcal/Mol)
 Warning -- explicit consideration of  11 degrees of freedom as
           vibrations may cause significant error
 Vibrational temperatures:     80.83   102.59   171.63   236.37   341.77
          (Kelvin)            403.49   496.26   529.86   617.50   730.82
                              817.90   949.43  1024.31  1180.24  1183.16
                             1202.73  1281.36  1318.32  1374.29  1406.04
                             1461.91  1466.50  1524.35  1552.77  1563.11
                             1638.38  1647.16  1705.06  1723.20  1799.65
                             1852.96  1863.67  1966.38  2020.23  2064.03
                             2095.87  2134.15  2147.76  2158.79  2194.34
                             2698.16  4307.04  4382.23  4384.39  4398.27
                             4477.52  4479.47  4489.98  4495.92  4610.84
                             4628.93

 Zero-point correction=                           0.157362 (Hartree/Particle)
 Thermal correction to Energy=                    0.166417
 Thermal correction to Enthalpy=                  0.167362
 Thermal correction to Gibbs Free Energy=         0.122782
 Sum of electronic and zero-point Energies=           -423.009589
 Sum of electronic and thermal Energies=              -423.000533
 Sum of electronic and thermal Enthalpies=            -422.999589
 Sum of electronic and thermal Free Energies=         -423.044169

                     E (Thermal)             CV                S
                      KCal/Mol        Cal/Mol-Kelvin    Cal/Mol-Kelvin
 Total                  104.429             33.181             93.826
 Electronic               0.000              0.000              0.000
 Translational            0.889              2.981             40.409
 Rotational               0.889              2.981             28.985
 Vibrational            102.651             27.219             24.432
 Vibration     1          0.596              1.975              4.587
 Vibration     2          0.598              1.968              4.117
 Vibration     3          0.609              1.933              3.112
 Vibration     4          0.623              1.886              2.500
 Vibration     5          0.656              1.783              1.821
 Vibration     6          0.680              1.710              1.531
 Vibration     7          0.723              1.586              1.189
 Vibration     8          0.741              1.537              1.087
 Vibration     9          0.791              1.407              0.861
 Vibration    10          0.863              1.232              0.639
 Vibration    11          0.924              1.099              0.507

 Optimization completed.
    -- Stationary point found.
 Normal termination of Gaussian 09 at Tue Jan 28 14:56:31 2020.
