 Gaussian 09, Revision D.01,
 Gaussian 09:  ES64L-G09RevD.01 24-Apr-2013

 -----------------------------
 # b3lyp 6-31G(2df,p) opt Freq
 -----------------------------

 -----
 titel
 -----
 Symbolic Z-matrix:
 Charge =  0 Multiplicity = 1

 SCF Done:  E(RB3LYP) =  -423.125260380     A.U. after   13 cycles
 Optimization completed.
    -- Stationary point found.
 Normal termination of Gaussian 09 at Tue Jan 28 01:53:21 2020.

 ----------------------------------------------------------------------
 #N Geom=AllCheck Guess=TCheck SCRF=Check GenChk RB3LYP/6-31G(2df,p) Fr
 eq
 ----------------------------------------------------------------------

 Structure from the checkpoint file:  "/scratch/puck/g09_93ad436d-a5a8-448b-b344-9666a4804df8/Gau-190755.chk"
 -----
 titel
 -----
 Charge =  0 Multiplicity = 1

                         Standard orientation:
 ---------------------------------------------------------------------
 Center     Atomic      Atomic             Coordinates (Angstroms)
 Number     Number       Type             X           Y           Z
 ---------------------------------------------------------------------
      1          6           0       -2.816052   -0.537249   -0.835378
      2          6           0       -1.745931   -0.705984    0.211132
      3          8           0       -1.636593    0.342671    1.198302
      4          6           0       -0.562220    0.155280    0.293824
      5          6           0       -0.065413    1.306843   -0.605634
      6          6           0        1.368175    0.999393   -0.142919
      7          6           0        1.725118   -0.426914   -0.428158
      8          8           0        3.034663   -0.860500   -0.205490
      9          6           0        0.843275   -0.144063    0.764900
     10          1           0       -3.806490   -0.729583   -0.409470
     11          1           0       -2.810791    0.477476   -1.241624
     12          1           0       -2.661591   -1.244379   -1.657752
     13          1           0       -1.663647   -1.707941    0.637467
     14          1           0       -0.260953    1.237921   -1.681279
     15          1           0       -0.436614    2.264035   -0.231377
     16          1           0        2.133967    1.738598    0.062759
     17          1           0        1.325302   -0.934883   -1.303277
     18          1           0        3.385520   -0.404387    0.567011
     19          1           0        1.129031   -0.438066    1.768443
 ---------------------------------------------------------------------

 SCF Done:  E(RB3LYP) =  -423.125260380     A.U. after    1 cycles

 The electronic state is 1-A.
 Alpha  occ. eigenvalues --  -19.14881 -19.14417 -10.24342 -10.24178 -10.23266
 Alpha  occ. eigenvalues --  -10.19765 -10.19297 -10.19167 -10.18274  -1.06615
 Alpha  occ. eigenvalues --   -1.03512  -0.88871  -0.74409  -0.71433  -0.64949
 Alpha  occ. eigenvalues --   -0.61624  -0.59664  -0.53293  -0.52020  -0.51023
 Alpha  occ. eigenvalues --   -0.46480  -0.44538  -0.42625  -0.41771  -0.40030
 Alpha  occ. eigenvalues --   -0.38731  -0.37661  -0.36372  -0.35221  -0.34283
 Alpha  occ. eigenvalues --   -0.30463  -0.26356  -0.25762  -0.23926
 Alpha virt. eigenvalues --    0.06990   0.08421   0.10221   0.10677   0.11787
 Alpha virt. eigenvalues --    0.12240   0.13550   0.14676   0.15919   0.16401
 Alpha virt. eigenvalues --    0.17140   0.17676   0.19103   0.20223   0.22249

 Mulliken charges:
               1
     1  C   -0.416409
     2  C   -0.028549
     3  O   -0.301856
     4  C    0.447253
     5  C   -0.335063
     6  C   -0.121086
     7  C    0.152128
     8  O   -0.439502
     9  C   -0.226904
    10  H    0.129860
    11  H    0.126925
    12  H    0.121686
    13  H    0.088655
    14  H    0.102009
    15  H    0.125302
    16  H    0.090159
    17  H    0.103020
    18  H    0.285797
    19  H    0.096575
 Sum of Mulliken charges =   0.00000

 Dipole moment (field-independent basis, Debye):
    X=              0.2274    Y=              0.2792    Z=             -0.4440  Tot=              0.5717
 Quadrupole moment (field-independent basis, Debye-Ang):
   XX=            -53.7516   YY=            -52.9267   ZZ=            -53.8724
   XY=              5.6272   XZ=              7.5566   YZ=             -1.3352

  Exact polarizability:  92.189   3.690  70.315   3.503  -1.334  66.029
 Approx polarizability: 117.677   3.063 107.781  -0.582   0.509 104.226

                      1                      2                      3
                      A                      A                      A
 Frequencies --     91.7992               163.3174               183.7259
 Red. masses --      3.8487                 1.9553                 1.1802
 Frc consts  --      0.0191                 0.0307                 0.0235
 IR Inten    --      2.0297                17.1962                27.6992

                      4                      5                      6
                      A                      A                      A
 Frequencies --    198.0084               213.5955               276.8562
 Red. masses --      1.3593                 2.2096                 2.7692
 Frc consts  --      0.0314                 0.0594                 0.1251
 IR Inten    --     40.6023                 3.2343                 6.3055

                      7                      8                      9
                      A                      A                      A
 Frequencies --    304.4725               407.4855               439.1776
 Red. masses --      3.9449                 4.1460                 2.7983
 Frc consts  --      0.2155                 0.4056                 0.3180
 IR Inten    --      9.9151                 2.0409                 6.8454

                     10                     11                     12
                      A                      A                      A
 Frequencies --    464.7683               505.5366               573.0873
 Red. masses --      3.6446                 3.4300                 3.5977
 Frc consts  --      0.4638                 0.5165                 0.6962
 IR Inten    --      4.1018                 3.0064                 0.3711

                     13                     14                     15
                      A                      A                      A
 Frequencies --    771.6078               791.4369               809.3875
 Red. masses --      2.5889                 3.2150                 1.7536
 Frc consts  --      0.9081                 1.1865                 0.6768
 IR Inten    --     26.3192                 1.8414                 1.8385

                     16                     17                     18
                      A                      A                      A
 Frequencies --    877.9408               901.6649               913.2700
 Red. masses --      2.5692                 2.6345                 2.6985
 Frc consts  --      1.1668                 1.2619                 1.3261
 IR Inten    --     31.7644                16.5626                11.2528

                     19                     20                     21
                      A                      A                      A
 Frequencies --    969.0436               977.2356               991.5440
 Red. masses --      1.4993                 1.2398                 2.2862
 Frc consts  --      0.8295                 0.6976                 1.3243
 IR Inten    --     10.2928                 1.7027                13.8542

                     22                     23                     24
                      A                      A                      A
 Frequencies --   1034.3424              1070.5506              1082.3515
 Red. masses --      1.8485                 2.4485                 1.9062
 Frc consts  --      1.1652                 1.6533                 1.3157
 IR Inten    --     21.7925                20.6912                 5.8019

                     25                     26                     27
                      A                      A                      A
 Frequencies --   1112.0966              1125.5967              1128.2035
 Red. masses --      1.4462                 2.2445                 1.7730
 Frc consts  --      1.0538                 1.6754                 1.3296
 IR Inten    --     11.1985                71.0776                12.9516

                     28                     29                     30
                      A                      A                      A
 Frequencies --   1140.7033              1173.2151              1198.3896
 Red. masses --      1.8717                 1.6728                 1.7448
 Frc consts  --      1.4349                 1.3566                 1.4764
 IR Inten    --     27.6199                15.5272                 3.6229

                     31                     32                     33
                      A                      A                      A
 Frequencies --   1241.9321              1255.2971              1293.0483
 Red. masses --      1.5314                 2.0342                 1.5586
 Frc consts  --      1.3917                 1.8885                 1.5353
 IR Inten    --     20.5158                 3.8747                 1.6029

                     34                     35                     36
                      A                      A                      A
 Frequencies --   1332.3232              1358.7401              1409.9266
 Red. masses --      1.6177                 1.4318                 1.2695
 Frc consts  --      1.6918                 1.5575                 1.4868
 IR Inten    --     15.0768                 7.6639                 4.1913

                     37                     38                     39
                      A                      A                      A
 Frequencies --   1448.3552              1469.0376              1480.7215
 Red. masses --      1.6439                 1.2624                 1.1060
 Frc consts  --      2.0317                 1.6051                 1.4287
 IR Inten    --     90.5530                16.3864                 2.1125

                     40                     41                     42
                      A                      A                      A
 Frequencies --   1491.8296              1523.9085              3035.5025
 Red. masses --      1.0900                 2.7842                 1.0362
 Frc consts  --      1.4292                 3.8095                 5.6252
 IR Inten    --      6.1989                18.9259                16.3985

                     43                     44                     45
                      A                      A                      A
 Frequencies --   3043.4514              3086.2112              3098.8240
 Red. masses --      1.0614                 1.0870                 1.1007
 Frc consts  --      5.7922                 6.1000                 6.2274
 IR Inten    --     35.9654                18.8594                17.2040

                     46                     47                     48
                      A                      A                      A
 Frequencies --   3109.2328              3124.3139              3131.5739
 Red. masses --      1.1033                 1.1008                 1.0896
 Frc consts  --      6.2841                 6.3309                 6.2957
 IR Inten    --     11.5300                26.6102                20.7345

                     49                     50                     51
                      A                      A                      A
 Frequencies --   3173.1649              3184.5178              3810.6493
 Red. masses --      1.0893                 1.0963                 1.0658
 Frc consts  --      6.4624                 6.5503                 9.1182
 IR Inten    --     13.1303                13.0419                22.1046

 - Thermochemistry -
 -------------------
 Temperature   298.150 Kelvin.  Pressure   1.00000 Atm.
 Atom     1 has atomic number  6 and mass  12.00000

 Molecular mass:   126.06808 amu.
 Principal axes and moments of inertia in atomic units:
                           1         2         3
     Eigenvalues --   480.427831802.075121854.73084
           X            0.99940   0.02120   0.02747
           Y           -0.01851   0.99532  -0.09486
           Z           -0.02936   0.09430   0.99511
 This molecule is an asymmetric top.
 Rotational symmetry number  1.
 Warning -- assumption of classical behavior for rotation
           may cause significant error
 Rotational temperatures (Kelvin)      0.18028     0.04806     0.04670
 Rotational constants (GHZ):           3.75653     1.00148     0.97305
 Zero-point vibrational energy     412669.6 (Joules/Mol)
                                   98.63040 (Kcal/Mol)
 Warning -- explicit consideration of  12 degrees of freedom as
           vibrations may cause significant error
 Vibrational temperatures:    132.08   234.98   264.34   284.89   307.32
          (Kelvin)            398.33   438.07   586.28   631.88   668.70
                              727.35   824.54  1110.17  1138.70  1164.53
                             1263.16  1297.29  1313.99  1394.24  1406.02
                             1426.61  1488.19  1540.28  1557.26  1600.06
                             1619.48  1623.23  1641.22  1687.99  1724.21
                             1786.86  1806.09  1860.41  1916.91  1954.92
                             2028.57  2083.86  2113.61  2130.43  2146.41
                             2192.56  4367.41  4378.84  4440.36  4458.51
                             4473.49  4495.19  4505.63  4565.47  4581.81
                             5482.67

 Zero-point correction=                           0.157178 (Hartree/Particle)
 Thermal correction to Energy=                    0.165989
 Thermal correction to Enthalpy=                  0.166933
 Thermal correction to Gibbs Free Energy=         0.123890
 Sum of electronic and zero-point Energies=           -422.968083
 Sum of electronic and thermal Energies=              -422.959271
 Sum of electronic and thermal Enthalpies=            -422.958327
 Sum of electronic and thermal Free Energies=         -423.001370

                     E (Thermal)             CV                S
                      KCal/Mol        Cal/Mol-Kelvin    Cal/Mol-Kelvin
 Total                  104.160             33.579             90.592
 Electronic               0.000              0.000              0.000
 Translational            0.889              2.981             40.409
 Rotational               0.889              2.981             28.864
 Vibrational            102.382             27.618             21.319
 Vibration     1          0.602              1.955              3.621
 Vibration     2          0.623              1.887              2.511
 Vibration     3          0.631              1.862              2.290
 Vibration     4          0.637              1.843              2.152
 Vibration     5          0.644              1.820              2.013
 Vibration     6          0.678              1.716              1.553
 Vibration     7          0.695              1.665              1.392
 Vibration     8          0.772              1.454              0.936
 Vibration     9          0.799              1.385              0.829
 Vibration    10          0.822              1.328              0.752
 Vibration    11          0.861              1.238              0.644
 Vibration    12          0.929              1.089              0.498

 Normal termination of Gaussian 09 at Tue Jan 28 02:39:47 2020.
