 Gaussian 09, Revision D.01,
 Gaussian 09:  ES64L-G09RevD.01 24-Apr-2013

 -----------------------------
 # b3lyp 6-31G(2df,p) opt Freq
 -----------------------------

 -----
 titel
 -----
 Symbolic Z-matrix:
 Charge =  0 Multiplicity = 1

 SCF Done:  E(RB3LYP) =  -423.156381505     A.U. after   13 cycles
 Optimization completed.
    -- Stationary point found.
 Normal termination of Gaussian 09 at Tue Jan 28 03:02:58 2020.

 ----------------------------------------------------------------------
 #N Geom=AllCheck Guess=TCheck SCRF=Check GenChk RB3LYP/6-31G(2df,p) Fr
 eq
 ----------------------------------------------------------------------

 Structure from the checkpoint file:  "/scratch/puck/g09_628667b4-22b3-469d-9936-c056cad9ea79/Gau-65491.chk"
 -----
 titel
 -----
 Charge =  0 Multiplicity = 1

                         Standard orientation:
 ---------------------------------------------------------------------
 Center     Atomic      Atomic             Coordinates (Angstroms)
 Number     Number       Type             X           Y           Z
 ---------------------------------------------------------------------
      1          6           0       -2.052204   -1.415670    0.336911
      2          6           0       -1.381318   -0.305393   -0.469913
      3          8           0       -0.056318   -0.674734   -0.887123
      4          6           0        0.900537   -0.085663   -0.032962
      5          6           0        1.860290   -0.966438    0.728845
      6          6           0        2.327527   -0.151209   -0.465146
      7          6           0        0.243711    1.088725    0.613537
      8          8           0       -0.411886    1.955117   -0.325140
      9          6           0       -1.190255    0.961760    0.345647
     10          1           0       -1.516021   -1.600336    1.273244
     11          1           0       -3.087143   -1.149457    0.578054
     12          1           0       -2.062119   -2.342623   -0.241831
     13          1           0       -1.947116   -0.108776   -1.388178
     14          1           0        2.178226   -0.667645    1.722967
     15          1           0        1.748231   -2.035100    0.585832
     16          1           0        2.961038    0.712340   -0.294846
     17          1           0        2.526372   -0.686868   -1.386368
     18          1           0        0.665902    1.558376    1.497061
     19          1           0       -1.971469    1.320353    1.010664
 ---------------------------------------------------------------------

 SCF Done:  E(RB3LYP) =  -423.156381505     A.U. after    1 cycles

 The electronic state is 1-A.
 Alpha  occ. eigenvalues --  -19.15136 -19.14121 -10.24215 -10.24060 -10.23827
 Alpha  occ. eigenvalues --  -10.23799 -10.18653 -10.18613 -10.18112  -1.08529
 Alpha  occ. eigenvalues --   -1.02655  -0.85493  -0.76519  -0.69875  -0.65938
 Alpha  occ. eigenvalues --   -0.60682  -0.59809  -0.56386  -0.52267  -0.48359
 Alpha  occ. eigenvalues --   -0.47902  -0.46297  -0.42203  -0.41922  -0.39894
 Alpha  occ. eigenvalues --   -0.38557  -0.37052  -0.36984  -0.34864  -0.33156
 Alpha  occ. eigenvalues --   -0.31041  -0.30045  -0.25989  -0.23241
 Alpha virt. eigenvalues --    0.08704   0.09299   0.09640   0.11270   0.12313
 Alpha virt. eigenvalues --    0.12855   0.14073   0.15347   0.15802   0.16626
 Alpha virt. eigenvalues --    0.17565   0.18880   0.19992   0.20767   0.22448

 Mulliken charges:
               1
     1  C   -0.403312
     2  C    0.076929
     3  O   -0.311424
     4  C    0.455203
     5  C   -0.337002
     6  C   -0.329811
     7  C   -0.075861
     8  O   -0.258911
     9  C    0.029688
    10  H    0.121848
    11  H    0.115605
    12  H    0.130841
    13  H    0.095089
    14  H    0.110780
    15  H    0.123326
    16  H    0.120263
    17  H    0.130052
    18  H    0.104970
    19  H    0.101727
 Sum of Mulliken charges =   0.00000

 Dipole moment (field-independent basis, Debye):
    X=             -0.4431    Y=             -0.8116    Z=              2.0021  Tot=              2.2053
 Quadrupole moment (field-independent basis, Debye-Ang):
   XX=            -48.2731   YY=            -56.5430   ZZ=            -52.9609
   XY=              1.1966   XZ=              0.2031   YZ=              2.3190

  Exact polarizability:  90.020   0.396  70.967   1.085   0.339  64.978
 Approx polarizability: 119.725  -0.569 103.323   3.025  -2.306 101.410

                      1                      2                      3
                      A                      A                      A
 Frequencies --     85.0367               163.7128               225.6892
 Red. masses --      3.5871                 2.7246                 1.0607
 Frc consts  --      0.0153                 0.0430                 0.0318
 IR Inten    --      1.4668                 1.1109                 0.2002

                      4                      5                      6
                      A                      A                      A
 Frequencies --    270.2199               283.1672               309.9865
 Red. masses --      2.8779                 2.4791                 2.8321
 Frc consts  --      0.1238                 0.1171                 0.1603
 IR Inten    --      2.0738                 1.1184                 0.3814

                      7                      8                      9
                      A                      A                      A
 Frequencies --    405.0490               464.0537               514.2731
 Red. masses --      4.8712                 3.7930                 4.4396
 Frc consts  --      0.4709                 0.4813                 0.6918
 IR Inten    --      1.8790                 4.1937                 7.5131

                     10                     11                     12
                      A                      A                      A
 Frequencies --    577.5343               723.3268               763.4963
 Red. masses --      3.9758                 2.9773                 1.0648
 Frc consts  --      0.7813                 0.9178                 0.3657
 IR Inten    --      3.3387                 1.5410                 1.5796

                     13                     14                     15
                      A                      A                      A
 Frequencies --    818.2189               846.3426               854.0851
 Red. masses --      3.6481                 3.0496                 2.3729
 Frc consts  --      1.4390                 1.2870                 1.0198
 IR Inten    --     15.9801                20.2555                 6.5791

                     16                     17                     18
                      A                      A                      A
 Frequencies --    869.2626               892.1475               925.0591
 Red. masses --      2.4657                 1.8577                 1.8835
 Frc consts  --      1.0977                 0.8711                 0.9496
 IR Inten    --      4.1284                20.3933                10.4575

                     19                     20                     21
                      A                      A                      A
 Frequencies --    940.7066               964.7237               994.0273
 Red. masses --      2.0457                 3.1910                 2.4464
 Frc consts  --      1.0666                 1.7498                 1.4242
 IR Inten    --     25.6283                14.9639                 5.9588

                     22                     23                     24
                      A                      A                      A
 Frequencies --   1008.3043              1055.3968              1068.3636
 Red. masses --      1.5872                 1.5435                 1.5163
 Frc consts  --      0.9508                 1.0129                 1.0197
 IR Inten    --     15.0006                 7.7928                 5.3769

                     25                     26                     27
                      A                      A                      A
 Frequencies --   1074.7021              1091.4768              1129.9133
 Red. masses --      1.4979                 2.9180                 2.2202
 Frc consts  --      1.0193                 2.0481                 1.6701
 IR Inten    --      5.0424                62.4404                21.3261

                     28                     29                     30
                      A                      A                      A
 Frequencies --   1139.7686              1189.2921              1238.8697
 Red. masses --      1.7812                 1.2729                 1.5620
 Frc consts  --      1.3633                 1.0608                 1.4125
 IR Inten    --     19.7936                 0.0256                23.6764

                     31                     32                     33
                      A                      A                      A
 Frequencies --   1255.7503              1279.5636              1348.4993
 Red. masses --      1.5132                 1.8149                 1.7538
 Frc consts  --      1.4059                 1.7507                 1.8791
 IR Inten    --     10.3561                43.1770                11.1303

                     34                     35                     36
                      A                      A                      A
 Frequencies --   1353.8708              1383.8518              1402.0648
 Red. masses --      1.6936                 1.7995                 1.2634
 Frc consts  --      1.8290                 2.0304                 1.4633
 IR Inten    --      6.6256                 1.5231                 7.8397

                     37                     38                     39
                      A                      A                      A
 Frequencies --   1441.5431              1451.2087              1488.4668
 Red. masses --      2.4233                 1.1028                 1.0579
 Frc consts  --      2.9669                 1.3684                 1.3809
 IR Inten    --      9.1182                 1.1241                 2.5024

                     40                     41                     42
                      A                      A                      A
 Frequencies --   1495.6692              1501.1405              3036.2996
 Red. masses --      1.0590                 1.7787                 1.0357
 Frc consts  --      1.3958                 2.3616                 5.6259
 IR Inten    --      0.8276                 9.5539                14.7908

                     43                     44                     45
                      A                      A                      A
 Frequencies --   3042.2415              3106.5774              3123.9551
 Red. masses --      1.0853                 1.1009                 1.1016
 Frc consts  --      5.9183                 6.2596                 6.3341
 IR Inten    --     29.8349                27.4311                16.9505

                     46                     47                     48
                      A                      A                      A
 Frequencies --   3127.3248              3137.9065              3149.5837
 Red. masses --      1.0539                 1.0555                 1.0882
 Frc consts  --      6.0729                 6.1235                 6.3598
 IR Inten    --     11.5516                 7.5635                18.0651

                     49                     50                     51
                      A                      A                      A
 Frequencies --   3164.9740              3216.4120              3231.6242
 Red. masses --      1.0959                 1.1177                 1.1156
 Frc consts  --      6.4679                 6.8126                 6.8645
 IR Inten    --     18.0973                 1.0974                 8.6501

 - Thermochemistry -
 -------------------
 Temperature   298.150 Kelvin.  Pressure   1.00000 Atm.
 Atom     1 has atomic number  6 and mass  12.00000

 Molecular mass:   126.06808 amu.
 Principal axes and moments of inertia in atomic units:
                           1         2         3
     Eigenvalues --   696.724201084.437331454.37982
           X            0.99901   0.04417  -0.00526
           Y           -0.04418   0.99902  -0.00071
           Z            0.00522   0.00095   0.99999
 This molecule is an asymmetric top.
 Rotational symmetry number  1.
 Warning -- assumption of classical behavior for rotation
           may cause significant error
 Rotational temperatures (Kelvin)      0.12432     0.07987     0.05955
 Rotational constants (GHZ):           2.59032     1.66422     1.24090
 Zero-point vibrational energy     416448.4 (Joules/Mol)
                                   99.53355 (Kcal/Mol)
 Warning -- explicit consideration of  10 degrees of freedom as
           vibrations may cause significant error
 Vibrational temperatures:    122.35   235.55   324.72   388.79   407.41
          (Kelvin)            446.00   582.77   667.67   739.92   830.94
                             1040.70  1098.50  1177.23  1217.70  1228.84
                             1250.67  1283.60  1330.95  1353.47  1388.02
                             1430.18  1450.72  1518.48  1537.14  1546.25
                             1570.39  1625.69  1639.87  1711.12  1782.45
                             1806.74  1841.00  1940.19  1947.92  1991.05
                             2017.26  2074.06  2087.96  2141.57  2151.93
                             2159.80  4368.55  4377.10  4469.67  4494.67
                             4499.52  4514.74  4531.54  4553.69  4627.69
                             4649.58

 Zero-point correction=                           0.158617 (Hartree/Particle)
 Thermal correction to Energy=                    0.166603
 Thermal correction to Enthalpy=                  0.167547
 Thermal correction to Gibbs Free Energy=         0.126240
 Sum of electronic and zero-point Energies=           -422.997765
 Sum of electronic and thermal Energies=              -422.989779
 Sum of electronic and thermal Enthalpies=            -422.988835
 Sum of electronic and thermal Free Energies=         -423.030142

                     E (Thermal)             CV                S
                      KCal/Mol        Cal/Mol-Kelvin    Cal/Mol-Kelvin
 Total                  104.545             31.505             86.938
 Electronic               0.000              0.000              0.000
 Translational            0.889              2.981             40.409
 Rotational               0.889              2.981             28.487
 Vibrational            102.767             25.543             18.043
 Vibration     1          0.601              1.960              3.771
 Vibration     2          0.623              1.887              2.506
 Vibration     3          0.650              1.802              1.913
 Vibration     4          0.674              1.728              1.595
 Vibration     5          0.682              1.705              1.514
 Vibration     6          0.699              1.655              1.362
 Vibration     7          0.770              1.459              0.944
 Vibration     8          0.822              1.330              0.754
 Vibration     9          0.869              1.218              0.623
 Vibration    10          0.934              1.080              0.490

 Optimization completed.
    -- Stationary point found.
 Normal termination of Gaussian 09 at Tue Jan 28 03:56:22 2020.
