 Gaussian 09, Revision D.01,
 Gaussian 09:  ES64L-G09RevD.01 24-Apr-2013

 -----------------------------
 # b3lyp 6-31G(2df,p) opt Freq
 -----------------------------

 -----
 titel
 -----
 Symbolic Z-matrix:
 Charge =  0 Multiplicity = 1

 SCF Done:  E(RB3LYP) =  -423.148793820     A.U. after   14 cycles
 Optimization completed.
    -- Stationary point found.
 Normal termination of Gaussian 09 at Mon Jan 27 17:11:15 2020.

 ----------------------------------------------------------------------
 #N Geom=AllCheck Guess=TCheck SCRF=Check GenChk RB3LYP/6-31G(2df,p) Fr
 eq
 ----------------------------------------------------------------------

 Structure from the checkpoint file:  "/scratch/puck/g09_f4d6ab6b-8ab5-471b-a9a1-6f431e44c487/Gau-49989.chk"
 -----
 titel
 -----
 Charge =  0 Multiplicity = 1

                         Standard orientation:
 ---------------------------------------------------------------------
 Center     Atomic      Atomic             Coordinates (Angstroms)
 Number     Number       Type             X           Y           Z
 ---------------------------------------------------------------------
      1          8           0       -0.269403    1.897017    0.119543
      2          6           0       -0.782953    0.629063    0.047867
      3          6           0       -2.062413    0.221941   -0.735790
      4          6           0       -1.519599   -1.088146   -0.097604
      5          6           0       -1.310400   -0.279349    1.214101
      6          6           0       -0.101494   -0.639270   -0.573325
      7          6           0        1.160256   -1.260291    0.019503
      8          6           0        2.375868   -0.366913    0.010360
      9          8           0        2.359703    0.839416   -0.084444
     10          1           0        0.696500    1.809256    0.082766
     11          1           0       -3.010355    0.597153   -0.343740
     12          1           0       -2.013281    0.297311   -1.825621
     13          1           0       -1.947174   -2.084070   -0.190810
     14          1           0       -2.217592    0.065036    1.716263
     15          1           0       -0.587720   -0.654228    1.942212
     16          1           0        0.001299   -0.576917   -1.662829
     17          1           0        1.030153   -1.563210    1.069151
     18          1           0        1.422933   -2.189222   -0.504949
     19          1           0        3.347257   -0.894795    0.126105
 ---------------------------------------------------------------------

 SCF Done:  E(RB3LYP) =  -423.148793820     A.U. after    1 cycles

 The electronic state is 1-A.
 Alpha  occ. eigenvalues --  -19.16434 -19.12252 -10.29270 -10.24313 -10.20811
 Alpha  occ. eigenvalues --  -10.20288 -10.19921 -10.18050 -10.18038  -1.06908
 Alpha  occ. eigenvalues --   -1.01613  -0.90466  -0.78113  -0.66859  -0.65927
 Alpha  occ. eigenvalues --   -0.61132  -0.58333  -0.52831  -0.52602  -0.49571
 Alpha  occ. eigenvalues --   -0.48039  -0.46160  -0.43663  -0.42531  -0.39800
 Alpha  occ. eigenvalues --   -0.38396  -0.36589  -0.35319  -0.32957  -0.32443
 Alpha  occ. eigenvalues --   -0.31752  -0.29472  -0.26768  -0.24728
 Alpha virt. eigenvalues --   -0.04043   0.08652   0.10675   0.11272   0.12363
 Alpha virt. eigenvalues --    0.13464   0.15154   0.15590   0.16071   0.17345
 Alpha virt. eigenvalues --    0.17679   0.18102   0.18789   0.21054   0.23478

 Mulliken charges:
               1
     1  O   -0.480590
     2  C    0.408065
     3  C   -0.262473
     4  C   -0.084911
     5  C   -0.291032
     6  C   -0.011303
     7  C   -0.362149
     8  C    0.165197
     9  O   -0.246431
    10  H    0.298248
    11  H    0.093703
    12  H    0.088594
    13  H    0.076540
    14  H    0.095671
    15  H    0.081008
    16  H    0.071457
    17  H    0.141128
    18  H    0.122949
    19  H    0.096326
 Sum of Mulliken charges =   0.00000

 Dipole moment (field-independent basis, Debye):
    X=              0.9402    Y=             -3.5768    Z=              0.0312  Tot=              3.6984
 Quadrupole moment (field-independent basis, Debye-Ang):
   XX=            -51.5329   YY=            -57.0125   ZZ=            -52.5005
   XY=             -3.3269   XZ=              0.5203   YZ=             -0.1432

  Exact polarizability:  88.386  -3.422  74.364   0.236  -1.077  65.952
 Approx polarizability: 115.294  -1.632 122.378  -0.807  -2.224 102.018

                      1                      2                      3
                      A                      A                      A
 Frequencies --     55.1858               148.1630               198.8108
 Red. masses --      4.9845                 2.1110                 6.6150
 Frc consts  --      0.0089                 0.0273                 0.1540
 IR Inten    --      0.1129                 0.8083                 7.9904

                      4                      5                      6
                      A                      A                      A
 Frequencies --    247.3732               318.8261               366.6417
 Red. masses --      6.4542                 2.4120                 3.3973
 Frc consts  --      0.2327                 0.1445                 0.2691
 IR Inten    --      4.4274                 3.3216                 7.4750

                      7                      8                      9
                      A                      A                      A
 Frequencies --    416.2356               518.6964               534.4317
 Red. masses --      3.0264                 1.9460                 1.3575
 Frc consts  --      0.3089                 0.3085                 0.2284
 IR Inten    --      6.1400                25.1945                37.4883

                     10                     11                     12
                      A                      A                      A
 Frequencies --    577.2508               633.3379               657.4788
 Red. masses --      1.8247                 2.5538                 2.9594
 Frc consts  --      0.3582                 0.6035                 0.7537
 IR Inten    --      4.3465                 6.8827                 4.0316

                     13                     14                     15
                      A                      A                      A
 Frequencies --    753.9532               785.5989               826.5812
 Red. masses --      2.7590                 3.0278                 1.9360
 Frc consts  --      0.9240                 1.1010                 0.7793
 IR Inten    --      5.9824                 4.0995                 0.9456

                     16                     17                     18
                      A                      A                      A
 Frequencies --    855.6093               913.7671               940.9405
 Red. masses --      3.6115                 2.4546                 1.7168
 Frc consts  --      1.5577                 1.2076                 0.8956
 IR Inten    --      1.6945                 2.4015                11.9970

                     19                     20                     21
                      A                      A                      A
 Frequencies --    947.0017               972.7110              1001.1340
 Red. masses --      1.6000                 2.1476                 1.3452
 Frc consts  --      0.8454                 1.1972                 0.7944
 IR Inten    --      8.2564                 9.9222                 1.1269

                     22                     23                     24
                      A                      A                      A
 Frequencies --   1035.2011              1056.0162              1097.0314
 Red. masses --      1.5331                 1.5488                 1.8312
 Frc consts  --      0.9680                 1.0176                 1.2984
 IR Inten    --      9.7173                 2.9767                 0.9569

                     25                     26                     27
                      A                      A                      A
 Frequencies --   1120.2540              1132.6308              1140.6626
 Red. masses --      1.4112                 1.5261                 2.1727
 Frc consts  --      1.0434                 1.1535                 1.6656
 IR Inten    --      3.3949                 0.9248                 5.4034

                     28                     29                     30
                      A                      A                      A
 Frequencies --   1154.0722              1204.7784              1213.9689
 Red. masses --      1.6376                 1.6902                 1.5455
 Frc consts  --      1.2850                 1.4454                 1.3419
 IR Inten    --      5.1295                 2.3660                 1.1354

                     31                     32                     33
                      A                      A                      A
 Frequencies --   1224.8816              1241.4051              1321.1777
 Red. masses --      1.6516                 1.5203                 2.5848
 Frc consts  --      1.4600                 1.3804                 2.6583
 IR Inten    --      5.5285                12.0128               233.9330

                     34                     35                     36
                      A                      A                      A
 Frequencies --   1349.1705              1412.9073              1424.3816
 Red. masses --      1.8283                 1.3252                 1.4437
 Frc consts  --      1.9608                 1.5587                 1.7257
 IR Inten    --     13.5925                18.8369                37.1316

                     37                     38                     39
                      A                      A                      A
 Frequencies --   1427.6845              1444.7999              1502.5971
 Red. masses --      1.2133                 1.1440                 1.1020
 Frc consts  --      1.4571                 1.4070                 1.4660
 IR Inten    --     33.6838                 7.0174                 1.4045

                     40                     41                     42
                      A                      A                      A
 Frequencies --   1549.5265              1806.1045              2901.2124
 Red. masses --      1.2140                 9.7580                 1.0839
 Frc consts  --      1.7174                18.7541                 5.3752
 IR Inten    --     16.2055               128.6326               137.1054

                     43                     44                     45
                      A                      A                      A
 Frequencies --   3014.2733              3032.9979              3049.1665
 Red. masses --      1.0629                 1.0864                 1.0866
 Frc consts  --      5.6902                 5.8881                 5.9522
 IR Inten    --     20.5789                14.9225                22.7402

                     46                     47                     48
                      A                      A                      A
 Frequencies --   3054.6329              3063.6961              3119.3750
 Red. masses --      1.0601                 1.0553                 1.1108
 Frc consts  --      5.8282                 5.8358                 6.3684
 IR Inten    --     67.5522                23.6497                26.2457

                     49                     50                     51
                      A                      A                      A
 Frequencies --   3124.1716              3139.6910              3678.8493
 Red. masses --      1.1097                 1.0929                 1.0654
 Frc consts  --      6.3813                 6.3476                 8.4951
 IR Inten    --     55.1865                38.0157               263.5096

 - Thermochemistry -
 -------------------
 Temperature   298.150 Kelvin.  Pressure   1.00000 Atm.
 Atom     1 has atomic number  8 and mass  15.99491

 Molecular mass:   126.06808 amu.
 Principal axes and moments of inertia in atomic units:
                           1         2         3
     Eigenvalues --   623.855521290.281861606.27588
           X            0.99972  -0.02343   0.00375
           Y            0.02348   0.99965  -0.01245
           Z           -0.00345   0.01253   0.99992
 This molecule is an asymmetric top.
 Rotational symmetry number  1.
 Warning -- assumption of classical behavior for rotation
           may cause significant error
 Rotational temperatures (Kelvin)      0.13884     0.06713     0.05392
 Rotational constants (GHZ):           2.89288     1.39872     1.12356
 Zero-point vibrational energy     416940.7 (Joules/Mol)
                                   99.65123 (Kcal/Mol)
 Warning -- explicit consideration of  10 degrees of freedom as
           vibrations may cause significant error
 Vibrational temperatures:     79.40   213.17   286.04   355.91   458.72
          (Kelvin)            527.52   598.87   746.29   768.93   830.53
                              911.23   945.96  1084.77  1130.30  1189.26
                             1231.03  1314.71  1353.80  1362.52  1399.51
                             1440.41  1489.42  1519.37  1578.38  1611.79
                             1629.60  1641.16  1660.45  1733.41  1746.63
                             1762.33  1786.10  1900.88  1941.15  2032.86
                             2049.36  2054.12  2078.74  2161.90  2229.42
                             2598.58  4174.19  4336.86  4363.80  4387.07
                             4394.93  4407.97  4488.08  4494.98  4517.31
                             5293.04

 Zero-point correction=                           0.158804 (Hartree/Particle)
 Thermal correction to Energy=                    0.166873
 Thermal correction to Enthalpy=                  0.167817
 Thermal correction to Gibbs Free Energy=         0.125946
 Sum of electronic and zero-point Energies=           -422.989989
 Sum of electronic and thermal Energies=              -422.981921
 Sum of electronic and thermal Enthalpies=            -422.980976
 Sum of electronic and thermal Free Energies=         -423.022848

                     E (Thermal)             CV                S
                      KCal/Mol        Cal/Mol-Kelvin    Cal/Mol-Kelvin
 Total                  104.715             31.650             88.127
 Electronic               0.000              0.000              0.000
 Translational            0.889              2.981             40.409
 Rotational               0.889              2.981             28.649
 Vibrational            102.937             25.688             19.069
 Vibration     1          0.596              1.976              4.622
 Vibration     2          0.618              1.905              2.696
 Vibration     3          0.637              1.842              2.144
 Vibration     4          0.661              1.767              1.749
 Vibration     5          0.705              1.638              1.316
 Vibration     6          0.740              1.541              1.094
 Vibration     7          0.779              1.435              0.905
 Vibration     8          0.874              1.209              0.613
 Vibration     9          0.889              1.174              0.577
 Vibration    10          0.934              1.080              0.490

 Optimization completed.
    -- Stationary point found.
 Normal termination of Gaussian 09 at Mon Jan 27 17:53:56 2020.
