 Gaussian 09, Revision D.01,
 Gaussian 09:  ES64L-G09RevD.01 24-Apr-2013

 -----------------------------
 # b3lyp 6-31G(2df,p) opt Freq
 -----------------------------

 -----
 titel
 -----
 Symbolic Z-matrix:
 Charge =  0 Multiplicity = 1

 SCF Done:  E(RB3LYP) =  -423.199844992     A.U. after   14 cycles
 Optimization completed.
    -- Stationary point found.
 Normal termination of Gaussian 09 at Mon Jan 27 17:28:59 2020.

 ----------------------------------------------------------------------
 #N Geom=AllCheck Guess=TCheck SCRF=Check GenChk RB3LYP/6-31G(2df,p) Fr
 eq
 ----------------------------------------------------------------------

 Structure from the checkpoint file:  "/scratch/puck/g09_0ad7a963-54d6-4f3b-b301-f0587e527dfe/Gau-1794.chk"
 -----
 titel
 -----
 Charge =  0 Multiplicity = 1

                         Standard orientation:
 ---------------------------------------------------------------------
 Center     Atomic      Atomic             Coordinates (Angstroms)
 Number     Number       Type             X           Y           Z
 ---------------------------------------------------------------------
      1          6           0       -2.814421   -0.620977   -0.384342
      2          6           0       -1.446213   -0.113602   -0.023327
      3          6           0       -1.145579    1.376545    0.001543
      4          6           0        0.387607    1.462985    0.176500
      5          6           0        0.958585    0.157466   -0.450960
      6          6           0        2.222223   -0.300050    0.243307
      7          8           0        3.293338   -0.435669   -0.290364
      8          6           0       -0.189583   -0.831989   -0.286288
      9          8           0       -0.762442   -0.822598    1.030454
     10          1           0       -3.558539   -0.271765    0.339757
     11          1           0       -3.114691   -0.259430   -1.373448
     12          1           0       -2.832537   -1.713421   -0.388806
     13          1           0       -1.462685    1.816878   -0.951573
     14          1           0       -1.684995    1.897834    0.798780
     15          1           0        0.820307    2.353462   -0.283480
     16          1           0        0.634853    1.490165    1.241256
     17          1           0        1.182740    0.281516   -1.515843
     18          1           0        2.084848   -0.508463    1.328787
     19          1           0       -0.152182   -1.802912   -0.774757
 ---------------------------------------------------------------------

 SCF Done:  E(RB3LYP) =  -423.199844992     A.U. after    1 cycles

 The electronic state is 1-A.
 Alpha  occ. eigenvalues --  -19.15469 -19.13742 -10.26782 -10.24804 -10.24330
 Alpha  occ. eigenvalues --  -10.20245 -10.19873 -10.19616 -10.19131  -1.07755
 Alpha  occ. eigenvalues --   -1.04395  -0.82518  -0.76893  -0.72345  -0.66323
 Alpha  occ. eigenvalues --   -0.61640  -0.56699  -0.56348  -0.51806  -0.47521
 Alpha  occ. eigenvalues --   -0.46121  -0.44868  -0.43691  -0.41777  -0.40612
 Alpha  occ. eigenvalues --   -0.40412  -0.38479  -0.36637  -0.35895  -0.35370
 Alpha  occ. eigenvalues --   -0.34697  -0.29955  -0.27212  -0.24446
 Alpha virt. eigenvalues --   -0.02217   0.08385   0.09547   0.10330   0.11329
 Alpha virt. eigenvalues --    0.12473   0.13082   0.14702   0.15399   0.16002
 Alpha virt. eigenvalues --    0.17145   0.18346   0.19134   0.19297   0.20444

 Mulliken charges:
               1
     1  C   -0.485086
     2  C    0.419576
     3  C   -0.279731
     4  C   -0.250699
     5  C   -0.089731
     6  C    0.151913
     7  O   -0.252087
     8  C   -0.045690
     9  O   -0.297053
    10  H    0.131122
    11  H    0.124525
    12  H    0.133260
    13  H    0.107180
    14  H    0.112024
    15  H    0.114767
    16  H    0.122519
    17  H    0.092674
    18  H    0.089477
    19  H    0.101038
 Sum of Mulliken charges =   0.00000

 Dipole moment (field-independent basis, Debye):
    X=             -3.0417    Y=              1.1745    Z=             -0.9143  Tot=              3.3864
 Quadrupole moment (field-independent basis, Debye-Ang):
   XX=            -62.4486   YY=            -51.3488   ZZ=            -53.7869
   XY=              1.1696   XZ=              3.5843   YZ=              1.6279

  Exact polarizability:  94.886  -3.324  69.584  -1.532   0.663  64.350
 Approx polarizability: 126.890  -8.398 100.461  -8.065  -1.155 106.692

                      1                      2                      3
                      A                      A                      A
 Frequencies --     69.1205                96.0630               181.1365
 Red. masses --      5.0124                 3.9758                 1.2119
 Frc consts  --      0.0141                 0.0216                 0.0234
 IR Inten    --      5.3571                 2.1199                 0.3612

                      4                      5                      6
                      A                      A                      A
 Frequencies --    197.7574               240.6395               336.3446
 Red. masses --      1.6335                 2.4300                 2.6379
 Frc consts  --      0.0376                 0.0829                 0.1758
 IR Inten    --      0.9279                 2.6850                 2.0334

                      7                      8                      9
                      A                      A                      A
 Frequencies --    350.2552               382.6431               431.0881
 Red. masses --      2.4328                 3.3715                 4.2341
 Frc consts  --      0.1758                 0.2908                 0.4636
 IR Inten    --      4.4646                 6.3050                 5.7628

                     10                     11                     12
                      A                      A                      A
 Frequencies --    498.8995               579.9927               692.3628
 Red. masses --      4.0062                 3.7019                 3.4545
 Frc consts  --      0.5875                 0.7337                 0.9757
 IR Inten    --      5.9458                 1.4041                18.5877

                     13                     14                     15
                      A                      A                      A
 Frequencies --    701.4290               843.9038               850.2372
 Red. masses --      2.3543                 2.7798                 2.8803
 Frc consts  --      0.6825                 1.1664                 1.2268
 IR Inten    --      1.8988                 6.0283                12.6371

                     16                     17                     18
                      A                      A                      A
 Frequencies --    892.8880               915.7067               937.0759
 Red. masses --      2.2745                 2.1281                 2.3866
 Frc consts  --      1.0684                 1.0514                 1.2348
 IR Inten    --      0.8651                 6.8983                 4.4812

                     19                     20                     21
                      A                      A                      A
 Frequencies --    990.1439              1006.6692              1020.4758
 Red. masses --      2.2828                 1.9993                 1.6692
 Frc consts  --      1.3186                 1.1937                 1.0242
 IR Inten    --      5.0539                 5.4465                 4.8044

                     22                     23                     24
                      A                      A                      A
 Frequencies --   1030.1619              1078.7009              1110.3935
 Red. masses --      1.7325                 1.6030                 1.9179
 Frc consts  --      1.0833                 1.0990                 1.3932
 IR Inten    --     14.7260                10.0100                10.3006

                     25                     26                     27
                      A                      A                      A
 Frequencies --   1138.8693              1188.1242              1218.3772
 Red. masses --      2.7484                 1.5206                 1.3662
 Frc consts  --      2.1003                 1.2647                 1.1949
 IR Inten    --     31.7604                 3.3983                 1.3339

                     28                     29                     30
                      A                      A                      A
 Frequencies --   1240.6094              1274.3680              1297.0009
 Red. masses --      1.8576                 1.3784                 1.3186
 Frc consts  --      1.6845                 1.3189                 1.3069
 IR Inten    --      7.5101                 0.9338                 8.8427

                     31                     32                     33
                      A                      A                      A
 Frequencies --   1304.5128              1338.2355              1353.7921
 Red. masses --      1.5003                 1.8571                 1.3685
 Frc consts  --      1.5043                 1.9595                 1.4778
 IR Inten    --      2.1789                 8.2921                 4.9956

                     34                     35                     36
                      A                      A                      A
 Frequencies --   1410.0349              1421.6703              1448.7577
 Red. masses --      1.2841                 1.2087                 2.4506
 Frc consts  --      1.5042                 1.4394                 3.0304
 IR Inten    --      3.7389                 3.1197                10.6832

                     37                     38                     39
                      A                      A                      A
 Frequencies --   1478.2944              1486.3156              1493.5285
 Red. masses --      1.0820                 1.1060                 1.1015
 Frc consts  --      1.3931                 1.4396                 1.4476
 IR Inten    --      2.0188                 5.8017                 2.3541

                     40                     41                     42
                      A                      A                      A
 Frequencies --   1499.3354              1829.6356              2878.5370
 Red. masses --      1.2173                10.1668                 1.0826
 Frc consts  --      1.6124                20.0523                 5.2850
 IR Inten    --      2.4455               222.1942                73.8272

                     43                     44                     45
                      A                      A                      A
 Frequencies --   3034.5308              3039.4511              3061.3425
 Red. masses --      1.0467                 1.0511                 1.0841
 Frc consts  --      5.6789                 5.7212                 5.9861
 IR Inten    --      5.9599                43.8838                10.6162

                     46                     47                     48
                      A                      A                      A
 Frequencies --   3066.9543              3084.5017              3098.8594
 Red. masses --      1.0669                 1.0958                 1.1004
 Frc consts  --      5.9126                 6.1427                 6.2262
 IR Inten    --     12.3742                19.1728                19.0388

                     49                     50                     51
                      A                      A                      A
 Frequencies --   3119.6019              3125.3251              3144.1041
 Red. masses --      1.1037                 1.1011                 1.0909
 Frc consts  --      6.3286                 6.3365                 6.3536
 IR Inten    --     19.9910                14.1155                21.1070

 - Thermochemistry -
 -------------------
 Temperature   298.150 Kelvin.  Pressure   1.00000 Atm.
 Atom     1 has atomic number  6 and mass  12.00000

 Molecular mass:   126.06808 amu.
 Principal axes and moments of inertia in atomic units:
                           1         2         3
     Eigenvalues --   473.898881670.694851898.20664
           X            0.99985   0.00823   0.01507
           Y           -0.00874   0.99938   0.03418
           Z           -0.01478  -0.03431   0.99930
 This molecule is an asymmetric top.
 Rotational symmetry number  1.
 Warning -- assumption of classical behavior for rotation
           may cause significant error
 Rotational temperatures (Kelvin)      0.18277     0.05184     0.04563
 Rotational constants (GHZ):           3.80828     1.08023     0.95076
 Zero-point vibrational energy     415754.7 (Joules/Mol)
                                   99.36776 (Kcal/Mol)
 Warning -- explicit consideration of  11 degrees of freedom as
           vibrations may cause significant error
 Vibrational temperatures:     99.45   138.21   260.61   284.53   346.23
          (Kelvin)            483.92   503.94   550.54   620.24   717.80
                              834.48   996.15  1009.20  1214.19  1223.30
                             1284.67  1317.50  1348.24  1424.59  1448.37
                             1468.24  1482.17  1552.01  1597.61  1638.58
                             1709.44  1752.97  1784.96  1833.53  1866.09
                             1876.90  1925.42  1947.80  2028.72  2045.46
                             2084.44  2126.93  2138.47  2148.85  2157.21
                             2632.43  4141.57  4366.01  4373.09  4404.58
                             4412.66  4437.90  4458.56  4488.41  4496.64
                             4523.66

 Zero-point correction=                           0.158353 (Hartree/Particle)
 Thermal correction to Energy=                    0.166987
 Thermal correction to Enthalpy=                  0.167931
 Thermal correction to Gibbs Free Energy=         0.124763
 Sum of electronic and zero-point Energies=           -423.041492
 Sum of electronic and thermal Energies=              -423.032858
 Sum of electronic and thermal Enthalpies=            -423.031913
 Sum of electronic and thermal Free Energies=         -423.075082

                     E (Thermal)             CV                S
                      KCal/Mol        Cal/Mol-Kelvin    Cal/Mol-Kelvin
 Total                  104.786             32.245             90.856
 Electronic               0.000              0.000              0.000
 Translational            0.889              2.981             40.409
 Rotational               0.889              2.981             28.798
 Vibrational            103.009             26.284             21.649
 Vibration     1          0.598              1.969              4.178
 Vibration     2          0.603              1.952              3.533
 Vibration     3          0.630              1.865              2.317
 Vibration     4          0.637              1.843              2.154
 Vibration     5          0.658              1.778              1.798
 Vibration     6          0.717              1.603              1.229
 Vibration     7          0.727              1.575              1.165
 Vibration     8          0.752              1.507              1.029
 Vibration     9          0.792              1.403              0.855
 Vibration    10          0.854              1.252              0.661
 Vibration    11          0.937              1.075              0.485

 Optimization completed.
    -- Stationary point found.
 Normal termination of Gaussian 09 at Mon Jan 27 18:14:41 2020.
