 Gaussian 09, Revision D.01,
 Gaussian 09:  ES64L-G09RevD.01 24-Apr-2013

 -----------------------------
 # b3lyp 6-31G(2df,p) opt Freq
 -----------------------------

 -----
 titel
 -----
 Symbolic Z-matrix:
 Charge =  0 Multiplicity = 1

 SCF Done:  E(RB3LYP) =  -423.146908329     A.U. after   12 cycles
 Optimization completed.
    -- Stationary point found.
 Normal termination of Gaussian 09 at Mon Jan 27 23:47:12 2020.

 ----------------------------------------------------------------------
 #N Geom=AllCheck Guess=TCheck SCRF=Check GenChk RB3LYP/6-31G(2df,p) Fr
 eq
 ----------------------------------------------------------------------

 Structure from the checkpoint file:  "/scratch/puck/g09_4bd45129-7cf2-464b-bcab-9c1e6bacb05a/Gau-104155.chk"
 -----
 titel
 -----
 Charge =  0 Multiplicity = 1

                         Standard orientation:
 ---------------------------------------------------------------------
 Center     Atomic      Atomic             Coordinates (Angstroms)
 Number     Number       Type             X           Y           Z
 ---------------------------------------------------------------------
      1          8           0       -3.069758    0.024586    0.134855
      2          6           0       -1.711578   -0.008984    0.455831
      3          6           0       -0.799703    0.788481   -0.435537
      4          6           0        0.459181    1.457140    0.118719
      5          6           0        1.713951    0.709342   -0.338046
      6          6           0        2.506029   -0.148592    0.627431
      7          6           0        1.581991   -0.791218   -0.361285
      8          8           0        0.374602   -1.297471    0.149350
      9          6           0       -0.754687   -0.725614   -0.454880
     10          1           0       -3.442170   -0.841625    0.333072
     11          1           0       -1.467875   -0.032123    1.519295
     12          1           0       -1.285303    1.264137   -1.280903
     13          1           0        0.504366    2.496694   -0.215556
     14          1           0        0.416620    1.489924    1.212194
     15          1           0        2.265444    1.165341   -1.153743
     16          1           0        3.575032   -0.251969    0.476233
     17          1           0        2.187608   -0.160268    1.664793
     18          1           0        1.992007   -1.364494   -1.190839
     19          1           0       -1.155582   -1.265855   -1.311580
 ---------------------------------------------------------------------

 SCF Done:  E(RB3LYP) =  -423.146908329     A.U. after    1 cycles

 The electronic state is 1-A.
 Alpha  occ. eigenvalues --  -19.14725 -19.14283 -10.23060 -10.22949 -10.22607
 Alpha  occ. eigenvalues --  -10.18943 -10.18921 -10.18606 -10.18297  -1.04672
 Alpha  occ. eigenvalues --   -1.02540  -0.85194  -0.84166  -0.71329  -0.62815
 Alpha  occ. eigenvalues --   -0.59490  -0.58715  -0.53468  -0.52474  -0.50709
 Alpha  occ. eigenvalues --   -0.48680  -0.45248  -0.45120  -0.40743  -0.39447
 Alpha  occ. eigenvalues --   -0.38296  -0.37514  -0.35469  -0.32642  -0.31789
 Alpha  occ. eigenvalues --   -0.27870  -0.27085  -0.24955  -0.24425
 Alpha virt. eigenvalues --    0.07788   0.08979   0.10094   0.11214   0.12647
 Alpha virt. eigenvalues --    0.13812   0.14526   0.15538   0.15932   0.17229
 Alpha virt. eigenvalues --    0.18322   0.19541   0.20500   0.22856   0.23955

 Mulliken charges:
               1
     1  O   -0.427418
     2  C    0.054549
     3  C   -0.073000
     4  C   -0.272388
     5  C   -0.039838
     6  C   -0.312654
     7  C    0.112132
     8  O   -0.258018
     9  C    0.035111
    10  H    0.287466
    11  H    0.090547
    12  H    0.099429
    13  H    0.109023
    14  H    0.109012
    15  H    0.087711
    16  H    0.110584
    17  H    0.118302
    18  H    0.083489
    19  H    0.085959
 Sum of Mulliken charges =   0.00000

 Dipole moment (field-independent basis, Debye):
    X=              0.6201    Y=             -0.0764    Z=             -0.4195  Tot=              0.7526
 Quadrupole moment (field-independent basis, Debye-Ang):
   XX=            -51.8721   YY=            -53.5969   ZZ=            -51.1759
   XY=              5.1865   XZ=             -1.8865   YZ=              0.2496

  Exact polarizability:  90.357   1.366  68.552   0.902   0.184  64.454
 Approx polarizability: 114.783   1.322 105.769   1.064  -1.819  99.630

                      1                      2                      3
                      A                      A                      A
 Frequencies --    101.9061               239.3182               274.3646
 Red. masses --      3.3740                 2.6401                 2.3257
 Frc consts  --      0.0206                 0.0891                 0.1031
 IR Inten    --      0.2266                21.5160                 4.3262

                      4                      5                      6
                      A                      A                      A
 Frequencies --    288.9468               318.7211               343.5522
 Red. masses --      2.8124                 2.3704                 1.5520
 Frc consts  --      0.1383                 0.1419                 0.1079
 IR Inten    --     11.2727                 6.5926                81.3129

                      7                      8                      9
                      A                      A                      A
 Frequencies --    426.8922               430.8428               507.0566
 Red. masses --      6.0325                 2.7078                 3.2207
 Frc consts  --      0.6477                 0.2961                 0.4879
 IR Inten    --      1.1282                 4.6507                 5.8669

                     10                     11                     12
                      A                      A                      A
 Frequencies --    545.7175               735.8125               797.9982
 Red. masses --      4.8562                 2.3807                 2.2361
 Frc consts  --      0.8521                 0.7594                 0.8390
 IR Inten    --      1.0259                 5.1570                 3.2401

                     13                     14                     15
                      A                      A                      A
 Frequencies --    813.3150               836.0434               867.8861
 Red. masses --      1.5825                 2.4728                 2.5831
 Frc consts  --      0.6167                 1.0184                 1.1464
 IR Inten    --      9.2672                 2.5322                 7.0830

                     16                     17                     18
                      A                      A                      A
 Frequencies --    884.6988               927.3633               931.4981
 Red. masses --      2.2255                 2.2524                 2.5523
 Frc consts  --      1.0263                 1.1413                 1.3048
 IR Inten    --      1.0259                 8.1250                 3.4233

                     19                     20                     21
                      A                      A                      A
 Frequencies --   1002.7125              1036.0512              1038.9335
 Red. masses --      1.9904                 1.6073                 1.8495
 Frc consts  --      1.1791                 1.0165                 1.1762
 IR Inten    --      0.8577                 5.0486                12.7386

                     22                     23                     24
                      A                      A                      A
 Frequencies --   1058.2191              1077.4206              1096.7862
 Red. masses --      1.3443                 2.0382                 1.6427
 Frc consts  --      0.8869                 1.3940                 1.1642
 IR Inten    --      1.5517                10.6011                 0.1281

                     25                     26                     27
                      A                      A                      A
 Frequencies --   1113.6044              1125.6019              1137.7124
 Red. masses --      2.1432                 1.4805                 1.9302
 Frc consts  --      1.5660                 1.1051                 1.4720
 IR Inten    --    103.4589                31.8430                 3.6417

                     28                     29                     30
                      A                      A                      A
 Frequencies --   1168.0281              1171.1431              1204.2216
 Red. masses --      2.0474                 2.6231                 1.6306
 Frc consts  --      1.6458                 2.1197                 1.3932
 IR Inten    --     84.7375                 0.0990                 2.0608

                     31                     32                     33
                      A                      A                      A
 Frequencies --   1227.0547              1249.5493              1290.4954
 Red. masses --      1.8442                 1.3696                 1.2216
 Frc consts  --      1.6360                 1.2599                 1.1987
 IR Inten    --     19.8115                 2.2853                54.0285

                     34                     35                     36
                      A                      A                      A
 Frequencies --   1299.1989              1334.1902              1345.2922
 Red. masses --      1.1882                 1.3506                 1.4776
 Frc consts  --      1.1817                 1.4165                 1.5756
 IR Inten    --      8.8230                 0.8382                24.5838

                     37                     38                     39
                      A                      A                      A
 Frequencies --   1371.0501              1395.4610              1462.3411
 Red. masses --      1.4491                 1.6138                 1.9859
 Frc consts  --      1.6050                 1.8515                 2.5021
 IR Inten    --      0.5066                 8.8648                 9.4480

                     40                     41                     42
                      A                      A                      A
 Frequencies --   1472.8600              1493.4000              3046.1813
 Red. masses --      1.3583                 1.2046                 1.0644
 Frc consts  --      1.7360                 1.5828                 5.8193
 IR Inten    --      6.6415                 9.1909                25.7511

                     43                     44                     45
                      A                      A                      A
 Frequencies --   3088.9122              3092.0332              3108.7942
 Red. masses --      1.0888                 1.0987                 1.0873
 Frc consts  --      6.1207                 6.1890                 6.1915
 IR Inten    --     17.2249                16.9128                26.6050

                     46                     47                     48
                      A                      A                      A
 Frequencies --   3114.7622              3130.2540              3157.4456
 Red. masses --      1.0873                 1.0556                 1.0903
 Frc consts  --      6.2154                 6.0942                 6.4043
 IR Inten    --     50.6556                13.5755                18.4142

                     49                     50                     51
                      A                      A                      A
 Frequencies --   3169.5217              3219.3919              3798.1220
 Red. masses --      1.0894                 1.1166                 1.0661
 Frc consts  --      6.4480                 6.8187                 9.0609
 IR Inten    --     13.0421                11.3988                21.5422

 - Thermochemistry -
 -------------------
 Temperature   298.150 Kelvin.  Pressure   1.00000 Atm.
 Atom     1 has atomic number  8 and mass  15.99491

 Molecular mass:   126.06808 amu.
 Principal axes and moments of inertia in atomic units:
                           1         2         3
     Eigenvalues --   444.931541496.436231735.21312
           X            0.99993   0.01143   0.00160
           Y           -0.01145   0.99985   0.01304
           Z           -0.00146  -0.01305   0.99991
 This molecule is an asymmetric top.
 Rotational symmetry number  1.
 Warning -- assumption of classical behavior for rotation
           may cause significant error
 Rotational temperatures (Kelvin)      0.19467     0.05788     0.04992
 Rotational constants (GHZ):           4.05622     1.20603     1.04007
 Zero-point vibrational energy     420898.2 (Joules/Mol)
                                  100.59708 (Kcal/Mol)
 Warning -- explicit consideration of  10 degrees of freedom as
           vibrations may cause significant error
 Vibrational temperatures:    146.62   344.33   394.75   415.73   458.57
          (Kelvin)            494.29   614.20   619.89   729.54   785.16
                             1058.67  1148.14  1170.18  1202.88  1248.69
                             1272.88  1334.27  1340.22  1442.68  1490.64
                             1494.79  1522.54  1550.17  1578.03  1602.23
                             1619.49  1636.91  1680.53  1685.01  1732.60
                             1765.46  1797.82  1856.73  1869.26  1919.60
                             1935.57  1972.63  2007.75  2103.98  2119.11
                             2148.67  4382.77  4444.25  4448.74  4472.86
                             4481.44  4503.73  4542.85  4560.23  4631.98
                             5464.64

 Zero-point correction=                           0.160312 (Hartree/Particle)
 Thermal correction to Energy=                    0.167949
 Thermal correction to Enthalpy=                  0.168893
 Thermal correction to Gibbs Free Energy=         0.128474
 Sum of electronic and zero-point Energies=           -422.986597
 Sum of electronic and thermal Energies=              -422.978959
 Sum of electronic and thermal Enthalpies=            -422.978015
 Sum of electronic and thermal Free Energies=         -423.018435

                     E (Thermal)             CV                S
                      KCal/Mol        Cal/Mol-Kelvin    Cal/Mol-Kelvin
 Total                  105.390             30.929             85.070
 Electronic               0.000              0.000              0.000
 Translational            0.889              2.981             40.409
 Rotational               0.889              2.981             28.537
 Vibrational            103.612             24.968             16.125
 Vibration     1          0.604              1.948              3.418
 Vibration     2          0.657              1.780              1.808
 Vibration     3          0.677              1.721              1.569
 Vibration     4          0.686              1.694              1.480
 Vibration     5          0.705              1.638              1.317
 Vibration     6          0.722              1.588              1.196
 Vibration     7          0.789              1.412              0.869
 Vibration     8          0.792              1.403              0.856
 Vibration     9          0.862              1.234              0.641
 Vibration    10          0.901              1.149              0.553

 Optimization completed.
    -- Stationary point found.
 Normal termination of Gaussian 09 at Tue Jan 28 00:30:22 2020.
