 Gaussian 09, Revision D.01,
 Gaussian 09:  ES64L-G09RevD.01 24-Apr-2013

 -----------------------------
 # b3lyp 6-31G(2df,p) opt Freq
 -----------------------------

 -----
 titel
 -----
 Symbolic Z-matrix:
 Charge =  0 Multiplicity = 1

 SCF Done:  E(RB3LYP) =  -423.107069442     A.U. after   13 cycles
 Optimization completed.
    -- Stationary point found.
 Normal termination of Gaussian 09 at Tue Jan 28 09:17:57 2020.

 ----------------------------------------------------------------------
 #N Geom=AllCheck Guess=TCheck SCRF=Check GenChk RB3LYP/6-31G(2df,p) Fr
 eq
 ----------------------------------------------------------------------

 Structure from the checkpoint file:  "/scratch/puck/g09_ae7ca8b5-235d-473f-a107-a42e642b35d0/Gau-109338.chk"
 -----
 titel
 -----
 Charge =  0 Multiplicity = 1

                         Standard orientation:
 ---------------------------------------------------------------------
 Center     Atomic      Atomic             Coordinates (Angstroms)
 Number     Number       Type             X           Y           Z
 ---------------------------------------------------------------------
      1          6           0       -2.608636   -0.104195    0.347039
      2          8           0       -1.667355   -0.487967   -0.650131
      3          6           0       -0.372885   -0.342409   -0.259980
      4          6           0        0.881390   -0.258419   -1.100580
      5          6           0        1.536333   -1.420867   -0.359025
      6          6           0        0.590784   -1.046615    0.810388
      7          8           0        1.066176    0.254677    1.238390
      8          6           0        0.561271    0.795751    0.016304
      9          6           0        0.522713    2.272329   -0.178823
     10          1           0       -2.489144    0.951565    0.620653
     11          1           0       -3.601482   -0.260781   -0.079021
     12          1           0       -2.502251   -0.717973    1.250980
     13          1           0        0.965036    0.033976   -2.139745
     14          1           0        1.270576   -2.382263   -0.806312
     15          1           0        2.607126   -1.378739   -0.137923
     16          1           0        0.358209   -1.719228    1.633303
     17          1           0        1.534238    2.691351   -0.212520
     18          1           0        0.023784    2.513396   -1.122123
     19          1           0       -0.022485    2.761574    0.634699
 ---------------------------------------------------------------------

 SCF Done:  E(RB3LYP) =  -423.107069442     A.U. after    1 cycles

 The electronic state is 1-A.
 Alpha  occ. eigenvalues --  -19.16165 -19.13234 -10.23646 -10.23585 -10.23569
 Alpha  occ. eigenvalues --  -10.23167 -10.18778 -10.18555 -10.18413  -1.06640
 Alpha  occ. eigenvalues --   -1.04255  -0.84912  -0.75982  -0.70971  -0.68173
 Alpha  occ. eigenvalues --   -0.63003  -0.55217  -0.53995  -0.50648  -0.48060
 Alpha  occ. eigenvalues --   -0.46272  -0.45722  -0.44198  -0.41555  -0.40680
 Alpha  occ. eigenvalues --   -0.39651  -0.37308  -0.36584  -0.35422  -0.33282
 Alpha  occ. eigenvalues --   -0.31748  -0.25567  -0.25275  -0.22020
 Alpha virt. eigenvalues --    0.08090   0.09072   0.10947   0.11467   0.12402
 Alpha virt. eigenvalues --    0.13494   0.14890   0.15778   0.16236   0.16570
 Alpha virt. eigenvalues --    0.16718   0.18071   0.18821   0.20593   0.21279

 Mulliken charges:
               1
     1  C   -0.256537
     2  O   -0.273115
     3  C    0.315679
     4  C   -0.224707
     5  C   -0.233344
     6  C   -0.017567
     7  O   -0.313174
     8  C    0.365849
     9  C   -0.514969
    10  H    0.121176
    11  H    0.130926
    12  H    0.120099
    13  H    0.093461
    14  H    0.106674
    15  H    0.100035
    16  H    0.085464
    17  H    0.133627
    18  H    0.131106
    19  H    0.129317
 Sum of Mulliken charges =   0.00000

 Dipole moment (field-independent basis, Debye):
    X=             -1.0369    Y=              0.1470    Z=             -0.2828  Tot=              1.0848
 Quadrupole moment (field-independent basis, Debye-Ang):
   XX=            -51.5863   YY=            -50.1812   ZZ=            -54.9278
   XY=             -1.4262   XZ=             -4.3386   YZ=             -2.6038

  Exact polarizability:  80.450  -2.662  79.399  -3.275  -1.403  67.180
 Approx polarizability: 109.912  -0.181 110.357  -0.867   0.617 107.346

                      1                      2                      3
                      A                      A                      A
 Frequencies --     90.7630               148.3944               164.4986
 Red. masses --      2.7030                 1.7305                 1.6015
 Frc consts  --      0.0131                 0.0225                 0.0255
 IR Inten    --      1.8402                 0.6307                 1.7695

                      4                      5                      6
                      A                      A                      A
 Frequencies --    193.6917               220.3168               278.4114
 Red. masses --      1.1276                 2.2552                 2.6818
 Frc consts  --      0.0249                 0.0645                 0.1225
 IR Inten    --      0.7413                 3.7730                 0.9659

                      7                      8                      9
                      A                      A                      A
 Frequencies --    331.8262               409.8604               503.3608
 Red. masses --      2.7057                 3.3277                 3.2136
 Frc consts  --      0.1755                 0.3294                 0.4797
 IR Inten    --      4.2071                 2.2997                 1.5745

                     10                     11                     12
                      A                      A                      A
 Frequencies --    559.4258               619.7653               647.0696
 Red. masses --      3.5598                 4.2606                 4.1128
 Frc consts  --      0.6564                 0.9642                 1.0146
 IR Inten    --      4.9152                 0.6683                10.5459

                     13                     14                     15
                      A                      A                      A
 Frequencies --    714.6824               811.8517               855.7834
 Red. masses --      4.0885                 3.6642                 3.4198
 Frc consts  --      1.2304                 1.4229                 1.4756
 IR Inten    --      3.8485                 5.0618                 7.1915

                     16                     17                     18
                      A                      A                      A
 Frequencies --    899.6150               918.9837               938.2816
 Red. masses --      1.4036                 2.1945                 2.4350
 Frc consts  --      0.6693                 1.0920                 1.2630
 IR Inten    --      7.7319                 3.4570                22.6842

                     19                     20                     21
                      A                      A                      A
 Frequencies --    956.6280               994.2044              1045.1786
 Red. masses --      2.3009                 2.2791                 3.0313
 Frc consts  --      1.2406                 1.3273                 1.9510
 IR Inten    --     26.3695                12.9782                30.7166

                     22                     23                     24
                      A                      A                      A
 Frequencies --   1053.1896              1076.2950              1110.4759
 Red. masses --      4.2617                 2.4087                 1.8985
 Frc consts  --      2.7851                 1.6440                 1.3794
 IR Inten    --     53.2737                 7.6781                 6.9302

                     25                     26                     27
                      A                      A                      A
 Frequencies --   1117.3042              1136.7068              1170.8207
 Red. masses --      1.5255                 1.5636                 1.9477
 Frc consts  --      1.1220                 1.1903                 1.5731
 IR Inten    --      7.3537                 6.3517                27.6442

                     28                     29                     30
                      A                      A                      A
 Frequencies --   1177.9706              1213.5921              1225.1477
 Red. masses --      1.2908                 1.6682                 1.6509
 Frc consts  --      1.0553                 1.4476                 1.4600
 IR Inten    --      2.2188                 8.8335                15.0847

                     31                     32                     33
                      A                      A                      A
 Frequencies --   1269.7372              1292.0861              1336.6615
 Red. masses --      1.7056                 1.7605                 3.0141
 Frc consts  --      1.6201                 1.7317                 3.1728
 IR Inten    --     12.7980                37.3863                66.3956

                     34                     35                     36
                      A                      A                      A
 Frequencies --   1412.6068              1454.5212              1473.6205
 Red. masses --      1.3728                 1.7141                 1.0494
 Frc consts  --      1.6140                 2.1367                 1.3427
 IR Inten    --     15.7254                23.1163                 3.6659

                     37                     38                     39
                      A                      A                      A
 Frequencies --   1482.5883              1487.1647              1497.8612
 Red. masses --      1.1271                 1.0510                 1.1129
 Frc consts  --      1.4596                 1.3696                 1.4712
 IR Inten    --      0.9665                 5.7101                 4.7715

                     40                     41                     42
                      A                      A                      A
 Frequencies --   1503.2474              1523.9793              3007.1715
 Red. masses --      1.0510                 2.2810                 1.0334
 Frc consts  --      1.3993                 3.1212                 5.5059
 IR Inten    --      9.2826                58.8536                44.4288

                     43                     44                     45
                      A                      A                      A
 Frequencies --   3033.3710              3050.8495              3067.3213
 Red. masses --      1.0354                 1.0566                 1.1045
 Frc consts  --      5.6131                 5.7945                 6.1224
 IR Inten    --     26.7979                45.4818                37.1009

                     46                     47                     48
                      A                      A                      A
 Frequencies --   3096.3919              3113.0686              3114.2202
 Red. masses --      1.1014                 1.1079                 1.1004
 Frc consts  --      6.2218                 6.3263                 6.2876
 IR Inten    --     18.2562                16.1697                18.1157

                     49                     50                     51
                      A                      A                      A
 Frequencies --   3130.6413              3144.3340              3200.7793
 Red. masses --      1.1004                 1.0925                 1.0933
 Frc consts  --      6.3544                 6.3642                 6.5996
 IR Inten    --     25.9817                32.6536                 9.0790

 - Thermochemistry -
 -------------------
 Temperature   298.150 Kelvin.  Pressure   1.00000 Atm.
 Atom     1 has atomic number  6 and mass  12.00000

 Molecular mass:   126.06808 amu.
 Principal axes and moments of inertia in atomic units:
                           1         2         3
     Eigenvalues --   773.700021078.339151358.27981
           X            0.99835  -0.03477  -0.04560
           Y            0.03330   0.99892  -0.03253
           Z            0.04668   0.03096   0.99843
 This molecule is an asymmetric top.
 Rotational symmetry number  1.
 Warning -- assumption of classical behavior for rotation
           may cause significant error
 Rotational temperatures (Kelvin)      0.11195     0.08032     0.06377
 Rotational constants (GHZ):           2.33261     1.67363     1.32870
 Zero-point vibrational energy     414364.4 (Joules/Mol)
                                   99.03547 (Kcal/Mol)
 Warning -- explicit consideration of  11 degrees of freedom as
           vibrations may cause significant error
 Vibrational temperatures:    130.59   213.51   236.68   278.68   316.99
          (Kelvin)            400.57   477.42   589.70   724.22   804.89
                              891.70   930.99  1028.27  1168.07  1231.28
                             1294.34  1322.21  1349.98  1376.37  1430.44
                             1503.78  1515.30  1548.55  1597.73  1607.55
                             1635.47  1684.55  1694.83  1746.09  1762.71
                             1826.87  1859.02  1923.16  2032.42  2092.73
                             2120.21  2133.11  2139.70  2155.09  2162.84
                             2192.66  4326.64  4364.34  4389.49  4413.19
                             4455.01  4479.01  4480.66  4504.29  4523.99
                             4605.20

 Zero-point correction=                           0.157823 (Hartree/Particle)
 Thermal correction to Energy=                    0.166373
 Thermal correction to Enthalpy=                  0.167318
 Thermal correction to Gibbs Free Energy=         0.124748
 Sum of electronic and zero-point Energies=           -422.949246
 Sum of electronic and thermal Energies=              -422.940696
 Sum of electronic and thermal Enthalpies=            -422.939752
 Sum of electronic and thermal Free Energies=         -422.982322

                     E (Thermal)             CV                S
                      KCal/Mol        Cal/Mol-Kelvin    Cal/Mol-Kelvin
 Total                  104.401             32.324             89.596
 Electronic               0.000              0.000              0.000
 Translational            0.889              2.981             40.409
 Rotational               0.889              2.981             28.518
 Vibrational            102.623             26.362             20.669
 Vibration     1          0.602              1.956              3.644
 Vibration     2          0.618              1.904              2.693
 Vibration     3          0.623              1.886              2.497
 Vibration     4          0.635              1.849              2.192
 Vibration     5          0.647              1.810              1.956
 Vibration     6          0.679              1.713              1.543
 Vibration     7          0.714              1.612              1.251
 Vibration     8          0.774              1.449              0.927
 Vibration     9          0.859              1.243              0.650
 Vibration    10          0.915              1.119              0.525
 Vibration    11          0.980              0.990              0.417

 Normal termination of Gaussian 09 at Tue Jan 28 10:04:30 2020.
