 Gaussian 09, Revision D.01,
 Gaussian 09:  ES64L-G09RevD.01 24-Apr-2013

 -----------------------------
 # b3lyp 6-31G(2df,p) opt Freq
 -----------------------------

 -----
 titel
 -----
 Symbolic Z-matrix:
 Charge =  0 Multiplicity = 1

 SCF Done:  E(RB3LYP) =  -423.157006558     A.U. after   14 cycles
 Optimization completed.
    -- Stationary point found.
 Normal termination of Gaussian 09 at Mon Jan 27 15:36:03 2020.

 ----------------------------------------------------------------------
 #N Geom=AllCheck Guess=TCheck SCRF=Check GenChk RB3LYP/6-31G(2df,p) Fr
 eq
 ----------------------------------------------------------------------

 Structure from the checkpoint file:  "/scratch/puck/g09_873866e9-b98e-4a54-bb6d-4810e0c8df4a/Gau-74684.chk"
 -----
 titel
 -----
 Charge =  0 Multiplicity = 1

                         Standard orientation:
 ---------------------------------------------------------------------
 Center     Atomic      Atomic             Coordinates (Angstroms)
 Number     Number       Type             X           Y           Z
 ---------------------------------------------------------------------
      1          6           0       -1.391692    1.779850    0.294436
      2          6           0       -0.950016    0.452176   -0.359487
      3          6           0       -1.851130   -0.669681    0.134130
      4          8           0       -2.682298   -1.217600   -0.543167
      5          6           0        0.495567    0.164219   -0.052650
      6          6           0        1.745494    0.850796   -0.640665
      7          6           0        2.544378   -0.471450   -0.360549
      8          6           0        1.256571   -1.071878    0.214483
      9          8           0        0.839036   -0.214366    1.291109
     10          1           0       -1.317046    1.716826    1.384306
     11          1           0       -0.751792    2.601578   -0.040140
     12          1           0       -2.424516    2.018910    0.027312
     13          1           0       -1.079432    0.515050   -1.445306
     14          1           0       -1.699812   -0.939002    1.201510
     15          1           0        1.657208    1.067481   -1.708048
     16          1           0        2.071551    1.747620   -0.109289
     17          1           0        2.876283   -0.961678   -1.278392
     18          1           0        3.377174   -0.406854    0.343002
     19          1           0        0.941455   -2.108393    0.263322
 ---------------------------------------------------------------------

 SCF Done:  E(RB3LYP) =  -423.157006558     A.U. after    1 cycles

 The electronic state is 1-A.
 Alpha  occ. eigenvalues --  -19.15619 -19.14078 -10.27008 -10.24960 -10.24201
 Alpha  occ. eigenvalues --  -10.20788 -10.19701 -10.19684 -10.19321  -1.08260
 Alpha  occ. eigenvalues --   -1.04723  -0.81378  -0.79968  -0.67975  -0.66685
 Alpha  occ. eigenvalues --   -0.62230  -0.57883  -0.55306  -0.52391  -0.47158
 Alpha  occ. eigenvalues --   -0.46464  -0.44889  -0.43926  -0.42047  -0.41002
 Alpha  occ. eigenvalues --   -0.39719  -0.37358  -0.36660  -0.36452  -0.34757
 Alpha  occ. eigenvalues --   -0.33997  -0.29685  -0.26741  -0.24278
 Alpha virt. eigenvalues --   -0.02517   0.07759   0.09470   0.10984   0.11303
 Alpha virt. eigenvalues --    0.12456   0.12998   0.13995   0.15381   0.15746
 Alpha virt. eigenvalues --    0.16630   0.17367   0.17753   0.19224   0.20336

 Mulliken charges:
               1
     1  C   -0.412607
     2  C   -0.197250
     3  C    0.154615
     4  O   -0.253115
     5  C    0.428753
     6  C   -0.299528
     7  C   -0.236779
     8  C   -0.055100
     9  O   -0.291632
    10  H    0.141026
    11  H    0.130204
    12  H    0.132284
    13  H    0.100226
    14  H    0.098220
    15  H    0.110576
    16  H    0.112533
    17  H    0.111447
    18  H    0.115940
    19  H    0.110186
 Sum of Mulliken charges =   0.00000

 Dipole moment (field-independent basis, Debye):
    X=              1.9831    Y=              1.2755    Z=             -0.6850  Tot=              2.4554
 Quadrupole moment (field-independent basis, Debye-Ang):
   XX=            -58.2384   YY=            -52.0167   ZZ=            -55.1902
   XY=             -5.5888   XZ=             -4.6830   YZ=             -1.3771

  Exact polarizability:  85.820  -0.451  75.819  -0.294  -1.300  65.640
 Approx polarizability: 112.410   2.221 111.007   4.508   0.412 108.913

                      1                      2                      3
                      A                      A                      A
 Frequencies --     41.8530                49.7850               157.2779
 Red. masses --      4.0136                 4.6113                 2.5598
 Frc consts  --      0.0041                 0.0067                 0.0373
 IR Inten    --      6.8478                 2.3885                 0.6780

                      4                      5                      6
                      A                      A                      A
 Frequencies --    174.1893               222.7449               260.5659
 Red. masses --      3.3065                 1.0588                 2.1302
 Frc consts  --      0.0591                 0.0310                 0.0852
 IR Inten    --      3.3318                 0.2450                 1.5092

                      7                      8                      9
                      A                      A                      A
 Frequencies --    291.5928               394.0515               446.1277
 Red. masses --      2.2141                 3.4811                 3.8022
 Frc consts  --      0.1109                 0.3185                 0.4459
 IR Inten    --      0.8323                 3.6239                 4.2843

                     10                     11                     12
                      A                      A                      A
 Frequencies --    449.0323               506.0211               719.7691
 Red. masses --      3.3023                 3.6618                 3.7642
 Frc consts  --      0.3923                 0.5524                 1.1490
 IR Inten    --     10.1247                 5.9238                 3.0443

                     13                     14                     15
                      A                      A                      A
 Frequencies --    738.4490               773.9426               876.9073
 Red. masses --      3.7806                 1.3693                 2.5456
 Frc consts  --      1.2146                 0.4832                 1.1533
 IR Inten    --      0.6282                 1.3188                16.1771

                     16                     17                     18
                      A                      A                      A
 Frequencies --    887.5005               922.3297               931.1705
 Red. masses --      1.7989                 2.2162                 2.2394
 Frc consts  --      0.8348                 1.1108                 1.1440
 IR Inten    --     24.0238                 2.5663                10.5872

                     19                     20                     21
                      A                      A                      A
 Frequencies --    940.8576               954.8321              1000.3738
 Red. masses --      3.1069                 2.7639                 1.4852
 Frc consts  --      1.6204                 1.4846                 0.8757
 IR Inten    --     11.4791                 2.9124                 2.6481

                     22                     23                     24
                      A                      A                      A
 Frequencies --   1039.0369              1084.5795              1100.2391
 Red. masses --      1.6885                 2.6121                 1.9135
 Frc consts  --      1.0740                 1.8104                 1.3647
 IR Inten    --      1.9640                 8.4097                16.9445

                     25                     26                     27
                      A                      A                      A
 Frequencies --   1117.4225              1155.4187              1175.5816
 Red. masses --      2.1227                 1.7457                 1.8224
 Frc consts  --      1.5616                 1.3731                 1.4839
 IR Inten    --      6.2653                 2.9813                21.0536

                     28                     29                     30
                      A                      A                      A
 Frequencies --   1212.6764              1220.8307              1251.6834
 Red. masses --      1.2053                 1.4042                 1.3100
 Frc consts  --      1.0443                 1.2331                 1.2093
 IR Inten    --      1.7235                 6.3704                 8.3227

                     31                     32                     33
                      A                      A                      A
 Frequencies --   1272.6426              1301.7200              1346.3294
 Red. masses --      1.5900                 1.5138                 1.5969
 Frc consts  --      1.5173                 1.5114                 1.7054
 IR Inten    --      1.7292                 2.5221                 2.5302

                     34                     35                     36
                      A                      A                      A
 Frequencies --   1398.0539              1421.5945              1440.2889
 Red. masses --      1.2250                 1.2467                 3.0796
 Frc consts  --      1.4106                 1.4844                 3.7640
 IR Inten    --      3.7727                 3.2630                13.0274

                     37                     38                     39
                      A                      A                      A
 Frequencies --   1464.2894              1490.0927              1497.2710
 Red. masses --      1.0908                 1.2534                 1.0422
 Frc consts  --      1.3780                 1.6397                 1.3765
 IR Inten    --      0.2375                 1.9331                 6.5939

                     40                     41                     42
                      A                      A                      A
 Frequencies --   1501.6712              1831.7493              2907.5434
 Red. masses --      1.0964                10.0399                 1.0834
 Frc consts  --      1.4568                19.8477                 5.3962
 IR Inten    --      6.1634               171.6371                59.6156

                     43                     44                     45
                      A                      A                      A
 Frequencies --   3042.1959              3059.9547              3065.9327
 Red. masses --      1.0337                 1.0826                 1.0577
 Frc consts  --      5.6366                 5.9723                 5.8580
 IR Inten    --     15.5439                 7.5045                29.5000

                     46                     47                     48
                      A                      A                      A
 Frequencies --   3074.0862              3115.7899              3118.3769
 Red. masses --      1.0592                 1.1020                 1.1088
 Frc consts  --      5.8976                 6.3035                 6.3530
 IR Inten    --     29.4907                15.4374                 1.6529

                     49                     50                     51
                      A                      A                      A
 Frequencies --   3122.6755              3134.7302              3181.8807
 Red. masses --      1.1030                 1.1083                 1.0942
 Frc consts  --      6.3367                 6.4166                 6.5268
 IR Inten    --     16.0616                30.0325                15.5001

 - Thermochemistry -
 -------------------
 Temperature   298.150 Kelvin.  Pressure   1.00000 Atm.
 Atom     1 has atomic number  6 and mass  12.00000

 Molecular mass:   126.06808 amu.
 Principal axes and moments of inertia in atomic units:
                           1         2         3
     Eigenvalues --   612.330261533.839901779.51287
           X            0.99917  -0.03362  -0.02305
           Y            0.03333   0.99936  -0.01263
           Z            0.02346   0.01185   0.99965
 This molecule is an asymmetric top.
 Rotational symmetry number  1.
 Warning -- assumption of classical behavior for rotation
           may cause significant error
 Rotational temperatures (Kelvin)      0.14145     0.05647     0.04867
 Rotational constants (GHZ):           2.94733     1.17662     1.01418
 Zero-point vibrational energy     412028.0 (Joules/Mol)
                                   98.47707 (Kcal/Mol)
 Warning -- explicit consideration of  11 degrees of freedom as
           vibrations may cause significant error
 Vibrational temperatures:     60.22    71.63   226.29   250.62   320.48
          (Kelvin)            374.90   419.54   566.95   641.88   646.06
                              728.05  1035.59  1062.46  1113.53  1261.67
                             1276.91  1327.03  1339.75  1353.68  1373.79
                             1439.31  1494.94  1560.47  1583.00  1607.72
                             1662.39  1691.40  1744.77  1756.50  1800.89
                             1831.05  1872.88  1937.07  2011.49  2045.35
                             2072.25  2106.78  2143.91  2154.24  2160.57
                             2635.48  4183.30  4377.04  4402.59  4411.19
                             4422.92  4482.92  4486.64  4492.83  4510.17
                             4578.01

 Zero-point correction=                           0.156933 (Hartree/Particle)
 Thermal correction to Energy=                    0.166076
 Thermal correction to Enthalpy=                  0.167020
 Thermal correction to Gibbs Free Energy=         0.121939
 Sum of electronic and zero-point Energies=           -423.000073
 Sum of electronic and thermal Energies=              -422.990931
 Sum of electronic and thermal Enthalpies=            -422.989987
 Sum of electronic and thermal Free Energies=         -423.035067

                     E (Thermal)             CV                S
                      KCal/Mol        Cal/Mol-Kelvin    Cal/Mol-Kelvin
 Total                  104.214             33.120             94.880
 Electronic               0.000              0.000              0.000
 Translational            0.889              2.981             40.409
 Rotational               0.889              2.981             28.904
 Vibrational            102.437             27.159             25.568
 Vibration     1          0.594              1.980              5.169
 Vibration     2          0.595              1.978              4.826
 Vibration     3          0.621              1.895              2.582
 Vibration     4          0.627              1.874              2.390
 Vibration     5          0.648              1.806              1.937
 Vibration     6          0.669              1.745              1.658
 Vibration     7          0.687              1.689              1.465
 Vibration     8          0.761              1.483              0.985
 Vibration     9          0.805              1.369              0.808
 Vibration    10          0.808              1.363              0.799
 Vibration    11          0.861              1.237              0.643

 Optimization completed.
    -- Stationary point found.
 Normal termination of Gaussian 09 at Mon Jan 27 16:23:34 2020.
