 Gaussian 09, Revision D.01,
 Gaussian 09:  ES64L-G09RevD.01 24-Apr-2013

 -----------------------------
 # b3lyp 6-31G(2df,p) opt Freq
 -----------------------------

 -----
 titel
 -----
 Symbolic Z-matrix:
 Charge =  0 Multiplicity = 1

 SCF Done:  E(RB3LYP) =  -423.172112580     A.U. after   14 cycles
 Optimization completed.
    -- Stationary point found.
 Normal termination of Gaussian 09 at Tue Jan 28 09:21:25 2020.

 ----------------------------------------------------------------------
 #N Geom=AllCheck Guess=TCheck SCRF=Check GenChk RB3LYP/6-31G(2df,p) Fr
 eq
 ----------------------------------------------------------------------

 Structure from the checkpoint file:  "/scratch/puck/g09_b080789c-8d36-4788-9f42-5b4cce2729c8/Gau-84230.chk"
 -----
 titel
 -----
 Charge =  0 Multiplicity = 1

                         Standard orientation:
 ---------------------------------------------------------------------
 Center     Atomic      Atomic             Coordinates (Angstroms)
 Number     Number       Type             X           Y           Z
 ---------------------------------------------------------------------
      1          6           0       -2.872155    0.235290    0.554151
      2          6           0       -2.010280   -0.374850   -0.561328
      3          6           0       -0.551902   -0.303863   -0.243614
      4          8           0        0.001966   -1.217572    0.745251
      5          6           0        0.623803   -1.165705   -0.536797
      6          6           0        1.633584   -0.004012   -0.480670
      7          6           0        2.778223   -0.072644    0.520575
      8          6           0        0.393936    0.898135   -0.168381
      9          8           0        0.237322    2.078463   -0.057374
     10          1           0       -2.722723   -0.302209    1.494963
     11          1           0       -2.608688    1.284351    0.715707
     12          1           0       -3.933264    0.183561    0.295067
     13          1           0       -2.282301   -1.423159   -0.727486
     14          1           0       -2.186109    0.158203   -1.503632
     15          1           0        0.654296   -2.076041   -1.124216
     16          1           0        1.991643    0.270189   -1.481839
     17          1           0        2.415011   -0.429868    1.487269
     18          1           0        3.569337   -0.745665    0.174669
     19          1           0        3.217233    0.919413    0.662859
 ---------------------------------------------------------------------

 SCF Done:  E(RB3LYP) =  -423.172112580     A.U. after    1 cycles

 The electronic state is 1-A.
 Alpha  occ. eigenvalues --  -19.16853 -19.14440 -10.27485 -10.25065 -10.24894
 Alpha  occ. eigenvalues --  -10.20629 -10.19985 -10.18260 -10.17946  -1.09273
 Alpha  occ. eigenvalues --   -1.05002  -0.81207  -0.78748  -0.71766  -0.65711
 Alpha  occ. eigenvalues --   -0.63122  -0.58741  -0.51824  -0.49891  -0.48308
 Alpha  occ. eigenvalues --   -0.45659  -0.43997  -0.43336  -0.41483  -0.40109
 Alpha  occ. eigenvalues --   -0.39813  -0.37936  -0.37076  -0.35610  -0.35222
 Alpha  occ. eigenvalues --   -0.35166  -0.31551  -0.27915  -0.23601
 Alpha virt. eigenvalues --   -0.02434   0.07745   0.09972   0.11038   0.12098
 Alpha virt. eigenvalues --    0.13113   0.13857   0.14595   0.15461   0.16175
 Alpha virt. eigenvalues --    0.17295   0.17671   0.18061   0.19851   0.21691

 Mulliken charges:
               1
     1  C   -0.385912
     2  C   -0.319687
     3  C    0.308354
     4  O   -0.282364
     5  C   -0.072671
     6  C   -0.136402
     7  C   -0.411161
     8  C    0.375416
     9  O   -0.308239
    10  H    0.133914
    11  H    0.143950
    12  H    0.115745
    13  H    0.114954
    14  H    0.114927
    15  H    0.114294
    16  H    0.102418
    17  H    0.138853
    18  H    0.118937
    19  H    0.134675
 Sum of Mulliken charges =   0.00000

 Dipole moment (field-independent basis, Debye):
    X=              0.1005    Y=             -1.9098    Z=             -1.7736  Tot=              2.6083
 Quadrupole moment (field-independent basis, Debye-Ang):
   XX=            -48.2429   YY=            -59.0816   ZZ=            -52.4665
   XY=             -0.6712   XZ=             -0.3014   YZ=              2.2422

  Exact polarizability:  92.174  -2.384  75.176  -0.933   1.954  61.530
 Approx polarizability: 113.398  -6.189 124.504  -3.299  -0.353  97.777

                      1                      2                      3
                      A                      A                      A
 Frequencies --     63.7533                97.5745               160.2081
 Red. masses --      2.8076                 3.7364                 3.1477
 Frc consts  --      0.0067                 0.0210                 0.0476
 IR Inten    --      1.0033                 1.8081                 1.1726

                      4                      5                      6
                      A                      A                      A
 Frequencies --    181.2554               205.8844               224.8479
 Red. masses --      1.9336                 1.2153                 2.2959
 Frc consts  --      0.0374                 0.0304                 0.0684
 IR Inten    --      1.6471                 1.6125                 1.8829

                      7                      8                      9
                      A                      A                      A
 Frequencies --    249.9719               309.8453               381.2281
 Red. masses --      1.6451                 2.5857                 3.9450
 Frc consts  --      0.0606                 0.1463                 0.3378
 IR Inten    --      1.9921                 1.5702                 0.9425

                     10                     11                     12
                      A                      A                      A
 Frequencies --    489.8790               564.4827               634.3714
 Red. masses --      3.3090                 4.0085                 4.0374
 Frc consts  --      0.4679                 0.7525                 0.9573
 IR Inten    --      6.9745                 7.0753                 2.6417

                     13                     14                     15
                      A                      A                      A
 Frequencies --    679.4174               733.5382               762.8563
 Red. masses --      4.3707                 2.4749                 3.0944
 Frc consts  --      1.1887                 0.7846                 1.0610
 IR Inten    --      5.8771                 1.1834                 2.8183

                     16                     17                     18
                      A                      A                      A
 Frequencies --    819.8534               852.7537               908.3071
 Red. masses --      1.7148                 2.8004                 2.9194
 Frc consts  --      0.6791                 1.1998                 1.4191
 IR Inten    --      4.2707                 3.9021                50.9232

                     19                     20                     21
                      A                      A                      A
 Frequencies --    913.8034               973.8347              1004.0851
 Red. masses --      3.1096                 2.0502                 1.4663
 Frc consts  --      1.5299                 1.1456                 0.8710
 IR Inten    --     26.7571                 4.7338                 0.9874

                     22                     23                     24
                      A                      A                      A
 Frequencies --   1043.1818              1068.3877              1081.5688
 Red. masses --      1.6896                 1.8229                 1.7366
 Frc consts  --      1.0833                 1.2260                 1.1969
 IR Inten    --      6.2555                 6.0364                 4.8433

                     25                     26                     27
                      A                      A                      A
 Frequencies --   1104.4264              1139.6281              1198.2998
 Red. masses --      1.8272                 2.5427                 2.1660
 Frc consts  --      1.3131                 1.9457                 1.8325
 IR Inten    --      0.8717                 8.7691                 3.1420

                     28                     29                     30
                      A                      A                      A
 Frequencies --   1229.8911              1247.7650              1311.2702
 Red. masses --      1.8056                 1.4207                 1.3283
 Frc consts  --      1.6092                 1.3032                 1.3457
 IR Inten    --      7.1421                 7.5841                 0.2816

                     31                     32                     33
                      A                      A                      A
 Frequencies --   1340.9129              1344.7167              1401.4863
 Red. masses --      1.5273                 1.7341                 1.2442
 Frc consts  --      1.6179                 1.8475                 1.4399
 IR Inten    --      0.9627                 2.6332                 3.3851

                     34                     35                     36
                      A                      A                      A
 Frequencies --   1409.2508              1446.0896              1471.4771
 Red. masses --      1.2466                 3.0249                 1.1867
 Frc consts  --      1.4586                 3.7270                 1.5139
 IR Inten    --      2.6334                 3.3476                 3.3011

                     37                     38                     39
                      A                      A                      A
 Frequencies --   1493.3817              1499.0157              1502.9662
 Red. masses --      1.0479                 1.0379                 1.0496
 Frc consts  --      1.3770                 1.3741                 1.3969
 IR Inten    --      4.5991                 6.9446                 3.2784

                     40                     41                     42
                      A                      A                      A
 Frequencies --   1511.5461              1889.6188              3033.1934
 Red. masses --      1.1053                12.8079                 1.0613
 Frc consts  --      1.4879                26.9448                 5.7527
 IR Inten    --      4.5730               233.6599                11.4899

                     43                     44                     45
                      A                      A                      A
 Frequencies --   3034.3101              3041.1866              3045.8790
 Red. masses --      1.0781                 1.0380                 1.0344
 Frc consts  --      5.8480                 5.6563                 5.6539
 IR Inten    --     22.9071                26.3112                20.8265

                     46                     47                     48
                      A                      A                      A
 Frequencies --   3073.4980              3106.8612              3119.4298
 Red. masses --      1.1020                 1.1011                 1.1023
 Frc consts  --      6.1333                 6.2623                 6.3198
 IR Inten    --      8.5335                16.1619                25.9577

                     49                     50                     51
                      A                      A                      A
 Frequencies --   3124.6065              3128.0568              3191.1556
 Red. masses --      1.1029                 1.1015                 1.0942
 Frc consts  --      6.3442                 6.3501                 6.5653
 IR Inten    --     18.9554                12.9241                10.0820

 - Thermochemistry -
 -------------------
 Temperature   298.150 Kelvin.  Pressure   1.00000 Atm.
 Atom     1 has atomic number  6 and mass  12.00000

 Molecular mass:   126.06808 amu.
 Principal axes and moments of inertia in atomic units:
                           1         2         3
     Eigenvalues --   610.407721412.241271746.29154
           X            0.99996  -0.00835   0.00140
           Y            0.00830   0.99943   0.03273
           Z           -0.00167  -0.03272   0.99946
 This molecule is an asymmetric top.
 Rotational symmetry number  1.
 Warning -- assumption of classical behavior for rotation
           may cause significant error
 Rotational temperatures (Kelvin)      0.14190     0.06133     0.04960
 Rotational constants (GHZ):           2.95662     1.27793     1.03347
 Zero-point vibrational energy     411783.4 (Joules/Mol)
                                   98.41859 (Kcal/Mol)
 Warning -- explicit consideration of  11 degrees of freedom as
           vibrations may cause significant error
 Vibrational temperatures:     91.73   140.39   230.50   260.79   296.22
          (Kelvin)            323.51   359.65   445.80   548.50   704.83
                              812.16   912.72   977.53  1055.40  1097.58
                             1179.58  1226.92  1306.85  1314.76  1401.13
                             1444.65  1500.90  1537.17  1556.13  1589.02
                             1639.67  1724.08  1769.54  1795.25  1886.62
                             1929.27  1934.75  2016.42  2027.60  2080.60
                             2117.12  2148.64  2156.75  2162.43  2174.77
                             2718.74  4364.08  4365.69  4375.58  4382.34
                             4422.07  4470.07  4488.16  4495.61  4500.57
                             4591.36

 Zero-point correction=                           0.156840 (Hartree/Particle)
 Thermal correction to Energy=                    0.166169
 Thermal correction to Enthalpy=                  0.167113
 Thermal correction to Gibbs Free Energy=         0.122487
 Sum of electronic and zero-point Energies=           -423.015273
 Sum of electronic and thermal Energies=              -423.005944
 Sum of electronic and thermal Enthalpies=            -423.005000
 Sum of electronic and thermal Free Energies=         -423.049625

                     E (Thermal)             CV                S
                      KCal/Mol        Cal/Mol-Kelvin    Cal/Mol-Kelvin
 Total                  104.272             33.955             93.922
 Electronic               0.000              0.000              0.000
 Translational            0.889              2.981             40.409
 Rotational               0.889              2.981             28.800
 Vibrational            102.495             27.994             24.714
 Vibration     1          0.597              1.972              4.338
 Vibration     2          0.603              1.951              3.502
 Vibration     3          0.622              1.891              2.547
 Vibration     4          0.630              1.865              2.315
 Vibration     5          0.640              1.832              2.080
 Vibration     6          0.650              1.803              1.920
 Vibration     7          0.663              1.763              1.731
 Vibration     8          0.699              1.655              1.363
 Vibration     9          0.751              1.510              1.034
 Vibration    10          0.846              1.272              0.684
 Vibration    11          0.920              1.108              0.515

 Optimization completed.
    -- Stationary point found.
 Normal termination of Gaussian 09 at Tue Jan 28 10:07:29 2020.
