 Gaussian 09, Revision D.01,
 Gaussian 09:  ES64L-G09RevD.01 24-Apr-2013

 -----------------------------
 # b3lyp 6-31G(2df,p) opt Freq
 -----------------------------

 -----
 titel
 -----
 Symbolic Z-matrix:
 Charge =  0 Multiplicity = 1

 SCF Done:  E(RB3LYP) =  -423.216256173     A.U. after   14 cycles
 Optimization completed.
    -- Stationary point found.
 Normal termination of Gaussian 09 at Tue Jan 28 00:39:57 2020.

 ----------------------------------------------------------------------
 #N Geom=AllCheck Guess=TCheck SCRF=Check GenChk RB3LYP/6-31G(2df,p) Fr
 eq
 ----------------------------------------------------------------------

 Structure from the checkpoint file:  "/scratch/puck/g09_ceacda90-0f68-4964-a340-a224cae79d6b/Gau-36680.chk"
 -----
 titel
 -----
 Charge =  0 Multiplicity = 1

                         Standard orientation:
 ---------------------------------------------------------------------
 Center     Atomic      Atomic             Coordinates (Angstroms)
 Number     Number       Type             X           Y           Z
 ---------------------------------------------------------------------
      1          6           0       -2.538304    0.297478   -0.625814
      2          6           0       -1.394109   -0.419294    0.058955
      3          8           0       -1.527116   -0.962230    1.133188
      4          6           0       -0.042109   -0.378542   -0.654103
      5          6           0        0.952833   -1.465569   -0.184279
      6          6           0        2.231228   -0.707959    0.062403
      7          6           0        2.087623    0.609075   -0.068604
      8          6           0        0.666993    1.007150   -0.379869
      9          8           0        0.075604    1.770876    0.670336
     10          1           0       -3.452156    0.187094   -0.040821
     11          1           0       -2.288357    1.360003   -0.717372
     12          1           0       -2.692023   -0.094060   -1.637360
     13          1           0       -0.210604   -0.457070   -1.732323
     14          1           0        0.591771   -1.954778    0.727697
     15          1           0        1.078247   -2.251600   -0.937559
     16          1           0        3.155097   -1.209835    0.330726
     17          1           0        2.857133    1.356312    0.088920
     18          1           0        0.588184    1.661311   -1.253688
     19          1           0        0.199870    1.279423    1.491457
 ---------------------------------------------------------------------

 SCF Done:  E(RB3LYP) =  -423.216256173     A.U. after    1 cycles

 The electronic state is 1-A.
 Alpha  occ. eigenvalues --  -19.14168 -19.12825 -10.26894 -10.24364 -10.19400
 Alpha  occ. eigenvalues --  -10.19263 -10.18659 -10.18406 -10.18280  -1.04001
 Alpha  occ. eigenvalues --   -1.02159  -0.84182  -0.75789  -0.71476  -0.70026
 Alpha  occ. eigenvalues --   -0.60703  -0.55511  -0.53118  -0.50615  -0.48110
 Alpha  occ. eigenvalues --   -0.45519  -0.44116  -0.43051  -0.42451  -0.40853
 Alpha  occ. eigenvalues --   -0.38923  -0.37620  -0.36768  -0.34945  -0.34451
 Alpha  occ. eigenvalues --   -0.32654  -0.27784  -0.25658  -0.24355
 Alpha virt. eigenvalues --   -0.01097   0.00877   0.07705   0.10929   0.12312
 Alpha virt. eigenvalues --    0.13241   0.14131   0.15256   0.15604   0.16795
 Alpha virt. eigenvalues --    0.17406   0.18794   0.20312   0.21559   0.21913

 Mulliken charges:
               1
     1  C   -0.481315
     2  C    0.398898
     3  O   -0.313449
     4  C   -0.152341
     5  C   -0.283620
     6  C   -0.059136
     7  C   -0.102002
     8  C    0.080411
     9  O   -0.427799
    10  H    0.138613
    11  H    0.158805
    12  H    0.130860
    13  H    0.083959
    14  H    0.137563
    15  H    0.108226
    16  H    0.101367
    17  H    0.100974
    18  H    0.094003
    19  H    0.285982
 Sum of Mulliken charges =   0.00000

 Dipole moment (field-independent basis, Debye):
    X=              1.1035    Y=             -0.1582    Z=             -1.9017  Tot=              2.2044
 Quadrupole moment (field-independent basis, Debye-Ang):
   XX=            -51.0091   YY=            -56.1436   ZZ=            -52.7079
   XY=             -1.9065   XZ=              4.4126   YZ=              1.4246

  Exact polarizability:  85.895  -3.104  79.283   2.128  -3.354  63.877
 Approx polarizability: 108.136  -3.835 129.879  -0.580  -9.891 106.922

                      1                      2                      3
                      A                      A                      A
 Frequencies --     33.0156                64.7635               108.6555
 Red. masses --      3.0072                 3.4981                 1.1744
 Frc consts  --      0.0019                 0.0086                 0.0082
 IR Inten    --      7.3225                 1.5719                 0.4775

                      4                      5                      6
                      A                      A                      A
 Frequencies --    164.3974               232.8850               292.7538
 Red. masses --      4.6593                 3.6178                 2.2378
 Frc consts  --      0.0742                 0.1156                 0.1130
 IR Inten    --      0.7501                 2.0982                 6.7948

                      7                      8                      9
                      A                      A                      A
 Frequencies --    349.2787               395.6272               407.4187
 Red. masses --      3.7419                 1.1853                 4.0782
 Frc consts  --      0.2690                 0.1093                 0.3988
 IR Inten    --      0.5838                89.4135                15.7376

                     10                     11                     12
                      A                      A                      A
 Frequencies --    497.5361               568.6665               595.2692
 Red. masses --      2.3862                 2.9675                 3.5473
 Frc consts  --      0.3480                 0.5654                 0.7406
 IR Inten    --      4.3576                 9.9739                11.1248

                     13                     14                     15
                      A                      A                      A
 Frequencies --    720.8334               747.9086               765.3993
 Red. masses --      2.3892                 2.2387                 3.2223
 Frc consts  --      0.7314                 0.7378                 1.1122
 IR Inten    --      6.5655                 3.5550                 8.5452

                     16                     17                     18
                      A                      A                      A
 Frequencies --    802.3965               889.9979               933.4057
 Red. masses --      2.5521                 2.6286                 2.7205
 Frc consts  --      0.9681                 1.2267                 1.3965
 IR Inten    --     26.1523                10.4265                 9.0752

                     19                     20                     21
                      A                      A                      A
 Frequencies --    958.7690               978.4231               995.3606
 Red. masses --      1.6292                 1.4499                 1.9953
 Frc consts  --      0.8824                 0.8178                 1.1647
 IR Inten    --      8.1366                 0.4376                13.3154

                     22                     23                     24
                      A                      A                      A
 Frequencies --   1006.8225              1015.7954              1066.1706
 Red. masses --      2.4959                 1.8342                 2.6735
 Frc consts  --      1.4907                 1.1151                 1.7905
 IR Inten    --     27.8846                12.2038                18.2707

                     25                     26                     27
                      A                      A                      A
 Frequencies --   1098.9674              1132.2885              1175.0613
 Red. masses --      2.6032                 1.1919                 1.4774
 Frc consts  --      1.8524                 0.9003                 1.2019
 IR Inten    --     33.8671                 6.2782                21.4864

                     28                     29                     30
                      A                      A                      A
 Frequencies --   1186.3065              1226.9203              1270.8183
 Red. masses --      1.4536                 1.3192                 1.3937
 Frc consts  --      1.2053                 1.1700                 1.3261
 IR Inten    --     13.4487                88.4812                 9.1119

                     31                     32                     33
                      A                      A                      A
 Frequencies --   1308.6424              1322.9611              1346.2410
 Red. masses --      1.3236                 1.5428                 1.6789
 Frc consts  --      1.3355                 1.5909                 1.7928
 IR Inten    --      4.2557                 1.7556                13.4777

                     34                     35                     36
                      A                      A                      A
 Frequencies --   1370.0325              1381.9471              1435.6108
 Red. masses --      1.4512                 1.5162                 1.2183
 Frc consts  --      1.6048                 1.7060                 1.4793
 IR Inten    --      2.7292                50.7959                64.3652

                     37                     38                     39
                      A                      A                      A
 Frequencies --   1462.6365              1478.5900              1482.8267
 Red. masses --      1.0583                 1.0482                 1.0922
 Frc consts  --      1.3339                 1.3502                 1.4149
 IR Inten    --      7.7566                 7.6958                 5.3372

                     40                     41                     42
                      A                      A                      A
 Frequencies --   1688.9625              1804.2412              3036.8837
 Red. masses --      6.2330                10.5362                 1.0593
 Frc consts  --     10.4758                20.2080                 5.7562
 IR Inten    --      5.5510               123.1283                20.4216

                     43                     44                     45
                      A                      A                      A
 Frequencies --   3038.4692              3051.5975              3065.3222
 Red. masses --      1.0393                 1.0832                 1.0899
 Frc consts  --      5.6531                 5.9431                 6.0340
 IR Inten    --      5.3977                 8.9445                18.3267

                     46                     47                     48
                      A                      A                      A
 Frequencies --   3076.3931              3104.9162              3151.6327
 Red. masses --      1.0954                 1.0984                 1.1023
 Frc consts  --      6.1084                 6.2387                 6.4507
 IR Inten    --     30.6449                 6.8637                11.0880

                     49                     50                     51
                      A                      A                      A
 Frequencies --   3181.9394              3208.7975              3788.2308
 Red. masses --      1.0850                 1.1038                 1.0660
 Frc consts  --      6.4723                 6.6963                 9.0130
 IR Inten    --      7.6720                17.9430                19.5068

 - Thermochemistry -
 -------------------
 Temperature   298.150 Kelvin.  Pressure   1.00000 Atm.
 Atom     1 has atomic number  6 and mass  12.00000

 Molecular mass:   126.06808 amu.
 Principal axes and moments of inertia in atomic units:
                           1         2         3
     Eigenvalues --   671.728621295.106221601.35054
           X            0.99914  -0.03240   0.02604
           Y            0.03240   0.99947   0.00061
           Z           -0.02605   0.00024   0.99966
 This molecule is an asymmetric top.
 Rotational symmetry number  1.
 Warning -- assumption of classical behavior for rotation
           may cause significant error
 Rotational temperatures (Kelvin)      0.12894     0.06688     0.05409
 Rotational constants (GHZ):           2.68671     1.39351     1.12701
 Zero-point vibrational energy     415515.6 (Joules/Mol)
                                   99.31061 (Kcal/Mol)
 Warning -- explicit consideration of  12 degrees of freedom as
           vibrations may cause significant error
 Vibrational temperatures:     47.50    93.18   156.33   236.53   335.07
          (Kelvin)            421.21   502.53   569.22   586.18   715.84
                              818.18   856.46  1037.12  1076.07  1101.24
                             1154.47  1280.51  1342.96  1379.45  1407.73
                             1432.10  1448.59  1461.50  1533.98  1581.17
                             1629.11  1690.65  1706.83  1765.26  1828.42
                             1882.84  1903.44  1936.94  1971.17  1988.31
                             2065.52  2104.41  2127.36  2133.45  2430.04
                             2595.90  4369.39  4371.67  4390.56  4410.31
                             4426.24  4467.28  4534.49  4578.10  4616.74
                             5450.41

 Zero-point correction=                           0.158262 (Hartree/Particle)
 Thermal correction to Energy=                    0.167464
 Thermal correction to Enthalpy=                  0.168409
 Thermal correction to Gibbs Free Energy=         0.123198
 Sum of electronic and zero-point Energies=           -423.057995
 Sum of electronic and thermal Energies=              -423.048792
 Sum of electronic and thermal Enthalpies=            -423.047848
 Sum of electronic and thermal Free Energies=         -423.093058

                     E (Thermal)             CV                S
                      KCal/Mol        Cal/Mol-Kelvin    Cal/Mol-Kelvin
 Total                  105.086             33.596             95.153
 Electronic               0.000              0.000              0.000
 Translational            0.889              2.981             40.409
 Rotational               0.889              2.981             28.723
 Vibrational            103.308             27.634             26.021
 Vibration     1          0.594              1.983              5.639
 Vibration     2          0.597              1.971              4.307
 Vibration     3          0.606              1.942              3.293
 Vibration     4          0.623              1.886              2.499
 Vibration     5          0.654              1.791              1.857
 Vibration     6          0.688              1.687              1.458
 Vibration     7          0.727              1.577              1.169
 Vibration     8          0.762              1.480              0.979
 Vibration     9          0.772              1.454              0.936
 Vibration    10          0.853              1.255              0.664
 Vibration    11          0.925              1.099              0.507
 Vibration    12          0.953              1.042              0.458

 Optimization completed.
    -- Stationary point found.
 Normal termination of Gaussian 09 at Tue Jan 28 02:41:54 2020.
