 Gaussian 09, Revision D.01,
 Gaussian 09:  ES64L-G09RevD.01 24-Apr-2013

 -----------------------------
 # b3lyp 6-31G(2df,p) opt Freq
 -----------------------------

 -----
 titel
 -----
 Symbolic Z-matrix:
 Charge =  0 Multiplicity = 1

 SCF Done:  E(RB3LYP) =  -423.151062456     A.U. after   14 cycles
 Optimization completed.
    -- Stationary point found.
 Normal termination of Gaussian 09 at Tue Jan 28 03:58:23 2020.

 ----------------------------------------------------------------------
 #N Geom=AllCheck Guess=TCheck SCRF=Check GenChk RB3LYP/6-31G(2df,p) Fr
 eq
 ----------------------------------------------------------------------

 Structure from the checkpoint file:  "/scratch/puck/g09_2c43160d-6993-493e-bf5d-6a338eb0c5f8/Gau-92989.chk"
 -----
 titel
 -----
 Charge =  0 Multiplicity = 1

                         Standard orientation:
 ---------------------------------------------------------------------
 Center     Atomic      Atomic             Coordinates (Angstroms)
 Number     Number       Type             X           Y           Z
 ---------------------------------------------------------------------
      1          6           0        0.041233   -1.571207    1.107203
      2          6           0        0.226911   -0.501306    0.046530
      3          8           0        1.336811   -0.869133   -0.864632
      4          6           0        2.199950    0.150715   -0.275452
      5          6           0        0.974001    0.761470    0.349868
      6          6           0        0.205985    1.844787    0.395249
      7          6           0       -1.247012    1.404088    0.239932
      8          6           0       -1.088251    0.051287   -0.544485
      9          8           0       -2.161973   -0.854910   -0.409362
     10          1           0       -0.704551   -1.264452    1.845882
     11          1           0       -0.313673   -2.493212    0.638760
     12          1           0        0.985149   -1.775397    1.619334
     13          1           0        2.930096   -0.297518    0.410897
     14          1           0        2.726018    0.749814   -1.026191
     15          1           0        0.523601    2.880857    0.389408
     16          1           0       -1.763356    1.224976    1.192049
     17          1           0       -1.842889    2.136768   -0.315565
     18          1           0       -0.892965    0.287995   -1.600412
     19          1           0       -2.923032   -0.496497   -0.875291
 ---------------------------------------------------------------------

 SCF Done:  E(RB3LYP) =  -423.151062456     A.U. after    1 cycles

 The electronic state is 1-A.
 Alpha  occ. eigenvalues --  -19.13977 -19.13115 -10.23713 -10.23381 -10.22864
 Alpha  occ. eigenvalues --  -10.18936 -10.18753 -10.18465 -10.16890  -1.03245
 Alpha  occ. eigenvalues --   -1.01975  -0.83261  -0.74227  -0.71415  -0.65883
 Alpha  occ. eigenvalues --   -0.64965  -0.57916  -0.51684  -0.50092  -0.49397
 Alpha  occ. eigenvalues --   -0.46252  -0.44544  -0.41750  -0.40089  -0.39676
 Alpha  occ. eigenvalues --   -0.39483  -0.38101  -0.36107  -0.33555  -0.32261
 Alpha  occ. eigenvalues --   -0.29707  -0.27262  -0.24971  -0.23731
 Alpha virt. eigenvalues --    0.00476   0.06793   0.08337   0.11217   0.12057
 Alpha virt. eigenvalues --    0.13596   0.14642   0.15406   0.16768   0.17409
 Alpha virt. eigenvalues --    0.18145   0.19276   0.19677   0.21179   0.22175

 Mulliken charges:
               1
     1  C   -0.436629
     2  C    0.391937
     3  O   -0.348334
     4  C   -0.169657
     5  C    0.163435
     6  C   -0.213838
     7  C   -0.291500
     8  C    0.057470
     9  O   -0.436726
    10  H    0.123830
    11  H    0.137893
    12  H    0.110966
    13  H    0.108363
    14  H    0.117701
    15  H    0.099886
    16  H    0.114829
    17  H    0.098931
    18  H    0.084501
    19  H    0.286945
 Sum of Mulliken charges =   0.00000

 Dipole moment (field-independent basis, Debye):
    X=             -0.7548    Y=              2.0753    Z=              0.1336  Tot=              2.2124
 Quadrupole moment (field-independent basis, Debye-Ang):
   XX=            -47.1995   YY=            -54.1472   ZZ=            -53.8729
   XY=             -0.5194   XZ=              3.6701   YZ=             -2.5776

  Exact polarizability:  89.276  -4.599  82.000  -0.873  -1.981  60.163
 Approx polarizability: 125.944 -11.791 124.602  -2.379   1.505  93.479

                      1                      2                      3
                      A                      A                      A
 Frequencies --    118.0231               211.8592               219.7798
 Red. masses --      3.3310                 1.0687                 1.2390
 Frc consts  --      0.0273                 0.0283                 0.0353
 IR Inten    --      0.9125                 1.9856                82.4696

                      4                      5                      6
                      A                      A                      A
 Frequencies --    239.8143               259.5598               264.2590
 Red. masses --      1.8756                 2.5308                 2.4237
 Frc consts  --      0.0636                 0.1005                 0.0997
 IR Inten    --     14.5995                 4.9994                 5.9428

                      7                      8                      9
                      A                      A                      A
 Frequencies --    295.5899               372.6382               477.8858
 Red. masses --      6.0240                 3.4004                 3.3566
 Frc consts  --      0.3101                 0.2782                 0.4516
 IR Inten    --      3.2773                 2.2692                 7.3246

                     10                     11                     12
                      A                      A                      A
 Frequencies --    513.2649               549.8976               631.0732
 Red. masses --      2.6845                 4.8759                 4.1847
 Frc consts  --      0.4167                 0.8687                 0.9819
 IR Inten    --      7.1183                 6.0094                 1.8782

                     13                     14                     15
                      A                      A                      A
 Frequencies --    704.3926               787.7586               819.4910
 Red. masses --      3.2483                 3.8299                 1.3170
 Frc consts  --      0.9496                 1.4003                 0.5211
 IR Inten    --     10.7392                 9.1984                20.1471

                     16                     17                     18
                      A                      A                      A
 Frequencies --    866.1471               892.5268               919.2289
 Red. masses --      2.3698                 2.5633                 2.6433
 Frc consts  --      1.0475                 1.2031                 1.3160
 IR Inten    --     20.1296                31.7817                15.1672

                     19                     20                     21
                      A                      A                      A
 Frequencies --    945.7500               972.7716              1007.5749
 Red. masses --      3.6685                 2.4916                 1.6532
 Frc consts  --      1.9332                 1.3892                 0.9889
 IR Inten    --     52.5678                12.1884                 9.5849

                     22                     23                     24
                      A                      A                      A
 Frequencies --   1017.8121              1065.5208              1096.2511
 Red. masses --      2.1730                 1.7239                 3.0886
 Frc consts  --      1.3263                 1.1531                 2.1869
 IR Inten    --      0.2266                 8.1609                69.8130

                     25                     26                     27
                      A                      A                      A
 Frequencies --   1119.0029              1137.8011              1166.5778
 Red. masses --      3.5538                 1.1544                 1.4050
 Frc consts  --      2.6218                 0.8806                 1.1266
 IR Inten    --     50.2976                 1.1968                 2.1261

                     28                     29                     30
                      A                      A                      A
 Frequencies --   1195.0755              1221.4093              1257.6412
 Red. masses --      1.9925                 1.9524                 1.5705
 Frc consts  --      1.6766                 1.7161                 1.4635
 IR Inten    --     44.3464                 3.8558                12.2604

                     31                     32                     33
                      A                      A                      A
 Frequencies --   1269.3688              1305.7669              1318.7899
 Red. masses --      1.4773                 1.6501                 1.3161
 Frc consts  --      1.4025                 1.6576                 1.3487
 IR Inten    --     20.2583                 4.8233                15.7451

                     34                     35                     36
                      A                      A                      A
 Frequencies --   1346.4078              1404.2741              1423.0131
 Red. masses --      1.8809                 1.2843                 1.4285
 Frc consts  --      2.0089                 1.4922                 1.7043
 IR Inten    --      8.1496                 4.5561                 4.7059

                     37                     38                     39
                      A                      A                      A
 Frequencies --   1480.9040              1484.2448              1488.3234
 Red. masses --      1.0653                 1.0765                 1.0887
 Frc consts  --      1.3765                 1.3972                 1.4209
 IR Inten    --      3.0807                 3.5201                 1.8264

                     40                     41                     42
                      A                      A                      A
 Frequencies --   1511.1393              1741.2101              3003.4992
 Red. masses --      1.0988                 8.7652                 1.0842
 Frc consts  --      1.4783                15.6573                 5.7627
 IR Inten    --      0.9554                 3.7281                23.0506

                     43                     44                     45
                      A                      A                      A
 Frequencies --   3013.8919              3021.8859              3046.8903
 Red. masses --      1.0604                 1.0625                 1.0342
 Frc consts  --      5.6750                 5.7163                 5.6566
 IR Inten    --     72.8520                40.1652                13.5163

                     46                     47                     48
                      A                      A                      A
 Frequencies --   3068.2263              3071.8833              3122.1357
 Red. masses --      1.1001                 1.1036                 1.1012
 Frc consts  --      6.1020                 6.1359                 6.3242
 IR Inten    --     27.1806                37.5530                16.0089

                     49                     50                     51
                      A                      A                      A
 Frequencies --   3124.9018              3197.8164              3830.6182
 Red. masses --      1.1025                 1.0950                 1.0664
 Frc consts  --      6.3432                 6.5973                 9.2192
 IR Inten    --     14.9954                13.9633                27.1701

 - Thermochemistry -
 -------------------
 Temperature   298.150 Kelvin.  Pressure   1.00000 Atm.
 Atom     1 has atomic number  6 and mass  12.00000

 Molecular mass:   126.06808 amu.
 Principal axes and moments of inertia in atomic units:
                           1         2         3
     Eigenvalues --   732.826191039.600101413.38700
           X            0.99964  -0.02586   0.00663
           Y            0.02619   0.99814  -0.05507
           Z           -0.00519   0.05523   0.99846
 This molecule is an asymmetric top.
 Rotational symmetry number  1.
 Warning -- assumption of classical behavior for rotation
           may cause significant error
 Rotational temperatures (Kelvin)      0.11819     0.08331     0.06128
 Rotational constants (GHZ):           2.46271     1.73600     1.27689
 Zero-point vibrational energy     416429.5 (Joules/Mol)
                                   99.52903 (Kcal/Mol)
 Warning -- explicit consideration of  11 degrees of freedom as
           vibrations may cause significant error
 Vibrational temperatures:    169.81   304.82   316.21   345.04   373.45
          (Kelvin)            380.21   425.29   536.14   687.57   738.47
                              791.18   907.97  1013.46  1133.41  1179.06
                             1246.19  1284.15  1322.56  1360.72  1399.60
                             1449.67  1464.40  1533.04  1577.26  1609.99
                             1637.04  1678.44  1719.45  1757.33  1809.46
                             1826.34  1878.70  1897.44  1937.18  2020.43
                             2047.40  2130.69  2135.49  2141.36  2174.19
                             2505.21  4321.36  4336.31  4347.81  4383.79
                             4414.49  4419.75  4492.05  4496.03  4600.94
                             5511.40

 Zero-point correction=                           0.158610 (Hartree/Particle)
 Thermal correction to Energy=                    0.167040
 Thermal correction to Enthalpy=                  0.167985
 Thermal correction to Gibbs Free Energy=         0.126156
 Sum of electronic and zero-point Energies=           -422.992453
 Sum of electronic and thermal Energies=              -422.984022
 Sum of electronic and thermal Enthalpies=            -422.983078
 Sum of electronic and thermal Free Energies=         -423.024906

                     E (Thermal)             CV                S
                      KCal/Mol        Cal/Mol-Kelvin    Cal/Mol-Kelvin
 Total                  104.819             32.874             88.036
 Electronic               0.000              0.000              0.000
 Translational            0.889              2.981             40.409
 Rotational               0.889              2.981             28.467
 Vibrational            103.042             26.912             19.160
 Vibration     1          0.608              1.934              3.132
 Vibration     2          0.643              1.823              2.028
 Vibration     3          0.647              1.811              1.961
 Vibration     4          0.657              1.780              1.804
 Vibration     5          0.668              1.747              1.665
 Vibration     6          0.671              1.738              1.633
 Vibration     7          0.690              1.682              1.442
 Vibration     8          0.744              1.528              1.069
 Vibration     9          0.834              1.299              0.716
 Vibration    10          0.868              1.221              0.626
 Vibration    11          0.905              1.140              0.544

 Optimization completed.
    -- Stationary point found.
 Normal termination of Gaussian 09 at Tue Jan 28 04:44:30 2020.
