 Gaussian 09, Revision D.01,
 Gaussian 09:  ES64L-G09RevD.01 24-Apr-2013

 -----------------------------
 # b3lyp 6-31G(2df,p) opt Freq
 -----------------------------

 -----
 titel
 -----
 Symbolic Z-matrix:
 Charge =  0 Multiplicity = 1

 SCF Done:  E(RB3LYP) =  -423.114657531     A.U. after   14 cycles
 Optimization completed.
    -- Stationary point found.
 Normal termination of Gaussian 09 at Tue Jan 28 12:08:31 2020.

 ----------------------------------------------------------------------
 #N Geom=AllCheck Guess=TCheck SCRF=Check GenChk RB3LYP/6-31G(2df,p) Fr
 eq
 ----------------------------------------------------------------------

 Structure from the checkpoint file:  "/scratch/puck/g09_44ebcf34-4a42-417c-918e-3f533b4f63d2/Gau-138518.chk"
 -----
 titel
 -----
 Charge =  0 Multiplicity = 1

                         Standard orientation:
 ---------------------------------------------------------------------
 Center     Atomic      Atomic             Coordinates (Angstroms)
 Number     Number       Type             X           Y           Z
 ---------------------------------------------------------------------
      1          6           0       -2.653363   -0.448849    0.343180
      2          6           0       -1.764601    0.582453   -0.362610
      3          6           0       -0.284679    0.301497   -0.256993
      4          8           0        0.543740    1.360238   -0.776129
      5          6           0        1.360806    1.377748    0.422651
      6          6           0        0.547233    0.229074    1.055410
      7          6           0        0.976197   -1.205273    0.658725
      8          8           0        1.644335   -1.129330   -0.599884
      9          6           0        0.216777   -1.141936   -0.607300
     10          1           0       -3.707421   -0.171468    0.254306
     11          1           0       -2.538992   -1.449950   -0.083836
     12          1           0       -2.417017   -0.514327    1.410588
     13          1           0       -2.020636    0.633415   -1.429688
     14          1           0       -1.949476    1.582341    0.045750
     15          1           0        2.410893    1.164444    0.205706
     16          1           0        1.269159    2.336715    0.945628
     17          1           0        0.102921    0.359723    2.040680
     18          1           0        1.218190   -2.043300    1.302225
     19          1           0       -0.262441   -1.913145   -1.201628
 ---------------------------------------------------------------------

 SCF Done:  E(RB3LYP) =  -423.114657531     A.U. after    1 cycles

 The electronic state is 1-A.
 Alpha  occ. eigenvalues --  -19.15734 -19.12808 -10.24347 -10.24022 -10.23643
 Alpha  occ. eigenvalues --  -10.22656 -10.19450 -10.18860 -10.18498  -1.08917
 Alpha  occ. eigenvalues --   -1.02737  -0.80167  -0.76503  -0.70243  -0.64397
 Alpha  occ. eigenvalues --   -0.62575  -0.60122  -0.53726  -0.50326  -0.48905
 Alpha  occ. eigenvalues --   -0.47089  -0.45458  -0.44149  -0.41512  -0.39561
 Alpha  occ. eigenvalues --   -0.38024  -0.37944  -0.36272  -0.34245  -0.34053
 Alpha  occ. eigenvalues --   -0.30829  -0.26761  -0.26424  -0.24041
 Alpha virt. eigenvalues --    0.05715   0.07690   0.09259   0.10917   0.11923
 Alpha virt. eigenvalues --    0.13040   0.14115   0.15185   0.16058   0.16532
 Alpha virt. eigenvalues --    0.16690   0.17713   0.19551   0.20754   0.21435

 Mulliken charges:
               1
     1  C   -0.391823
     2  C   -0.285166
     3  C    0.449759
     4  O   -0.327964
     5  C   -0.093298
     6  C   -0.193933
     7  C    0.016995
     8  O   -0.225317
     9  C   -0.041532
    10  H    0.121758
    11  H    0.122044
    12  H    0.119236
    13  H    0.112447
    14  H    0.109252
    15  H    0.116744
    16  H    0.098126
    17  H    0.085408
    18  H    0.106231
    19  H    0.101035
 Sum of Mulliken charges =   0.00000

 Dipole moment (field-independent basis, Debye):
    X=             -1.7680    Y=             -0.8294    Z=              2.1586  Tot=              2.9109
 Quadrupole moment (field-independent basis, Debye-Ang):
   XX=            -53.7106   YY=            -53.0691   ZZ=            -52.8167
   XY=              1.2827   XZ=              3.8260   YZ=              1.7379

  Exact polarizability:  79.670   1.584  74.449   4.388   2.029  66.832
 Approx polarizability: 109.366   0.520 105.939   5.586   1.914 109.355

                      1                      2                      3
                      A                      A                      A
 Frequencies --     92.9331               152.0468               200.5986
 Red. masses --      2.1087                 3.2546                 1.3901
 Frc consts  --      0.0107                 0.0443                 0.0330
 IR Inten    --      0.6335                 0.3996                 0.5879

                      4                      5                      6
                      A                      A                      A
 Frequencies --    252.7112               289.0179               313.4005
 Red. masses --      2.7861                 1.8515                 5.7189
 Frc consts  --      0.1048                 0.0911                 0.3310
 IR Inten    --      2.9550                 0.3861                 1.1099

                      7                      8                      9
                      A                      A                      A
 Frequencies --    403.7246               476.0009               552.1186
 Red. masses --      3.7491                 2.7609                 3.7418
 Frc consts  --      0.3600                 0.3686                 0.6720
 IR Inten    --      5.5364                 2.4105                 6.7459

                     10                     11                     12
                      A                      A                      A
 Frequencies --    645.1555               731.5869               774.5010
 Red. masses --      4.1873                 4.8770                 1.2620
 Frc consts  --      1.0269                 1.5379                 0.4460
 IR Inten    --     11.3744                 5.6877                 0.9231

                     13                     14                     15
                      A                      A                      A
 Frequencies --    805.7903               824.3305               849.5423
 Red. masses --      2.5330                 3.4228                 1.9685
 Frc consts  --      0.9690                 1.3704                 0.8370
 IR Inten    --      4.2694                 9.1746                16.9012

                     16                     17                     18
                      A                      A                      A
 Frequencies --    904.9001               929.0676               953.3185
 Red. masses --      2.3906                 2.3012                 1.6319
 Frc consts  --      1.1534                 1.1703                 0.8738
 IR Inten    --      0.5346                12.1274                12.7464

                     19                     20                     21
                      A                      A                      A
 Frequencies --    968.2997               991.8978              1000.8156
 Red. masses --      1.9110                 5.5679                 3.1880
 Frc consts  --      1.0557                 3.2276                 1.8814
 IR Inten    --      1.3846                54.5440                38.9292

                     22                     23                     24
                      A                      A                      A
 Frequencies --   1024.9819              1048.2552              1071.5588
 Red. masses --      2.1861                 1.5481                 2.3734
 Frc consts  --      1.3532                 1.0023                 1.6057
 IR Inten    --     16.7892                 2.6551                 2.2572

                     25                     26                     27
                      A                      A                      A
 Frequencies --   1085.5181              1129.8653              1164.6379
 Red. masses --      1.9113                 2.1980                 1.1983
 Frc consts  --      1.3270                 1.6532                 0.9576
 IR Inten    --      6.8821                25.2902                 1.9788

                     28                     29                     30
                      A                      A                      A
 Frequencies --   1173.6167              1210.0686              1241.7639
 Red. masses --      1.6258                 1.5755                 1.4468
 Frc consts  --      1.3194                 1.3592                 1.3144
 IR Inten    --      0.7335                 4.7814                 5.4225

                     31                     32                     33
                      A                      A                      A
 Frequencies --   1285.8522              1296.3491              1313.1072
 Red. masses --      1.7279                 1.3969                 2.0375
 Frc consts  --      1.6833                 1.3832                 2.0699
 IR Inten    --     10.5243                 2.4105                15.1527

                     34                     35                     36
                      A                      A                      A
 Frequencies --   1339.2175              1366.1905              1380.4198
 Red. masses --      1.6752                 1.7137                 3.0274
 Frc consts  --      1.7702                 1.8845                 3.3990
 IR Inten    --      4.1851                 1.8188                 7.3227

                     37                     38                     39
                      A                      A                      A
 Frequencies --   1414.5444              1483.5284              1502.5374
 Red. masses --      1.2322                 1.0649                 1.0396
 Frc consts  --      1.4527                 1.3809                 1.3828
 IR Inten    --      2.0414                 0.5270                 6.2815

                     40                     41                     42
                      A                      A                      A
 Frequencies --   1505.6829              1506.6220              3021.7598
 Red. masses --      1.0945                 1.0907                 1.0632
 Frc consts  --      1.4620                 1.4586                 5.7198
 IR Inten    --      2.0711                 2.3704                19.8512

                     43                     44                     45
                      A                      A                      A
 Frequencies --   3029.9189              3039.0742              3064.5092
 Red. masses --      1.0605                 1.0357                 1.0980
 Frc consts  --      5.7362                 5.6361                 6.0753
 IR Inten    --     72.7936                21.1120                 8.8667

                     46                     47                     48
                      A                      A                      A
 Frequencies --   3094.7900              3105.4060              3112.6381
 Red. masses --      1.1052                 1.1013                 1.1011
 Frc consts  --      6.2365                 6.2574                 6.2856
 IR Inten    --     22.8246                28.3135                31.5561

                     49                     50                     51
                      A                      A                      A
 Frequencies --   3130.5114              3165.4010              3187.2605
 Red. masses --      1.0895                 1.0892                 1.0992
 Frc consts  --      6.2907                 6.4301                 6.5790
 IR Inten    --     20.2674                19.7524                22.0633

 - Thermochemistry -
 -------------------
 Temperature   298.150 Kelvin.  Pressure   1.00000 Atm.
 Atom     1 has atomic number  6 and mass  12.00000

 Molecular mass:   126.06808 amu.
 Principal axes and moments of inertia in atomic units:
                           1         2         3
     Eigenvalues --   681.122761100.673671377.42686
           X            0.99905   0.04203   0.01189
           Y           -0.04224   0.99895   0.01785
           Z           -0.01113  -0.01833   0.99977
 This molecule is an asymmetric top.
 Rotational symmetry number  1.
 Warning -- assumption of classical behavior for rotation
           may cause significant error
 Rotational temperatures (Kelvin)      0.12716     0.07869     0.06288
 Rotational constants (GHZ):           2.64966     1.63967     1.31023
 Zero-point vibrational energy     416344.4 (Joules/Mol)
                                   99.50869 (Kcal/Mol)
 Warning -- explicit consideration of   9 degrees of freedom as
           vibrations may cause significant error
 Vibrational temperatures:    133.71   218.76   288.62   363.59   415.83
          (Kelvin)            450.91   580.87   684.86   794.37   928.23
                             1052.59  1114.33  1159.35  1186.03  1222.30
                             1301.95  1336.72  1371.61  1393.17  1427.12
                             1439.95  1474.72  1508.20  1541.73  1561.82
                             1625.62  1675.65  1688.57  1741.02  1786.62
                             1850.05  1865.15  1889.27  1926.83  1965.64
                             1986.11  2035.21  2134.46  2161.81  2166.34
                             2167.69  4347.63  4359.37  4372.54  4409.14
                             4452.71  4467.98  4478.39  4504.10  4554.30
                             4585.75

 Zero-point correction=                           0.158577 (Hartree/Particle)
 Thermal correction to Energy=                    0.166509
 Thermal correction to Enthalpy=                  0.167453
 Thermal correction to Gibbs Free Energy=         0.126215
 Sum of electronic and zero-point Energies=           -422.956080
 Sum of electronic and thermal Energies=              -422.948149
 Sum of electronic and thermal Enthalpies=            -422.947205
 Sum of electronic and thermal Free Energies=         -422.988442

                     E (Thermal)             CV                S
                      KCal/Mol        Cal/Mol-Kelvin    Cal/Mol-Kelvin
 Total                  104.486             31.016             86.792
 Electronic               0.000              0.000              0.000
 Translational            0.889              2.981             40.409
 Rotational               0.889              2.981             28.426
 Vibrational            102.708             25.054             17.958
 Vibration     1          0.602              1.954              3.597
 Vibration     2          0.619              1.900              2.646
 Vibration     3          0.638              1.839              2.128
 Vibration     4          0.664              1.758              1.712
 Vibration     5          0.686              1.694              1.480
 Vibration     6          0.701              1.648              1.344
 Vibration     7          0.769              1.462              0.949
 Vibration     8          0.833              1.303              0.721
 Vibration     9          0.907              1.135              0.540

 Optimization completed.
    -- Stationary point found.
 Normal termination of Gaussian 09 at Tue Jan 28 12:51:26 2020.
