 Gaussian 09, Revision D.01,
 Gaussian 09:  ES64L-G09RevD.01 24-Apr-2013

 -----------------------------
 # b3lyp 6-31G(2df,p) opt Freq
 -----------------------------

 -----
 titel
 -----
 Symbolic Z-matrix:
 Charge =  0 Multiplicity = 1

 SCF Done:  E(RB3LYP) =  -423.175212399     A.U. after   13 cycles
 Optimization completed.
    -- Stationary point found.
 Normal termination of Gaussian 09 at Tue Jan 28 12:09:21 2020.

 ----------------------------------------------------------------------
 #N Geom=AllCheck Guess=TCheck SCRF=Check GenChk RB3LYP/6-31G(2df,p) Fr
 eq
 ----------------------------------------------------------------------

 Structure from the checkpoint file:  "/scratch/puck/g09_39c36eef-3d93-47e8-b2a8-cfc88b440fe6/Gau-19193.chk"
 -----
 titel
 -----
 Charge =  0 Multiplicity = 1

                         Standard orientation:
 ---------------------------------------------------------------------
 Center     Atomic      Atomic             Coordinates (Angstroms)
 Number     Number       Type             X           Y           Z
 ---------------------------------------------------------------------
      1          8           0       -2.748644    0.141472   -0.425369
      2          6           0       -1.849423   -0.034431    0.663108
      3          6           0       -0.393037    0.023088    0.242185
      4          6           0        0.103646   -1.153962   -0.665350
      5          8           0        1.528472   -1.095891   -0.579270
      6          6           0        1.823983    0.028890    0.304066
      7          6           0        0.700999   -0.091292    1.342840
      8          6           0        1.415321    1.295524   -0.432888
      9          6           0        0.078751    1.280001   -0.476274
     10          1           0       -2.680639   -0.628583   -0.998190
     11          1           0       -2.067411    0.784955    1.356240
     12          1           0       -2.048227   -0.976916    1.198327
     13          1           0       -0.247227   -2.123863   -0.283668
     14          1           0       -0.216009   -1.044508   -1.708787
     15          1           0        2.858522   -0.068216    0.628190
     16          1           0        0.708345   -1.051838    1.866928
     17          1           0        0.668526    0.735383    2.054461
     18          1           0        2.091570    1.978847   -0.929900
     19          1           0       -0.587512    1.943186   -1.012612
 ---------------------------------------------------------------------

 SCF Done:  E(RB3LYP) =  -423.175212399     A.U. after    1 cycles

 The electronic state is 1-A.
 Alpha  occ. eigenvalues --  -19.14116 -19.13279 -10.23383 -10.23192 -10.22724
 Alpha  occ. eigenvalues --  -10.20101 -10.18637 -10.18241 -10.17900  -1.03122
 Alpha  occ. eigenvalues --   -1.02037  -0.84384  -0.75655  -0.71474  -0.67779
 Alpha  occ. eigenvalues --   -0.60855  -0.57758  -0.52996  -0.52637  -0.48970
 Alpha  occ. eigenvalues --   -0.48058  -0.44986  -0.42996  -0.42378  -0.38989
 Alpha  occ. eigenvalues --   -0.38676  -0.37309  -0.35380  -0.34907  -0.32655
 Alpha  occ. eigenvalues --   -0.30261  -0.27470  -0.25377  -0.24114
 Alpha virt. eigenvalues --    0.00773   0.06203   0.10277   0.11768   0.12842
 Alpha virt. eigenvalues --    0.12994   0.14110   0.16190   0.16943   0.17315
 Alpha virt. eigenvalues --    0.17803   0.18206   0.20103   0.20748   0.21567

 Mulliken charges:
               1
     1  O   -0.419107
     2  C   -0.180615
     3  C    0.227430
     4  C   -0.106479
     5  O   -0.277108
     6  C    0.051693
     7  C   -0.267279
     8  C   -0.093531
     9  C   -0.105112
    10  H    0.287874
    11  H    0.114123
    12  H    0.088301
    13  H    0.092030
    14  H    0.095395
    15  H    0.075330
    16  H    0.098509
    17  H    0.104850
    18  H    0.101961
    19  H    0.111737
 Sum of Mulliken charges =   0.00000

 Dipole moment (field-independent basis, Debye):
    X=             -0.1383    Y=             -0.2072    Z=              0.7275  Tot=              0.7690
 Quadrupole moment (field-independent basis, Debye-Ang):
   XX=            -57.2052   YY=            -52.8851   ZZ=            -51.6417
   XY=              6.1994   XZ=              2.1919   YZ=             -0.2861

  Exact polarizability:  84.709   3.877  71.963   2.044  -2.446  66.765
 Approx polarizability: 128.571   1.790 109.989   3.962  -1.306  99.833

                      1                      2                      3
                      A                      A                      A
 Frequencies --     95.7041               172.2484               253.6716
 Red. masses --      3.2599                 4.3708                 1.7905
 Frc consts  --      0.0176                 0.0764                 0.0679
 IR Inten    --      3.0182                 1.3979                40.2199

                      4                      5                      6
                      A                      A                      A
 Frequencies --    291.5210               329.3600               392.7849
 Red. masses --      1.6742                 1.6744                 3.9598
 Frc consts  --      0.0838                 0.1070                 0.3599
 IR Inten    --     54.4434                31.1721                 6.7285

                      7                      8                      9
                      A                      A                      A
 Frequencies --    418.4365               493.3340               520.0877
 Red. masses --      3.1898                 1.8930                 3.0679
 Frc consts  --      0.3291                 0.2715                 0.4889
 IR Inten    --      3.9470                 1.0035                 1.2268

                     10                     11                     12
                      A                      A                      A
 Frequencies --    657.2618               679.7723               751.9294
 Red. masses --      3.9502                 4.3495                 1.6166
 Frc consts  --      1.0054                 1.1842                 0.5385
 IR Inten    --     12.7930                 0.1475                16.4577

                     13                     14                     15
                      A                      A                      A
 Frequencies --    804.1054               809.9607               869.2574
 Red. masses --      3.5812                 4.8150                 3.2944
 Frc consts  --      1.3643                 1.8611                 1.4667
 IR Inten    --      5.0660                 6.1329                52.9749

                     16                     17                     18
                      A                      A                      A
 Frequencies --    889.2796               927.8811               945.4931
 Red. masses --      2.1871                 2.2331                 1.7070
 Frc consts  --      1.0191                 1.1328                 0.8991
 IR Inten    --     12.8334                 3.5285                 9.6589

                     19                     20                     21
                      A                      A                      A
 Frequencies --    956.2691               979.9845               992.6072
 Red. masses --      1.5312                 1.8670                 2.3878
 Frc consts  --      0.8250                 1.0564                 1.3861
 IR Inten    --      4.7695                 5.0602                 4.0742

                     22                     23                     24
                      A                      A                      A
 Frequencies --   1022.2084              1055.3597              1072.8828
 Red. masses --      3.1355                 3.2421                 1.5314
 Frc consts  --      1.9303                 2.1275                 1.0386
 IR Inten    --     86.4725                19.4387                25.3499

                     25                     26                     27
                      A                      A                      A
 Frequencies --   1095.8160              1128.3346              1154.8425
 Red. masses --      1.4964                 1.7359                 1.3083
 Frc consts  --      1.0587                 1.3021                 1.0280
 IR Inten    --     13.2200                 3.5697                 8.3992

                     28                     29                     30
                      A                      A                      A
 Frequencies --   1206.5595              1218.3280              1263.5484
 Red. masses --      1.3768                 1.6456                 1.5246
 Frc consts  --      1.1809                 1.4391                 1.4341
 IR Inten    --      1.9445                20.8983                 1.0103

                     31                     32                     33
                      A                      A                      A
 Frequencies --   1274.2207              1283.4526              1295.6341
 Red. masses --      1.7079                 1.6375                 1.3945
 Frc consts  --      1.6338                 1.5892                 1.3792
 IR Inten    --      6.7227                 0.4211                 0.2252

                     34                     35                     36
                      A                      A                      A
 Frequencies --   1346.4932              1372.8484              1388.0743
 Red. masses --      1.5627                 1.6852                 1.3225
 Frc consts  --      1.6693                 1.8713                 1.5013
 IR Inten    --     14.8024                 4.3172                 1.8033

                     37                     38                     39
                      A                      A                      A
 Frequencies --   1418.6604              1488.7893              1499.4824
 Red. masses --      1.2814                 1.1173                 1.0828
 Frc consts  --      1.5195                 1.4592                 1.4344
 IR Inten    --     48.2606                 1.6041                 1.5971

                     40                     41                     42
                      A                      A                      A
 Frequencies --   1522.8562              1633.8876              2976.6217
 Red. masses --      1.0929                 6.0601                 1.0699
 Frc consts  --      1.4934                 9.5318                 5.5853
 IR Inten    --      1.3019                 1.5507                44.8853

                     43                     44                     45
                      A                      A                      A
 Frequencies --   2992.6299              3043.4055              3060.2340
 Red. masses --      1.0602                 1.1035                 1.0604
 Frc consts  --      5.5943                 6.0219                 5.8510
 IR Inten    --     66.8565                36.2954                34.1042

                     46                     47                     48
                      A                      A                      A
 Frequencies --   3071.1800              3129.4927              3140.5938
 Red. masses --      1.0931                 1.1056                 1.0905
 Frc consts  --      6.0744                 6.3797                 6.3374
 IR Inten    --     24.1978                20.9056                34.3214

                     49                     50                     51
                      A                      A                      A
 Frequencies --   3206.0176              3230.8053              3822.7316
 Red. masses --      1.0860                 1.1068                 1.0663
 Frc consts  --      6.5767                 6.8069                 9.1807
 IR Inten    --      4.6798                10.5041                17.7999

 - Thermochemistry -
 -------------------
 Temperature   298.150 Kelvin.  Pressure   1.00000 Atm.
 Atom     1 has atomic number  8 and mass  15.99491

 Molecular mass:   126.06808 amu.
 Principal axes and moments of inertia in atomic units:
                           1         2         3
     Eigenvalues --   560.577411305.895031405.35368
           X            0.99967   0.02567   0.00298
           Y           -0.02550   0.99847  -0.04911
           Z           -0.00423   0.04902   0.99879
 This molecule is an asymmetric top.
 Rotational symmetry number  1.
 Warning -- assumption of classical behavior for rotation
           may cause significant error
 Rotational temperatures (Kelvin)      0.15451     0.06633     0.06163
 Rotational constants (GHZ):           3.21943     1.38200     1.28419
 Zero-point vibrational energy     422562.5 (Joules/Mol)
                                  100.99487 (Kcal/Mol)
 Warning -- explicit consideration of   9 degrees of freedom as
           vibrations may cause significant error
 Vibrational temperatures:    137.70   247.83   364.98   419.43   473.88
          (Kelvin)            565.13   602.04   709.80   748.29   945.65
                              978.04  1081.86  1156.93  1165.35  1250.67
                             1279.47  1335.01  1360.35  1375.86  1409.98
                             1428.14  1470.73  1518.43  1543.64  1576.63
                             1623.42  1661.56  1735.97  1752.90  1817.96
                             1833.32  1846.60  1864.13  1937.30  1975.22
                             1997.13  2041.13  2142.03  2157.42  2191.05
                             2350.80  4282.69  4305.72  4378.78  4402.99
                             4418.74  4502.64  4518.61  4612.74  4648.40
                             5500.05

 Zero-point correction=                           0.160946 (Hartree/Particle)
 Thermal correction to Energy=                    0.168590
 Thermal correction to Enthalpy=                  0.169534
 Thermal correction to Gibbs Free Energy=         0.129005
 Sum of electronic and zero-point Energies=           -423.014267
 Sum of electronic and thermal Energies=              -423.006622
 Sum of electronic and thermal Enthalpies=            -423.005678
 Sum of electronic and thermal Free Energies=         -423.046208

                     E (Thermal)             CV                S
                      KCal/Mol        Cal/Mol-Kelvin    Cal/Mol-Kelvin
 Total                  105.792             30.713             85.302
 Electronic               0.000              0.000              0.000
 Translational            0.889              2.981             40.409
 Rotational               0.889              2.981             28.422
 Vibrational            104.015             24.751             16.471
 Vibration     1          0.603              1.952              3.540
 Vibration     2          0.626              1.877              2.411
 Vibration     3          0.665              1.757              1.705
 Vibration     4          0.687              1.690              1.465
 Vibration     5          0.712              1.617              1.263
 Vibration     6          0.760              1.486              0.990
 Vibration     7          0.781              1.430              0.897
 Vibration     8          0.849              1.265              0.675
 Vibration     9          0.875              1.206              0.610

 Optimization completed.
    -- Stationary point found.
 Normal termination of Gaussian 09 at Tue Jan 28 12:58:22 2020.
