 Gaussian 09, Revision D.01,
 Gaussian 09:  ES64L-G09RevD.01 24-Apr-2013

 -----------------------------
 # b3lyp 6-31G(2df,p) opt Freq
 -----------------------------

 -----
 titel
 -----
 Symbolic Z-matrix:
 Charge =  0 Multiplicity = 1

 SCF Done:  E(RB3LYP) =  -423.130652641     A.U. after   13 cycles
 Optimization completed.
    -- Stationary point found.
 Normal termination of Gaussian 09 at Mon Jan 27 23:45:42 2020.

 ----------------------------------------------------------------------
 #N Geom=AllCheck Guess=TCheck SCRF=Check GenChk RB3LYP/6-31G(2df,p) Fr
 eq
 ----------------------------------------------------------------------

 Structure from the checkpoint file:  "/scratch/puck/g09_c57b7e6b-c3ba-469a-b5d3-b24aacf9c11c/Gau-193901.chk"
 -----
 titel
 -----
 Charge =  0 Multiplicity = 1

                         Standard orientation:
 ---------------------------------------------------------------------
 Center     Atomic      Atomic             Coordinates (Angstroms)
 Number     Number       Type             X           Y           Z
 ---------------------------------------------------------------------
      1          6           0        2.578098   -0.936768    0.007150
      2          6           0        1.288105   -0.315910   -0.520993
      3          6           0        0.963720    1.043400    0.152817
      4          8           0       -0.104465    1.738411   -0.530003
      5          6           0       -1.103130    0.954736    0.152132
      6          6           0       -1.300371   -0.424595   -0.521177
      7          8           0       -2.451345   -1.006518    0.059090
      8          6           0        0.015610   -0.912846    0.148108
      9          6           0       -0.043281    0.339145    1.106820
     10          1           0        2.681459   -1.973941   -0.328267
     11          1           0        3.454305   -0.379375   -0.340778
     12          1           0        2.598685   -0.940444    1.103455
     13          1           0        1.289831   -0.288350   -1.616093
     14          1           0        1.783208    1.712440    0.426016
     15          1           0       -1.994723    1.523227    0.421249
     16          1           0       -1.338970   -0.431902   -1.619594
     17          1           0       -2.418424   -1.956007   -0.096975
     18          1           0        0.048245   -1.954251    0.476822
     19          1           0       -0.049645    0.350483    2.192320
 ---------------------------------------------------------------------

 SCF Done:  E(RB3LYP) =  -423.130652641     A.U. after    1 cycles

 The electronic state is 1-A.
 Alpha  occ. eigenvalues --  -19.14137 -19.13272 -10.23120 -10.22911 -10.22878
 Alpha  occ. eigenvalues --  -10.19017 -10.18987 -10.18946 -10.18181  -1.04784
 Alpha  occ. eigenvalues --   -1.02093  -0.84719  -0.76475  -0.69812  -0.65488
 Alpha  occ. eigenvalues --   -0.61012  -0.58306  -0.52567  -0.50350  -0.49656
 Alpha  occ. eigenvalues --   -0.48748  -0.45449  -0.42405  -0.40087  -0.39515
 Alpha  occ. eigenvalues --   -0.38734  -0.37342  -0.36723  -0.32613  -0.30652
 Alpha  occ. eigenvalues --   -0.29521  -0.28090  -0.25885  -0.23800
 Alpha virt. eigenvalues --    0.06122   0.07865   0.09416   0.11782   0.12437
 Alpha virt. eigenvalues --    0.13542   0.14643   0.15206   0.16070   0.16274
 Alpha virt. eigenvalues --    0.17160   0.18105   0.20038   0.20911   0.22253

 Mulliken charges:
               1
     1  C   -0.410366
     2  C   -0.015375
     3  C    0.102426
     4  O   -0.312113
     5  C    0.093314
     6  C    0.100276
     7  O   -0.440625
     8  C   -0.100583
     9  C   -0.089750
    10  H    0.117417
    11  H    0.118298
    12  H    0.117684
    13  H    0.074324
    14  H    0.073832
    15  H    0.085981
    16  H    0.067355
    17  H    0.283646
    18  H    0.056747
    19  H    0.077513
 Sum of Mulliken charges =   0.00000

 Dipole moment (field-independent basis, Debye):
    X=              1.1579    Y=             -2.1523    Z=              0.5064  Tot=              2.4959
 Quadrupole moment (field-independent basis, Debye-Ang):
   XX=            -54.4477   YY=            -52.0932   ZZ=            -52.9519
   XY=              1.9718   XZ=              0.9411   YZ=              2.8856

  Exact polarizability:  85.461   0.027  72.862  -0.522   1.456  64.260
 Approx polarizability: 113.396   1.564 108.888  -1.646  -0.698 100.523

                      1                      2                      3
                      A                      A                      A
 Frequencies --    166.5847               191.7264               228.4151
 Red. masses --      3.0477                 2.3412                 2.9307
 Frc consts  --      0.0498                 0.0507                 0.0901
 IR Inten    --      0.1789                 2.0008                 4.3241

                      4                      5                      6
                      A                      A                      A
 Frequencies --    241.1018               288.6213               340.9885
 Red. masses --      1.1309                 1.2732                 3.3903
 Frc consts  --      0.0387                 0.0625                 0.2323
 IR Inten    --      1.1383                80.7692                12.7823

                      7                      8                      9
                      A                      A                      A
 Frequencies --    369.3949               439.7733               488.0137
 Red. masses --      3.4691                 4.6676                 6.2566
 Frc consts  --      0.2789                 0.5319                 0.8779
 IR Inten    --     20.5695                 0.9530                 3.8548

                     10                     11                     12
                      A                      A                      A
 Frequencies --    718.4893               751.2590               829.1511
 Red. masses --      3.1750                 3.9031                 1.7552
 Frc consts  --      0.9657                 1.2979                 0.7110
 IR Inten    --      2.8135                 7.9607                 2.8551

                     13                     14                     15
                      A                      A                      A
 Frequencies --    841.6782               846.9974               892.9845
 Red. masses --      1.5032                 1.8682                 2.2793
 Frc consts  --      0.6274                 0.7896                 1.0709
 IR Inten    --      2.1213                 4.4560                 4.6812

                     16                     17                     18
                      A                      A                      A
 Frequencies --    912.1767               942.5963               974.3540
 Red. masses --      2.2869                 2.3192                 3.5138
 Frc consts  --      1.1211                 1.2141                 1.9654
 IR Inten    --      2.8550                10.2918                18.9484

                     19                     20                     21
                      A                      A                      A
 Frequencies --    994.3217              1010.4317              1026.4040
 Red. masses --      3.0991                 4.5267                 2.3222
 Frc consts  --      1.8052                 2.7230                 1.4414
 IR Inten    --     44.1766                49.9582                36.5026

                     22                     23                     24
                      A                      A                      A
 Frequencies --   1052.6517              1077.1401              1093.7345
 Red. masses --      2.2088                 1.5556                 2.5427
 Frc consts  --      1.4421                 1.0634                 1.7922
 IR Inten    --      2.5783                 7.9139                35.3624

                     25                     26                     27
                      A                      A                      A
 Frequencies --   1116.2809              1140.2074              1149.6157
 Red. masses --      2.1513                 2.4992                 2.4192
 Frc consts  --      1.5794                 1.9144                 1.8837
 IR Inten    --      8.5872                16.8261                 7.8157

                     28                     29                     30
                      A                      A                      A
 Frequencies --   1182.8508              1186.7249              1200.2210
 Red. masses --      1.3833                 1.5210                 1.4002
 Frc consts  --      1.1404                 1.2620                 1.1884
 IR Inten    --     15.5940                 2.2724                 9.3452

                     31                     32                     33
                      A                      A                      A
 Frequencies --   1227.2957              1265.2667              1272.1722
 Red. masses --      1.3825                 1.4239                 1.4312
 Frc consts  --      1.2269                 1.3431                 1.3647
 IR Inten    --      5.2200                 0.3544                 1.9396

                     34                     35                     36
                      A                      A                      A
 Frequencies --   1282.6393              1314.0752              1329.0238
 Red. masses --      1.7042                 1.4804                 1.4958
 Frc consts  --      1.6519                 1.5062                 1.5566
 IR Inten    --      1.6301                11.6357                44.7054

                     37                     38                     39
                      A                      A                      A
 Frequencies --   1359.6884              1404.6805              1410.9328
 Red. masses --      1.5866                 1.4927                 1.3006
 Frc consts  --      1.7282                 1.7354                 1.5255
 IR Inten    --      0.8528                 6.2100                 1.7709

                     40                     41                     42
                      A                      A                      A
 Frequencies --   1495.9012              1497.4455              3003.1276
 Red. masses --      1.0458                 1.0492                 1.0850
 Frc consts  --      1.3788                 1.3861                 5.7656
 IR Inten    --      4.7661                 2.5739                57.1355

                     43                     44                     45
                      A                      A                      A
 Frequencies --   3025.2325              3046.8934              3078.0940
 Red. masses --      1.0353                 1.0849                 1.0888
 Frc consts  --      5.5825                 5.9343                 6.0779
 IR Inten    --     24.3775                26.8772                63.6187

                     46                     47                     48
                      A                      A                      A
 Frequencies --   3081.0893              3092.0434              3099.2587
 Red. masses --      1.0901                 1.1000                 1.1017
 Frc consts  --      6.0974                 6.1964                 6.2351
 IR Inten    --     31.7844                39.3810                28.5827

                     49                     50                     51
                      A                      A                      A
 Frequencies --   3102.8184              3162.0389              3810.3486
 Red. masses --      1.0907                 1.0948                 1.0662
 Frc consts  --      6.1867                 6.4493                 9.1207
 IR Inten    --     39.6721                22.8813                18.5670

 - Thermochemistry -
 -------------------
 Temperature   298.150 Kelvin.  Pressure   1.00000 Atm.
 Atom     1 has atomic number  6 and mass  12.00000

 Molecular mass:   126.06808 amu.
 Principal axes and moments of inertia in atomic units:
                           1         2         3
     Eigenvalues --   609.418981154.326551487.34460
           X            0.99958  -0.02878   0.00357
           Y            0.02868   0.99930   0.02403
           Z           -0.00426  -0.02391   0.99970
 This molecule is an asymmetric top.
 Rotational symmetry number  1.
 Warning -- assumption of classical behavior for rotation
           may cause significant error
 Rotational temperatures (Kelvin)      0.14213     0.07503     0.05823
 Rotational constants (GHZ):           2.96141     1.56346     1.21340
 Zero-point vibrational energy     419021.7 (Joules/Mol)
                                  100.14859 (Kcal/Mol)
 Warning -- explicit consideration of   9 degrees of freedom as
           vibrations may cause significant error
 Vibrational temperatures:    239.68   275.85   328.64   346.89   415.26
          (Kelvin)            490.61   531.48   632.73   702.14  1033.74
                             1080.89  1192.96  1210.99  1218.64  1284.80
                             1312.42  1356.18  1401.88  1430.61  1453.78
                             1476.76  1514.53  1549.76  1573.64  1606.08
                             1640.50  1654.04  1701.86  1707.43  1726.85
                             1765.80  1820.43  1830.37  1845.43  1890.66
                             1912.17  1956.29  2021.02  2030.02  2152.27
                             2154.49  4320.83  4352.63  4383.79  4428.69
                             4432.99  4448.76  4459.14  4464.26  4549.46
                             5482.23

 Zero-point correction=                           0.159597 (Hartree/Particle)
 Thermal correction to Energy=                    0.167296
 Thermal correction to Enthalpy=                  0.168240
 Thermal correction to Gibbs Free Energy=         0.127806
 Sum of electronic and zero-point Energies=           -422.971056
 Sum of electronic and thermal Energies=              -422.963357
 Sum of electronic and thermal Enthalpies=            -422.962412
 Sum of electronic and thermal Free Energies=         -423.002846

                     E (Thermal)             CV                S
                      KCal/Mol        Cal/Mol-Kelvin    Cal/Mol-Kelvin
 Total                  104.980             30.717             85.100
 Electronic               0.000              0.000              0.000
 Translational            0.889              2.981             40.409
 Rotational               0.889              2.981             28.439
 Vibrational            103.202             24.755             16.253
 Vibration     1          0.624              1.884              2.474
 Vibration     2          0.634              1.851              2.211
 Vibration     3          0.651              1.798              1.891
 Vibration     4          0.658              1.777              1.795
 Vibration     5          0.685              1.695              1.482
 Vibration     6          0.721              1.594              1.208
 Vibration     7          0.742              1.535              1.082
 Vibration     8          0.800              1.383              0.827
 Vibration     9          0.844              1.277              0.689

 Optimization completed.
    -- Stationary point found.
 Normal termination of Gaussian 09 at Tue Jan 28 00:31:02 2020.
