 Gaussian 09, Revision D.01,
 Gaussian 09:  ES64L-G09RevD.01 24-Apr-2013

 -----------------------------
 # b3lyp 6-31G(2df,p) opt Freq
 -----------------------------

 -----
 titel
 -----
 Symbolic Z-matrix:
 Charge =  0 Multiplicity = 1

 SCF Done:  E(RB3LYP) =  -423.175980503     A.U. after   14 cycles
 Optimization completed.
    -- Stationary point found.
 Normal termination of Gaussian 09 at Tue Jan 28 02:53:03 2020.

 ----------------------------------------------------------------------
 #N Geom=AllCheck Guess=TCheck SCRF=Check GenChk RB3LYP/6-31G(2df,p) Fr
 eq
 ----------------------------------------------------------------------

 Structure from the checkpoint file:  "/scratch/puck/g09_d788f966-ec29-471f-9f08-8f2150569fda/Gau-196312.chk"
 -----
 titel
 -----
 Charge =  0 Multiplicity = 1

                         Standard orientation:
 ---------------------------------------------------------------------
 Center     Atomic      Atomic             Coordinates (Angstroms)
 Number     Number       Type             X           Y           Z
 ---------------------------------------------------------------------
      1          6           0        2.425341    0.621715   -0.580317
      2          6           0        1.683415   -0.329070    0.334644
      3          8           0        1.016184   -1.413932   -0.364083
      4          6           0       -0.225686   -1.168974    0.320933
      5          6           0       -1.210558   -0.316946   -0.525371
      6          6           0       -2.697453   -0.468541   -0.196676
      7          6           0       -0.576311    0.936300    0.126050
      8          8           0       -0.798427    2.109318    0.035888
      9          6           0        0.355525    0.100377    1.018539
     10          1           0        1.756985    1.075426   -1.316869
     11          1           0        2.890344    1.422515    0.004111
     12          1           0        3.215312    0.084419   -1.114309
     13          1           0        2.372115   -0.748321    1.080877
     14          1           0       -0.615003   -2.047003    0.841054
     15          1           0       -1.032756   -0.404337   -1.601504
     16          1           0       -3.270536    0.344357   -0.650901
     17          1           0       -3.083643   -1.420327   -0.573574
     18          1           0       -2.874540   -0.436028    0.884047
     19          1           0        0.374027    0.317053    2.085823
 ---------------------------------------------------------------------

 SCF Done:  E(RB3LYP) =  -423.175980503     A.U. after    1 cycles

 The electronic state is 1-A.
 Alpha  occ. eigenvalues --  -19.14170 -19.14002 -10.27136 -10.25028 -10.24362
 Alpha  occ. eigenvalues --  -10.19985 -10.19693 -10.19147 -10.18272  -1.05454
 Alpha  occ. eigenvalues --   -1.04375  -0.83416  -0.76969  -0.73316  -0.66139
 Alpha  occ. eigenvalues --   -0.61660  -0.57836  -0.51326  -0.51184  -0.47726
 Alpha  occ. eigenvalues --   -0.46980  -0.44772  -0.42904  -0.41640  -0.40442
 Alpha  occ. eigenvalues --   -0.40100  -0.38545  -0.37393  -0.36650  -0.35286
 Alpha  occ. eigenvalues --   -0.31905  -0.30274  -0.25497  -0.24220
 Alpha virt. eigenvalues --   -0.02927   0.07721   0.09665   0.10862   0.11668
 Alpha virt. eigenvalues --    0.12851   0.14621   0.14979   0.15414   0.15999
 Alpha virt. eigenvalues --    0.16756   0.17847   0.18184   0.19189   0.21551

 Mulliken charges:
               1
     1  C   -0.405323
     2  C    0.142744
     3  O   -0.310236
     4  C    0.107021
     5  C   -0.133300
     6  C   -0.409439
     7  C    0.409679
     8  O   -0.309966
     9  C   -0.248087
    10  H    0.131625
    11  H    0.127278
    12  H    0.130732
    13  H    0.086838
    14  H    0.083284
    15  H    0.109927
    16  H    0.141069
    17  H    0.126413
    18  H    0.120833
    19  H    0.098907
 Sum of Mulliken charges =   0.00000

 Dipole moment (field-independent basis, Debye):
    X=              0.0798    Y=             -1.3844    Z=              1.0339  Tot=              1.7297
 Quadrupole moment (field-independent basis, Debye-Ang):
   XX=            -49.3137   YY=            -61.5794   ZZ=            -51.1533
   XY=              4.9666   XZ=              1.3014   YZ=             -1.4271

  Exact polarizability:  88.380   2.569  73.902   2.834  -0.825  64.758
 Approx polarizability: 111.586  -0.956 118.812   3.959   0.833  99.549

                      1                      2                      3
                      A                      A                      A
 Frequencies --     59.6738               125.6373               187.0663
 Red. masses --      3.8436                 4.0703                 2.7713
 Frc consts  --      0.0081                 0.0379                 0.0571
 IR Inten    --      3.6286                 2.4752                 1.4796

                      4                      5                      6
                      A                      A                      A
 Frequencies --    213.9841               216.5868               232.8073
 Red. masses --      1.4699                 1.2276                 1.4462
 Frc consts  --      0.0397                 0.0339                 0.0462
 IR Inten    --      0.3516                 0.5526                 0.9538

                      7                      8                      9
                      A                      A                      A
 Frequencies --    334.0276               391.3182               429.7481
 Red. masses --      2.7388                 5.1308                 4.3413
 Frc consts  --      0.1800                 0.4629                 0.4724
 IR Inten    --      2.6644                 8.1557                 1.8780

                     10                     11                     12
                      A                      A                      A
 Frequencies --    466.1253               611.9256               697.2917
 Red. masses --      3.2287                 4.6039                 3.1207
 Frc consts  --      0.4133                 1.0157                 0.8940
 IR Inten    --      2.2937                 2.7961                 0.2559

                     13                     14                     15
                      A                      A                      A
 Frequencies --    749.6245               816.1289               838.8921
 Red. masses --      3.1653                 2.7383                 1.7794
 Frc consts  --      1.0480                 1.0746                 0.7378
 IR Inten    --      0.2333                 0.6303                 6.2595

                     16                     17                     18
                      A                      A                      A
 Frequencies --    880.8869               896.3083               901.8423
 Red. masses --      1.8859                 2.3985                 3.5705
 Frc consts  --      0.8622                 1.1353                 1.7110
 IR Inten    --      8.2174                25.0850                 2.6204

                     19                     20                     21
                      A                      A                      A
 Frequencies --    992.3161              1010.9943              1023.0710
 Red. masses --      2.4426                 1.2544                 3.5439
 Frc consts  --      1.4171                 0.7554                 2.1855
 IR Inten    --     11.2378                12.0850                71.8272

                     22                     23                     24
                      A                      A                      A
 Frequencies --   1064.2721              1086.4877              1102.3531
 Red. masses --      1.6716                 2.3508                 1.9327
 Frc consts  --      1.1155                 1.6350                 1.3837
 IR Inten    --      2.5816                35.6113                13.3793

                     25                     26                     27
                      A                      A                      A
 Frequencies --   1110.3844              1146.0894              1171.5115
 Red. masses --      2.6924                 2.6383                 1.8208
 Frc consts  --      1.9558                 2.0418                 1.4723
 IR Inten    --     14.5055                39.3345                13.3108

                     28                     29                     30
                      A                      A                      A
 Frequencies --   1203.7439              1226.1110              1247.9416
 Red. masses --      1.5908                 1.9018                 1.7708
 Frc consts  --      1.3581                 1.6845                 1.6248
 IR Inten    --      3.1528                26.3452                 4.8218

                     31                     32                     33
                      A                      A                      A
 Frequencies --   1272.6304              1312.1486              1338.0016
 Red. masses --      1.2858                 1.5452                 1.5163
 Frc consts  --      1.2269                 1.5675                 1.5993
 IR Inten    --      3.4555                17.3030                11.5216

                     34                     35                     36
                      A                      A                      A
 Frequencies --   1385.3637              1404.5603              1412.4004
 Red. masses --      1.3308                 1.2093                 1.3273
 Frc consts  --      1.5049                 1.4056                 1.5600
 IR Inten    --      6.1333                 1.8406                14.2146

                     37                     38                     39
                      A                      A                      A
 Frequencies --   1481.9953              1492.9535              1494.7349
 Red. masses --      1.0528                 1.0497                 1.0463
 Frc consts  --      1.3624                 1.3785                 1.3773
 IR Inten    --      1.6312                 3.0088                 7.7394

                     40                     41                     42
                      A                      A                      A
 Frequencies --   1497.0552              1882.4753              3004.4496
 Red. masses --      1.0489                12.5674                 1.0851
 Frc consts  --      1.3850                26.2393                 5.7707
 IR Inten    --      2.6996               219.4464                51.0556

                     43                     44                     45
                      A                      A                      A
 Frequencies --   3035.0564              3040.3459              3069.9628
 Red. masses --      1.0354                 1.0353                 1.0847
 Frc consts  --      5.6193                 5.6385                 6.0232
 IR Inten    --     21.1033                10.6791                 5.0083

                     46                     47                     48
                      A                      A                      A
 Frequencies --   3087.4826              3103.3607              3111.4648
 Red. masses --      1.0892                 1.1002                 1.1010
 Frc consts  --      6.1173                 6.2428                 6.2803
 IR Inten    --     41.5244                22.3065                13.2945

                     49                     50                     51
                      A                      A                      A
 Frequencies --   3119.5481              3123.0104              3126.8593
 Red. masses --      1.1021                 1.1011                 1.0912
 Frc consts  --      6.3190                 6.3273                 6.2858
 IR Inten    --     13.5737                17.5207                17.7853

 - Thermochemistry -
 -------------------
 Temperature   298.150 Kelvin.  Pressure   1.00000 Atm.
 Atom     1 has atomic number  6 and mass  12.00000

 Molecular mass:   126.06808 amu.
 Principal axes and moments of inertia in atomic units:
                           1         2         3
     Eigenvalues --   672.658181212.438941609.93686
           X            0.99748   0.07096  -0.00110
           Y           -0.07097   0.99723  -0.02236
           Z           -0.00049   0.02238   0.99975
 This molecule is an asymmetric top.
 Rotational symmetry number  1.
 Warning -- assumption of classical behavior for rotation
           may cause significant error
 Rotational temperatures (Kelvin)      0.12876     0.07144     0.05380
 Rotational constants (GHZ):           2.68300     1.48852     1.12100
 Zero-point vibrational energy     414093.4 (Joules/Mol)
                                   98.97070 (Kcal/Mol)
 Warning -- explicit consideration of  11 degrees of freedom as
           vibrations may cause significant error
 Vibrational temperatures:     85.86   180.76   269.15   307.87   311.62
          (Kelvin)            334.96   480.59   563.02   618.31   670.65
                              880.42  1003.25  1078.54  1174.23  1206.98
                             1267.40  1289.59  1297.55  1427.72  1454.59
                             1471.97  1531.25  1563.21  1586.04  1597.59
                             1648.96  1685.54  1731.92  1764.10  1795.51
                             1831.03  1887.89  1925.08  1993.23  2020.85
                             2032.13  2132.26  2148.02  2150.59  2153.93
                             2708.46  4322.73  4366.76  4374.37  4416.99
                             4442.19  4465.04  4476.70  4488.33  4493.31
                             4498.85

 Zero-point correction=                           0.157720 (Hartree/Particle)
 Thermal correction to Energy=                    0.166491
 Thermal correction to Enthalpy=                  0.167436
 Thermal correction to Gibbs Free Energy=         0.124091
 Sum of electronic and zero-point Energies=           -423.018261
 Sum of electronic and thermal Energies=              -423.009489
 Sum of electronic and thermal Enthalpies=            -423.008545
 Sum of electronic and thermal Free Energies=         -423.051890

                     E (Thermal)             CV                S
                      KCal/Mol        Cal/Mol-Kelvin    Cal/Mol-Kelvin
 Total                  104.475             32.664             91.227
 Electronic               0.000              0.000              0.000
 Translational            0.889              2.981             40.409
 Rotational               0.889              2.981             28.664
 Vibrational            102.697             26.703             22.154
 Vibration     1          0.597              1.974              4.468
 Vibration     2          0.611              1.927              3.012
 Vibration     3          0.632              1.858              2.257
 Vibration     4          0.644              1.820              2.009
 Vibration     5          0.645              1.816              1.987
 Vibration     6          0.654              1.791              1.857
 Vibration     7          0.716              1.608              1.241
 Vibration     8          0.759              1.489              0.995
 Vibration     9          0.791              1.405              0.859
 Vibration    10          0.823              1.325              0.748
 Vibration    11          0.971              1.007              0.430

 Optimization completed.
    -- Stationary point found.
 Normal termination of Gaussian 09 at Tue Jan 28 03:39:10 2020.
