 Gaussian 09, Revision D.01,
 Gaussian 09:  ES64L-G09RevD.01 24-Apr-2013

 -----------------------------
 # b3lyp 6-31G(2df,p) opt Freq
 -----------------------------

 -----
 titel
 -----
 Symbolic Z-matrix:
 Charge =  0 Multiplicity = 1

 SCF Done:  E(RB3LYP) =  -423.196214561     A.U. after   14 cycles
 Optimization completed.
    -- Stationary point found.
 Normal termination of Gaussian 09 at Mon Jan 27 22:00:04 2020.

 ----------------------------------------------------------------------
 #N Geom=AllCheck Guess=TCheck SCRF=Check GenChk RB3LYP/6-31G(2df,p) Fr
 eq
 ----------------------------------------------------------------------

 Structure from the checkpoint file:  "/scratch/puck/g09_c40130e2-b355-4108-b16e-edbffd8a5377/Gau-125552.chk"
 -----
 titel
 -----
 Charge =  0 Multiplicity = 1

                         Standard orientation:
 ---------------------------------------------------------------------
 Center     Atomic      Atomic             Coordinates (Angstroms)
 Number     Number       Type             X           Y           Z
 ---------------------------------------------------------------------
      1          6           0        0.113353    1.813131    0.964813
      2          6           0        0.097703    0.637785   -0.009617
      3          8           0       -1.043533    0.778403   -0.854430
      4          6           0       -1.928887   -0.336970   -0.673576
      5          6           0       -1.506792   -1.045676    0.646166
      6          6           0       -0.049217   -0.753652    0.559884
      7          6           0        1.076008   -1.433705    0.387324
      8          6           0        2.069293   -0.548772   -0.325996
      9          8           0        1.329611    0.611530   -0.714783
     10          1           0        0.983798    1.754556    1.624278
     11          1           0        0.165530    2.744957    0.395269
     12          1           0       -0.795924    1.830994    1.572508
     13          1           0       -2.954813    0.042647   -0.650939
     14          1           0       -1.832806   -1.034506   -1.516698
     15          1           0       -1.983350   -0.565989    1.508637
     16          1           0       -1.757548   -2.107896    0.653397
     17          1           0        1.257577   -2.480447    0.596849
     18          1           0        2.928292   -0.254494    0.297829
     19          1           0        2.471857   -1.042137   -1.221403
 ---------------------------------------------------------------------

 SCF Done:  E(RB3LYP) =  -423.196214561     A.U. after    1 cycles

 The electronic state is 1-A.
 Alpha  occ. eigenvalues --  -19.13333 -19.13328 -10.27265 -10.23351 -10.23335
 Alpha  occ. eigenvalues --  -10.19994 -10.19145 -10.18970 -10.16883  -1.05931
 Alpha  occ. eigenvalues --   -1.00555  -0.81360  -0.75660  -0.74448  -0.67720
 Alpha  occ. eigenvalues --   -0.62586  -0.57691  -0.54770  -0.49562  -0.47819
 Alpha  occ. eigenvalues --   -0.46859  -0.46013  -0.43493  -0.41696  -0.40157
 Alpha  occ. eigenvalues --   -0.38758  -0.38169  -0.36701  -0.35639  -0.32708
 Alpha  occ. eigenvalues --   -0.30361  -0.26498  -0.25657  -0.24575
 Alpha virt. eigenvalues --    0.00341   0.08876   0.10537   0.12055   0.12765
 Alpha virt. eigenvalues --    0.13518   0.15307   0.16375   0.16671   0.17698
 Alpha virt. eigenvalues --    0.17932   0.18577   0.19500   0.21005   0.21923

 Mulliken charges:
               1
     1  C   -0.416229
     2  C    0.430155
     3  O   -0.294469
     4  C   -0.067150
     5  C   -0.343303
     6  C    0.215704
     7  C   -0.237595
     8  C   -0.126225
     9  O   -0.296007
    10  H    0.114409
    11  H    0.135136
    12  H    0.109056
    13  H    0.108448
    14  H    0.104550
    15  H    0.118318
    16  H    0.115497
    17  H    0.107385
    18  H    0.106941
    19  H    0.115380
 Sum of Mulliken charges =   0.00000

 Dipole moment (field-independent basis, Debye):
    X=             -0.4441    Y=             -2.2289    Z=              1.5981  Tot=              2.7783
 Quadrupole moment (field-independent basis, Debye-Ang):
   XX=            -49.1507   YY=            -51.7590   ZZ=            -55.3319
   XY=             -0.5925   XZ=             -0.1424   YZ=              2.5686

  Exact polarizability:  93.853  -5.244  76.172  -2.004   2.150  61.128
 Approx polarizability: 134.732 -13.040 110.043  -5.125   0.169  92.668

                      1                      2                      3
                      A                      A                      A
 Frequencies --     85.6310               130.1159               226.9712
 Red. masses --      3.5138                 2.3777                 1.0944
 Frc consts  --      0.0152                 0.0237                 0.0332
 IR Inten    --      0.2559                 3.9475                 0.1871

                      4                      5                      6
                      A                      A                      A
 Frequencies --    239.5536               269.2283               363.0942
 Red. masses --      2.0385                 2.1115                 3.0658
 Frc consts  --      0.0689                 0.0902                 0.2381
 IR Inten    --      1.2654                 1.0112                 0.6788

                      7                      8                      9
                      A                      A                      A
 Frequencies --    410.4196               451.4758               607.1441
 Red. masses --      4.1721                 3.1765                 3.6030
 Frc consts  --      0.4141                 0.3815                 0.7825
 IR Inten    --      2.8347                 3.3089                 6.8154

                     10                     11                     12
                      A                      A                      A
 Frequencies --    625.1479               680.0495               725.6763
 Red. masses --      4.5949                 3.7778                 4.1612
 Frc consts  --      1.0580                 1.0294                 1.2911
 IR Inten    --      4.2435                11.3800                 5.2056

                     13                     14                     15
                      A                      A                      A
 Frequencies --    789.5677               821.0992               855.6184
 Red. masses --      5.7522                 1.1893                 1.9053
 Frc consts  --      2.1128                 0.4724                 0.8218
 IR Inten    --      6.1165                 6.3832                15.9724

                     16                     17                     18
                      A                      A                      A
 Frequencies --    899.6664               913.7919               936.4148
 Red. masses --      2.1448                 2.2483                 2.1688
 Frc consts  --      1.0228                 1.1061                 1.1205
 IR Inten    --     10.7410                18.6614                11.8425

                     19                     20                     21
                      A                      A                      A
 Frequencies --    948.1285              1020.1185              1034.6005
 Red. masses --      2.0452                 6.1082                 1.8199
 Frc consts  --      1.0833                 3.7451                 1.1477
 IR Inten    --      3.3096               113.0700                27.9652

                     22                     23                     24
                      A                      A                      A
 Frequencies --   1058.8442              1066.7826              1129.4724
 Red. masses --      4.9146                 1.7003                 2.7218
 Frc consts  --      3.2464                 1.1401                 2.0458
 IR Inten    --     41.4666                22.0099                53.3333

                     25                     26                     27
                      A                      A                      A
 Frequencies --   1135.0832              1155.3618              1185.3796
 Red. masses --      2.5472                 3.4600                 1.3786
 Frc consts  --      1.9336                 2.7212                 1.1413
 IR Inten    --     54.9187                75.8552                 6.6111

                     28                     29                     30
                      A                      A                      A
 Frequencies --   1196.1227              1221.2622              1247.4708
 Red. masses --      1.1232                 1.2527                 1.8806
 Frc consts  --      0.9468                 1.1008                 1.7243
 IR Inten    --      2.2779                 4.9297                18.3320

                     31                     32                     33
                      A                      A                      A
 Frequencies --   1294.0077              1338.9077              1365.1774
 Red. masses --      1.3548                 2.6561                 1.4090
 Frc consts  --      1.3366                 2.8055                 1.5472
 IR Inten    --      2.2565                14.3955                11.9830

                     34                     35                     36
                      A                      A                      A
 Frequencies --   1385.1404              1402.1960              1477.2461
 Red. masses --      1.3657                 1.2805                 1.0740
 Frc consts  --      1.5438                 1.4833                 1.3809
 IR Inten    --      9.3536                11.7756                 1.8183

                     37                     38                     39
                      A                      A                      A
 Frequencies --   1482.9391              1485.0573              1514.8322
 Red. masses --      1.0758                 1.0767                 1.0868
 Frc consts  --      1.3939                 1.3990                 1.4694
 IR Inten    --      2.8758                 0.8583                 0.4752

                     40                     41                     42
                      A                      A                      A
 Frequencies --   1523.1852              1751.6352              2977.9493
 Red. masses --      1.0886                 8.4707                 1.0675
 Frc consts  --      1.4880                15.3129                 5.5777
 IR Inten    --      0.3712                 1.2167                76.0441

                     43                     44                     45
                      A                      A                      A
 Frequencies --   3010.3763              3022.0421              3041.2827
 Red. masses --      1.0666                 1.0937                 1.0550
 Frc consts  --      5.6948                 5.8849                 5.7495
 IR Inten    --     62.1010                43.8996                 6.6558

                     46                     47                     48
                      A                      A                      A
 Frequencies --   3043.6718              3080.1581              3117.9703
 Red. masses --      1.0446                 1.0980                 1.1008
 Frc consts  --      5.7017                 6.1373                 6.3055
 IR Inten    --     23.5077                46.8679                27.6517

                     49                     50                     51
                      A                      A                      A
 Frequencies --   3119.7660              3126.1427              3213.1650
 Red. masses --      1.1006                 1.1018                 1.0960
 Frc consts  --      6.3111                 6.3443                 6.6668
 IR Inten    --     16.4279                12.9116                 6.7117

 - Thermochemistry -
 -------------------
 Temperature   298.150 Kelvin.  Pressure   1.00000 Atm.
 Atom     1 has atomic number  6 and mass  12.00000

 Molecular mass:   126.06808 amu.
 Principal axes and moments of inertia in atomic units:
                           1         2         3
     Eigenvalues --   706.497881003.387161277.61275
           X            0.99994   0.01104  -0.00244
           Y           -0.01083   0.99711   0.07520
           Z            0.00326  -0.07517   0.99717
 This molecule is an asymmetric top.
 Rotational symmetry number  1.
 Warning -- assumption of classical behavior for rotation
           may cause significant error
 Rotational temperatures (Kelvin)      0.12260     0.08632     0.06779
 Rotational constants (GHZ):           2.55449     1.79865     1.41259
 Zero-point vibrational energy     419902.1 (Joules/Mol)
                                  100.35900 (Kcal/Mol)
 Warning -- explicit consideration of   9 degrees of freedom as
           vibrations may cause significant error
 Vibrational temperatures:    123.20   187.21   326.56   344.66   387.36
          (Kelvin)            522.41   590.50   649.57   873.54   899.45
                              978.44  1044.09  1136.01  1181.38  1231.04
                             1294.42  1314.74  1347.29  1364.14  1467.72
                             1488.56  1523.44  1534.86  1625.06  1633.13
                             1662.31  1705.49  1720.95  1757.12  1794.83
                             1861.79  1926.39  1964.18  1992.91  2017.44
                             2125.43  2133.62  2136.66  2179.50  2191.52
                             2520.21  4284.60  4331.25  4348.04  4375.72
                             4379.16  4431.65  4486.06  4488.64  4497.82
                             4623.02

 Zero-point correction=                           0.159932 (Hartree/Particle)
 Thermal correction to Energy=                    0.167861
 Thermal correction to Enthalpy=                  0.168805
 Thermal correction to Gibbs Free Energy=         0.127526
 Sum of electronic and zero-point Energies=           -423.036282
 Sum of electronic and thermal Energies=              -423.028354
 Sum of electronic and thermal Enthalpies=            -423.027409
 Sum of electronic and thermal Free Energies=         -423.068688

                     E (Thermal)             CV                S
                      KCal/Mol        Cal/Mol-Kelvin    Cal/Mol-Kelvin
 Total                  105.334             30.755             86.878
 Electronic               0.000              0.000              0.000
 Translational            0.889              2.981             40.409
 Rotational               0.889              2.981             28.295
 Vibrational            103.557             24.793             18.174
 Vibration     1          0.601              1.959              3.757
 Vibration     2          0.612              1.923              2.944
 Vibration     3          0.651              1.800              1.903
 Vibration     4          0.657              1.780              1.806
 Vibration     5          0.674              1.730              1.601
 Vibration     6          0.737              1.548              1.109
 Vibration     7          0.775              1.448              0.925
 Vibration     8          0.810              1.358              0.791
 Vibration     9          0.966              1.017              0.438

 Optimization completed.
    -- Stationary point found.
 Normal termination of Gaussian 09 at Mon Jan 27 22:43:00 2020.
