 Gaussian 09, Revision D.01,
 Gaussian 09:  ES64L-G09RevD.01 24-Apr-2013

 -----------------------------
 # b3lyp 6-31G(2df,p) opt Freq
 -----------------------------

 -----
 titel
 -----
 Symbolic Z-matrix:
 Charge =  0 Multiplicity = 1

 SCF Done:  E(RB3LYP) =  -423.169495633     A.U. after   13 cycles
 Optimization completed.
    -- Stationary point found.
 Normal termination of Gaussian 09 at Mon Jan 27 11:19:08 2020.

 ----------------------------------------------------------------------
 #N Geom=AllCheck Guess=TCheck SCRF=Check GenChk RB3LYP/6-31G(2df,p) Fr
 eq
 ----------------------------------------------------------------------

 Structure from the checkpoint file:  "/scratch/puck/g09_8f59ecf5-0f65-467a-a41f-b30d7b38a25f/Gau-164777.chk"
 -----
 titel
 -----
 Charge =  0 Multiplicity = 1

                         Standard orientation:
 ---------------------------------------------------------------------
 Center     Atomic      Atomic             Coordinates (Angstroms)
 Number     Number       Type             X           Y           Z
 ---------------------------------------------------------------------
      1          6           0        2.096056    0.551346    0.029959
      2          6           0        1.061113   -0.118639   -0.865736
      3          8           0        0.583332   -1.434768   -0.680641
      4          6           0       -0.375278   -1.269911    0.373242
      5          6           0       -1.723372   -0.644835   -0.043981
      6          6           0       -1.637132    0.846950   -0.488750
      7          6           0       -0.495798    1.660295    0.196559
      8          6           0        0.625783    0.667152    0.332568
      9          8           0        0.241638   -0.355094    1.257166
     10          1           0        2.667086   -0.040900    0.735383
     11          1           0        2.623813    1.387546   -0.419531
     12          1           0        0.938462    0.266005   -1.872728
     13          1           0       -0.500316   -2.239064    0.862870
     14          1           0       -2.194120   -1.243361   -0.830846
     15          1           0       -2.361380   -0.727049    0.843814
     16          1           0       -1.458226    0.876649   -1.568592
     17          1           0       -2.607471    1.327584   -0.327210
     18          1           0       -0.224965    2.522752   -0.420803
     19          1           0       -0.790876    2.034585    1.182278
 ---------------------------------------------------------------------

 SCF Done:  E(RB3LYP) =  -423.169495633     A.U. after    1 cycles

 The electronic state is 1-A.
 Alpha  occ. eigenvalues --  -19.14467 -19.14282 -10.27579 -10.23503 -10.23035
 Alpha  occ. eigenvalues --  -10.19595 -10.19117 -10.19029 -10.18550  -1.09402
 Alpha  occ. eigenvalues --   -0.98966  -0.85009  -0.79337  -0.72149  -0.64726
 Alpha  occ. eigenvalues --   -0.61211  -0.59212  -0.56574  -0.50161  -0.49661
 Alpha  occ. eigenvalues --   -0.45945  -0.44950  -0.44057  -0.40644  -0.39606
 Alpha  occ. eigenvalues --   -0.39497  -0.37778  -0.35936  -0.34771  -0.33299
 Alpha  occ. eigenvalues --   -0.32702  -0.28710  -0.25379  -0.23757
 Alpha virt. eigenvalues --    0.08074   0.09619   0.10410   0.11958   0.13445
 Alpha virt. eigenvalues --    0.13810   0.14623   0.15678   0.15915   0.16067
 Alpha virt. eigenvalues --    0.17332   0.19452   0.21537   0.21986   0.22603

 Mulliken charges:
               1
     1  C   -0.398477
     2  C    0.050186
     3  O   -0.270423
     4  C    0.177864
     5  C   -0.223739
     6  C   -0.204969
     7  C   -0.290338
     8  C    0.369526
     9  O   -0.281197
    10  H    0.132097
    11  H    0.116728
    12  H    0.100447
    13  H    0.089896
    14  H    0.105945
    15  H    0.110895
    16  H    0.108201
    17  H    0.097158
    18  H    0.099923
    19  H    0.110277
 Sum of Mulliken charges =   0.00000

 Dipole moment (field-independent basis, Debye):
    X=             -0.9023    Y=              1.4197    Z=             -0.7039  Tot=              1.8235
 Quadrupole moment (field-independent basis, Debye-Ang):
   XX=            -50.8573   YY=            -52.8836   ZZ=            -54.8831
   XY=              2.7375   XZ=             -0.4991   YZ=             -2.5955

  Exact polarizability:  82.472   4.263  74.048  -0.911  -2.322  63.974
 Approx polarizability: 110.230   5.477 107.836  -2.971  -0.378 104.884

                      1                      2                      3
                      A                      A                      A
 Frequencies --    198.5414               236.4059               335.8139
 Red. masses --      2.3326                 2.3058                 2.2059
 Frc consts  --      0.0542                 0.0759                 0.1466
 IR Inten    --      0.7490                 0.4684                 0.8486

                      4                      5                      6
                      A                      A                      A
 Frequencies --    346.8405               409.9560               472.3747
 Red. masses --      2.6196                 2.8265                 4.1094
 Frc consts  --      0.1857                 0.2799                 0.5403
 IR Inten    --      3.3781                 1.4679                 4.7632

                      7                      8                      9
                      A                      A                      A
 Frequencies --    490.4739               639.0493               651.0528
 Red. masses --      4.2355                 2.4656                 2.6463
 Frc consts  --      0.6003                 0.5933                 0.6609
 IR Inten    --      2.0002                 9.2637                 3.8195

                     10                     11                     12
                      A                      A                      A
 Frequencies --    747.8915               788.4483               806.1015
 Red. masses --      2.8995                 3.4012                 4.1926
 Frc consts  --      0.9555                 1.2458                 1.6051
 IR Inten    --      2.7941                 5.4972                 5.0896

                     13                     14                     15
                      A                      A                      A
 Frequencies --    833.5724               859.9806               884.3390
 Red. masses --      2.5539                 2.0141                 1.9984
 Frc consts  --      1.0455                 0.8776                 0.9208
 IR Inten    --      5.2858                 9.7131                16.5698

                     16                     17                     18
                      A                      A                      A
 Frequencies --    900.4886               920.3358               947.2036
 Red. masses --      2.7930                 2.0440                 2.8807
 Frc consts  --      1.3344                 1.0201                 1.5228
 IR Inten    --      7.1390                15.5984                47.0010

                     19                     20                     21
                      A                      A                      A
 Frequencies --    974.1433              1011.7184              1036.5212
 Red. masses --      2.3788                 1.9770                 2.2289
 Frc consts  --      1.3300                 1.1923                 1.4109
 IR Inten    --     21.2413                10.9430                23.9445

                     22                     23                     24
                      A                      A                      A
 Frequencies --   1058.1950              1071.7592              1088.7674
 Red. masses --      1.7882                 2.2653                 1.6973
 Frc consts  --      1.1797                 1.5331                 1.1854
 IR Inten    --      5.0741                33.8847                 2.7637

                     25                     26                     27
                      A                      A                      A
 Frequencies --   1116.2094              1126.5050              1139.4997
 Red. masses --      3.1087                 2.5459                 1.5286
 Frc consts  --      2.2820                 1.9035                 1.1695
 IR Inten    --     14.2684                71.4378                23.6221

                     28                     29                     30
                      A                      A                      A
 Frequencies --   1215.3675              1229.1232              1254.7932
 Red. masses --      1.5113                 1.6711                 1.2927
 Frc consts  --      1.3153                 1.4874                 1.1992
 IR Inten    --      1.1481                13.2794                 1.9945

                     31                     32                     33
                      A                      A                      A
 Frequencies --   1290.8877              1336.0095              1346.1599
 Red. masses --      1.2539                 1.3890                 1.3005
 Frc consts  --      1.2310                 1.4608                 1.3886
 IR Inten    --      2.1528                 4.8960                12.8732

                     34                     35                     36
                      A                      A                      A
 Frequencies --   1358.3138              1366.8997              1377.4175
 Red. masses --      1.4949                 1.4401                 1.3984
 Frc consts  --      1.6250                 1.5853                 1.5632
 IR Inten    --      5.5922                 9.6948                10.4245

                     37                     38                     39
                      A                      A                      A
 Frequencies --   1410.0771              1466.3902              1474.3794
 Red. masses --      1.5269                 1.7255                 1.0916
 Frc consts  --      1.7887                 2.1860                 1.3980
 IR Inten    --      1.2605                10.8546                 0.9934

                     40                     41                     42
                      A                      A                      A
 Frequencies --   1480.2685              1501.9206              3036.6724
 Red. masses --      1.0895                 1.1070                 1.0612
 Frc consts  --      1.4065                 1.4713                 5.7654
 IR Inten    --      1.8203                 4.4258                13.2247

                     43                     44                     45
                      A                      A                      A
 Frequencies --   3041.9126              3047.0907              3072.7100
 Red. masses --      1.0605                 1.0626                 1.0990
 Frc consts  --      5.7816                 5.8127                 6.1135
 IR Inten    --     26.3149                34.8097                24.8115

                     46                     47                     48
                      A                      A                      A
 Frequencies --   3085.5818              3094.1667              3096.6519
 Red. masses --      1.1035                 1.0904                 1.1036
 Frc consts  --      6.1903                 6.1506                 6.2352
 IR Inten    --     11.9834                38.1734                62.1904

                     49                     50                     51
                      A                      A                      A
 Frequencies --   3127.3116              3160.6984              3228.4229
 Red. masses --      1.0549                 1.0904                 1.1163
 Frc consts  --      6.0788                 6.4178                 6.8552
 IR Inten    --     11.2701                15.5833                 3.3186

 - Thermochemistry -
 -------------------
 Temperature   298.150 Kelvin.  Pressure   1.00000 Atm.
 Atom     1 has atomic number  6 and mass  12.00000

 Molecular mass:   126.06808 amu.
 Principal axes and moments of inertia in atomic units:
                           1         2         3
     Eigenvalues --   681.35462 869.959001133.64308
           X            0.99902   0.04384   0.00596
           Y           -0.04355   0.99817  -0.04205
           Z           -0.00779   0.04175   0.99910
 This molecule is an asymmetric top.
 Rotational symmetry number  1.
 Warning -- assumption of classical behavior for rotation
           may cause significant error
 Rotational temperatures (Kelvin)      0.12712     0.09956     0.07640
 Rotational constants (GHZ):           2.64875     2.07451     1.59198
 Zero-point vibrational energy     425819.2 (Joules/Mol)
                                  101.77324 (Kcal/Mol)
 Warning -- explicit consideration of   7 degrees of freedom as
           vibrations may cause significant error
 Vibrational temperatures:    285.66   340.13   483.16   499.03   589.83
          (Kelvin)            679.64   705.68   919.45   936.72  1076.05
                             1134.40  1159.80  1199.32  1237.32  1272.36
                             1295.60  1324.16  1362.81  1401.57  1455.64
                             1491.32  1522.50  1542.02  1566.49  1605.97
                             1620.79  1639.48  1748.64  1768.43  1805.37
                             1857.30  1922.22  1936.82  1954.31  1966.66
                             1981.79  2028.78  2109.81  2121.30  2129.77
                             2160.93  4369.09  4376.63  4384.08  4420.94
                             4439.46  4451.81  4455.39  4499.50  4547.53
                             4644.97

 Zero-point correction=                           0.162186 (Hartree/Particle)
 Thermal correction to Energy=                    0.168858
 Thermal correction to Enthalpy=                  0.169802
 Thermal correction to Gibbs Free Energy=         0.131598
 Sum of electronic and zero-point Energies=           -423.007310
 Sum of electronic and thermal Energies=              -423.000637
 Sum of electronic and thermal Enthalpies=            -422.999693
 Sum of electronic and thermal Free Energies=         -423.037897

                     E (Thermal)             CV                S
                      KCal/Mol        Cal/Mol-Kelvin    Cal/Mol-Kelvin
 Total                  105.960             28.357             80.407
 Electronic               0.000              0.000              0.000
 Translational            0.889              2.981             40.409
 Rotational               0.889              2.981             27.999
 Vibrational            104.183             22.395             12.000
 Vibration     1          0.637              1.842              2.147
 Vibration     2          0.655              1.785              1.830
 Vibration     3          0.717              1.604              1.232
 Vibration     4          0.725              1.582              1.181
 Vibration     5          0.774              1.449              0.927
 Vibration     6          0.829              1.311              0.731
 Vibration     7          0.846              1.271              0.682

 Normal termination of Gaussian 09 at Mon Jan 27 12:08:12 2020.
