 Gaussian 09, Revision D.01,
 Gaussian 09:  ES64L-G09RevD.01 24-Apr-2013

 -----------------------------
 # b3lyp 6-31G(2df,p) opt Freq
 -----------------------------

 -----
 titel
 -----
 Symbolic Z-matrix:
 Charge =  0 Multiplicity = 1

 SCF Done:  E(RB3LYP) =  -423.198114328     A.U. after   13 cycles
 Optimization completed.
    -- Stationary point found.
 Normal termination of Gaussian 09 at Mon Jan 27 18:12:26 2020.

 ----------------------------------------------------------------------
 #N Geom=AllCheck Guess=TCheck SCRF=Check GenChk RB3LYP/6-31G(2df,p) Fr
 eq
 ----------------------------------------------------------------------

 Structure from the checkpoint file:  "/scratch/puck/g09_2be050ef-6287-4695-b248-260cd12dd49f/Gau-53140.chk"
 -----
 titel
 -----
 Charge =  0 Multiplicity = 1

                         Standard orientation:
 ---------------------------------------------------------------------
 Center     Atomic      Atomic             Coordinates (Angstroms)
 Number     Number       Type             X           Y           Z
 ---------------------------------------------------------------------
      1          6           0        2.443384   -0.229705    0.092825
      2          6           0        0.960276   -0.025697   -0.080390
      3          6           0        0.192346   -1.039696   -0.959221
      4          6           0       -1.224509   -0.901124   -0.355559
      5          6           0       -1.706401    0.560446   -0.513908
      6          6           0       -0.591447    1.276680    0.268975
      7          8           0        0.619924    1.321648   -0.518031
      8          6           0       -0.033903    0.098435    1.125343
      9          8           0       -0.949429   -0.968878    1.058356
     10          1           0        2.863448    0.537981    0.748984
     11          1           0        2.646298   -1.213644    0.527476
     12          1           0        2.958526   -0.170476   -0.871979
     13          1           0        0.259577   -0.775798   -2.016864
     14          1           0        0.560289   -2.059434   -0.811874
     15          1           0       -1.940505   -1.677213   -0.623515
     16          1           0       -1.759417    0.910012   -1.547040
     17          1           0       -2.680793    0.686068   -0.032621
     18          1           0       -0.846868    2.244849    0.701826
     19          1           0        0.337010    0.259468    2.134612
 ---------------------------------------------------------------------

 SCF Done:  E(RB3LYP) =  -423.198114328     A.U. after    1 cycles

 The electronic state is 1-A.
 Alpha  occ. eigenvalues --  -19.14328 -19.12898 -10.23611 -10.23503 -10.23022
 Alpha  occ. eigenvalues --  -10.22907 -10.18241 -10.18163 -10.17877  -1.06789
 Alpha  occ. eigenvalues --   -1.01950  -0.78110  -0.77133  -0.72585  -0.69098
 Alpha  occ. eigenvalues --   -0.59819  -0.58618  -0.54738  -0.51219  -0.48733
 Alpha  occ. eigenvalues --   -0.44238  -0.43789  -0.42996  -0.40780  -0.39979
 Alpha  occ. eigenvalues --   -0.39295  -0.38724  -0.36981  -0.34644  -0.34203
 Alpha  occ. eigenvalues --   -0.30686  -0.30059  -0.25493  -0.24039
 Alpha virt. eigenvalues --    0.08400   0.09621   0.11148   0.12972   0.14591
 Alpha virt. eigenvalues --    0.14729   0.15402   0.15866   0.16515   0.16540
 Alpha virt. eigenvalues --    0.16971   0.18509   0.19394   0.19608   0.20736

 Mulliken charges:
               1
     1  C   -0.489492
     2  C    0.402640
     3  C   -0.255320
     4  C    0.045107
     5  C   -0.226959
     6  C    0.063579
     7  O   -0.339603
     8  C    0.011150
     9  O   -0.258112
    10  H    0.123961
    11  H    0.123163
    12  H    0.128169
    13  H    0.108372
    14  H    0.103073
    15  H    0.079992
    16  H    0.109537
    17  H    0.105526
    18  H    0.078703
    19  H    0.086514
 Sum of Mulliken charges =   0.00000

 Dipole moment (field-independent basis, Debye):
    X=             -0.1054    Y=             -0.4090    Z=             -0.2184  Tot=              0.4755
 Quadrupole moment (field-independent basis, Debye-Ang):
   XX=            -51.2894   YY=            -54.7718   ZZ=            -52.9954
   XY=             -2.9476   XZ=              2.7516   YZ=              4.1143

  Exact polarizability:  81.144  -2.781  70.586   2.049   3.700  67.107
 Approx polarizability: 108.630  -0.173 107.514  -0.047   0.829 104.534

                      1                      2                      3
                      A                      A                      A
 Frequencies --    198.2936               241.9315               262.6448
 Red. masses --      1.1296                 2.1604                 2.7118
 Frc consts  --      0.0262                 0.0745                 0.1102
 IR Inten    --      0.2172                 0.6274                 1.7754

                      4                      5                      6
                      A                      A                      A
 Frequencies --    375.3854               409.9044               479.6239
 Red. masses --      2.3256                 2.0901                 2.4898
 Frc consts  --      0.1931                 0.2069                 0.3375
 IR Inten    --      1.7711                 0.6677                 6.2066

                      7                      8                      9
                      A                      A                      A
 Frequencies --    547.7755               561.9251               642.7471
 Red. masses --      5.1377                 3.7715                 5.7394
 Frc consts  --      0.9083                 0.7017                 1.3970
 IR Inten    --     14.1407                 1.2306                 1.1252

                     10                     11                     12
                      A                      A                      A
 Frequencies --    721.0434               791.2624               825.5648
 Red. masses --      3.9189                 5.5014                 2.3746
 Frc consts  --      1.2004                 2.0294                 0.9535
 IR Inten    --      0.5804                 8.4221                 6.6692

                     13                     14                     15
                      A                      A                      A
 Frequencies --    860.5574               872.8491               882.0789
 Red. masses --      2.5019                 2.1926                 2.1652
 Frc consts  --      1.0917                 0.9842                 0.9926
 IR Inten    --     10.6330                18.2845                 1.0964

                     16                     17                     18
                      A                      A                      A
 Frequencies --    914.7650               918.6196               946.0029
 Red. masses --      3.8271                 2.1605                 2.7837
 Frc consts  --      1.8869                 1.0742                 1.4677
 IR Inten    --      8.7144                 2.6987                22.2852

                     19                     20                     21
                      A                      A                      A
 Frequencies --    961.5869               985.9369              1003.4621
 Red. masses --      2.4507                 1.6267                 2.3910
 Frc consts  --      1.3351                 0.9316                 1.4185
 IR Inten    --     11.5825                 4.6881                21.9135

                     22                     23                     24
                      A                      A                      A
 Frequencies --   1029.2985              1078.7815              1110.0914
 Red. masses --      1.7996                 5.2208                 1.5324
 Frc consts  --      1.1234                 3.5797                 1.1126
 IR Inten    --     43.2447                60.9347                 6.3033

                     25                     26                     27
                      A                      A                      A
 Frequencies --   1125.4911              1158.4844              1179.5767
 Red. masses --      1.8979                 1.2913                 1.6908
 Frc consts  --      1.4164                 1.0211                 1.3861
 IR Inten    --      1.7763                 6.3971                 0.1489

                     28                     29                     30
                      A                      A                      A
 Frequencies --   1201.0925              1224.4446              1250.4889
 Red. masses --      1.7304                 1.9977                 1.4953
 Frc consts  --      1.4708                 1.7646                 1.3776
 IR Inten    --     15.7842                 4.1446                 2.7121

                     31                     32                     33
                      A                      A                      A
 Frequencies --   1279.9326              1289.1126              1314.5478
 Red. masses --      1.5942                 1.8843                 1.6011
 Frc consts  --      1.5388                 1.8450                 1.6301
 IR Inten    --     10.7239                10.3606                23.5728

                     34                     35                     36
                      A                      A                      A
 Frequencies --   1329.5815              1352.6010              1375.7015
 Red. masses --      1.5147                 1.5511                 1.7838
 Frc consts  --      1.5776                 1.6720                 1.9890
 IR Inten    --      5.1933                 0.6909                 5.5654

                     37                     38                     39
                      A                      A                      A
 Frequencies --   1411.1086              1458.8591              1471.9121
 Red. masses --      1.4096                 1.1048                 1.1081
 Frc consts  --      1.6537                 1.3854                 1.4145
 IR Inten    --      9.5989                 2.8541                 3.1163

                     40                     41                     42
                      A                      A                      A
 Frequencies --   1480.4170              1496.1302              3035.4167
 Red. masses --      1.0517                 1.0509                 1.0353
 Frc consts  --      1.3581                 1.3860                 5.6205
 IR Inten    --      4.0129                 3.5917                16.6594

                     43                     44                     45
                      A                      A                      A
 Frequencies --   3060.3998              3062.0171              3103.5895
 Red. masses --      1.0600                 1.0615                 1.0899
 Frc consts  --      5.8494                 5.8636                 6.1853
 IR Inten    --     29.3476                11.0919                46.6231

                     46                     47                     48
                      A                      A                      A
 Frequencies --   3104.2493              3114.9982              3121.4642
 Red. masses --      1.1005                 1.1019                 1.1049
 Frc consts  --      6.2480                 6.2997                 6.3429
 IR Inten    --     14.2442                14.0464                 9.2789

                     49                     50                     51
                      A                      A                      A
 Frequencies --   3125.5993              3127.3071              3155.2257
 Red. masses --      1.1036                 1.0909                 1.0926
 Frc consts  --      6.3525                 6.2861                 6.4086
 IR Inten    --     22.5591                38.6919                20.3518

 - Thermochemistry -
 -------------------
 Temperature   298.150 Kelvin.  Pressure   1.00000 Atm.
 Atom     1 has atomic number  6 and mass  12.00000

 Molecular mass:   126.06808 amu.
 Principal axes and moments of inertia in atomic units:
                           1         2         3
     Eigenvalues --   620.24431 958.897821095.48490
           X            0.99770  -0.06297   0.02521
           Y            0.05940   0.99059   0.12332
           Z           -0.03274  -0.12154   0.99205
 This molecule is an asymmetric top.
 Rotational symmetry number  1.
 Warning -- assumption of classical behavior for rotation
           may cause significant error
 Rotational temperatures (Kelvin)      0.13964     0.09033     0.07906
 Rotational constants (GHZ):           2.90973     1.88210     1.64744
 Zero-point vibrational energy     424865.0 (Joules/Mol)
                                  101.54517 (Kcal/Mol)
 Warning -- explicit consideration of   8 degrees of freedom as
           vibrations may cause significant error
 Vibrational temperatures:    285.30   348.09   377.89   540.10   589.76
          (Kelvin)            690.07   788.13   808.48   924.77  1037.42
                             1138.45  1187.80  1238.15  1255.83  1269.11
                             1316.14  1321.69  1361.09  1383.51  1418.54
                             1443.76  1480.93  1552.12  1597.17  1619.33
                             1666.80  1697.15  1728.10  1761.70  1799.17
                             1841.54  1854.74  1891.34  1912.97  1946.09
                             1979.33  2030.27  2098.97  2117.75  2129.99
                             2152.59  4367.28  4403.23  4405.55  4465.37
                             4466.32  4481.78  4491.09  4497.03  4499.49
                             4539.66

 Zero-point correction=                           0.161823 (Hartree/Particle)
 Thermal correction to Energy=                    0.168552
 Thermal correction to Enthalpy=                  0.169496
 Thermal correction to Gibbs Free Energy=         0.131188
 Sum of electronic and zero-point Energies=           -423.036292
 Sum of electronic and thermal Energies=              -423.029562
 Sum of electronic and thermal Enthalpies=            -423.028618
 Sum of electronic and thermal Free Energies=         -423.066927

                     E (Thermal)             CV                S
                      KCal/Mol        Cal/Mol-Kelvin    Cal/Mol-Kelvin
 Total                  105.768             28.505             80.628
 Electronic               0.000              0.000              0.000
 Translational            0.889              2.981             40.409
 Rotational               0.889              2.981             27.968
 Vibrational            103.991             22.543             12.251
 Vibration     1          0.637              1.842              2.149
 Vibration     2          0.658              1.776              1.789
 Vibration     3          0.670              1.741              1.644
 Vibration     4          0.746              1.523              1.058
 Vibration     5          0.774              1.449              0.927
 Vibration     6          0.836              1.295              0.711
 Vibration     7          0.903              1.145              0.549
 Vibration     8          0.918              1.114              0.520

 Optimization completed.
    -- Stationary point found.
 Normal termination of Gaussian 09 at Mon Jan 27 19:00:08 2020.
