 Gaussian 09, Revision D.01,
 Gaussian 09:  ES64L-G09RevD.01 24-Apr-2013

 -----------------------------
 # b3lyp 6-31G(2df,p) opt Freq
 -----------------------------

 -----
 titel
 -----
 Symbolic Z-matrix:
 Charge =  0 Multiplicity = 1

 SCF Done:  E(RB3LYP) =  -423.143970402     A.U. after   14 cycles
 Optimization completed.
    -- Stationary point found.
 Normal termination of Gaussian 09 at Tue Jan 28 08:18:03 2020.

 ----------------------------------------------------------------------
 #N Geom=AllCheck Guess=TCheck SCRF=Check GenChk RB3LYP/6-31G(2df,p) Fr
 eq
 ----------------------------------------------------------------------

 Structure from the checkpoint file:  "/scratch/puck/g09_b099c1b3-9847-4075-9e59-ed15d2c5b268/Gau-74472.chk"
 -----
 titel
 -----
 Charge =  0 Multiplicity = 1

                         Standard orientation:
 ---------------------------------------------------------------------
 Center     Atomic      Atomic             Coordinates (Angstroms)
 Number     Number       Type             X           Y           Z
 ---------------------------------------------------------------------
      1          6           0       -2.051727   -2.158640    0.087128
      2          6           0       -2.149726   -0.675149   -0.273036
      3          6           0       -1.012115    0.159033    0.332600
      4          8           0        0.208970   -0.330614   -0.211726
      5          6           0        1.372099    0.201653    0.376653
      6          6           0        2.572114   -0.396151   -0.334679
      7          8           0        3.706443   -0.247783    0.034052
      8          6           0       -1.186680    1.593082    0.067965
      9          6           0       -1.329527    2.765456   -0.156221
     10          1           0       -1.105090   -2.580664   -0.257883
     11          1           0       -2.114070   -2.308124    1.170904
     12          1           0       -2.867782   -2.722202   -0.374006
     13          1           0       -2.123092   -0.538405   -1.359326
     14          1           0       -3.097079   -0.253502    0.078519
     15          1           0       -1.002197    0.007139    1.426162
     16          1           0        1.414645    1.297964    0.275063
     17          1           0        1.436555   -0.030365    1.451945
     18          1           0        2.306692   -0.982317   -1.242013
     19          1           0       -1.458512    3.801946   -0.350432
 ---------------------------------------------------------------------

 SCF Done:  E(RB3LYP) =  -423.143970402     A.U. after    1 cycles

 The electronic state is 1-A.
 Alpha  occ. eigenvalues --  -19.16196 -19.14444 -10.27585 -10.26796 -10.24389
 Alpha  occ. eigenvalues --  -10.19508 -10.19170 -10.18782 -10.18023  -1.06040
 Alpha  occ. eigenvalues --   -1.04847  -0.81570  -0.75548  -0.73550  -0.67997
 Alpha  occ. eigenvalues --   -0.60943  -0.58573  -0.54863  -0.52280  -0.50435
 Alpha  occ. eigenvalues --   -0.47315  -0.46145  -0.44678  -0.42599  -0.42155
 Alpha  occ. eigenvalues --   -0.38501  -0.37125  -0.36193  -0.35429  -0.34303
 Alpha  occ. eigenvalues --   -0.28777  -0.28070  -0.27639  -0.25724
 Alpha virt. eigenvalues --   -0.02787   0.02775   0.04225   0.09073   0.10920
 Alpha virt. eigenvalues --    0.11867   0.13030   0.13847   0.14884   0.15164
 Alpha virt. eigenvalues --    0.16096   0.16785   0.18196   0.19984   0.22558

 Mulliken charges:
               1
     1  C   -0.391305
     2  C   -0.185101
     3  C   -0.051050
     4  O   -0.249959
     5  C   -0.152934
     6  C    0.141674
     7  O   -0.238283
     8  C    0.331026
     9  C   -0.455671
    10  H    0.134973
    11  H    0.113936
    12  H    0.116519
    13  H    0.119528
    14  H    0.112767
    15  H    0.095729
    16  H    0.136667
    17  H    0.121833
    18  H    0.095701
    19  H    0.203952
 Sum of Mulliken charges =   0.00000

 Dipole moment (field-independent basis, Debye):
    X=             -2.7985    Y=              0.4033    Z=              0.3013  Tot=              2.8434
 Quadrupole moment (field-independent basis, Debye-Ang):
   XX=            -64.8410   YY=            -48.3838   ZZ=            -52.5040
   XY=              0.4424   XZ=             -0.9769   YZ=             -0.7938

  Exact polarizability:  85.411  -2.300  91.342   2.059  -0.903  60.749
 Approx polarizability: 111.988  -4.790 133.369   4.852  -3.326  93.301

                      1                      2                      3
                      A                      A                      A
 Frequencies --     49.5465                56.4712               101.4053
 Red. masses --      5.6729                 2.0129                 2.7809
 Frc consts  --      0.0082                 0.0038                 0.0168
 IR Inten    --      3.1962                 5.0438                 0.2914

                      4                      5                      6
                      A                      A                      A
 Frequencies --    111.3872               128.5318               145.6365
 Red. masses --      2.6891                 2.8357                 2.8150
 Frc consts  --      0.0197                 0.0276                 0.0352
 IR Inten    --      7.0957                 1.6384                 0.4714

                      7                      8                      9
                      A                      A                      A
 Frequencies --    215.6151               243.7838               302.3675
 Red. masses --      1.6851                 2.3982                 3.0871
 Frc consts  --      0.0462                 0.0840                 0.1663
 IR Inten    --      1.7418                 2.1159                 3.6672

                     10                     11                     12
                      A                      A                      A
 Frequencies --    360.5259               409.5794               506.9889
 Red. masses --      4.5208                 3.2933                 5.6694
 Frc consts  --      0.3462                 0.3255                 0.8586
 IR Inten    --      8.1658                 2.0333                 5.2817

                     13                     14                     15
                      A                      A                      A
 Frequencies --    564.4932               604.2019               633.6001
 Red. masses --      3.8264                 4.6296                 1.2379
 Frc consts  --      0.7184                 0.9958                 0.2928
 IR Inten    --     11.8590                 2.9488                42.7400

                     16                     17                     18
                      A                      A                      A
 Frequencies --    681.1829               743.5972               777.7187
 Red. masses --      1.2522                 1.2917                 1.4038
 Frc consts  --      0.3423                 0.4208                 0.5003
 IR Inten    --     34.3948                 0.4550                 0.8316

                     19                     20                     21
                      A                      A                      A
 Frequencies --    873.6951               961.3233               984.3405
 Red. masses --      1.9253                 2.2887                 3.4952
 Frc consts  --      0.8659                 1.2461                 1.9953
 IR Inten    --      9.9551                33.8868                31.7987

                     22                     23                     24
                      A                      A                      A
 Frequencies --   1050.2916              1058.6186              1113.7797
 Red. masses --      2.4975                 3.2170                 2.2479
 Frc consts  --      1.6232                 2.1242                 1.6430
 IR Inten    --     28.1935                 2.8237                17.5251

                     25                     26                     27
                      A                      A                      A
 Frequencies --   1115.6585              1149.4269              1165.5596
 Red. masses --      1.8589                 5.1455                 2.4943
 Frc consts  --      1.3633                 4.0054                 1.9965
 IR Inten    --      4.9334               167.4051                31.3805

                     28                     29                     30
                      A                      A                      A
 Frequencies --   1238.1217              1285.8635              1316.5608
 Red. masses --      1.1084                 1.2712                 1.2026
 Frc consts  --      1.0011                 1.2383                 1.2282
 IR Inten    --      5.1443                 4.5010                 8.2579

                     31                     32                     33
                      A                      A                      A
 Frequencies --   1337.6392              1376.2490              1383.8962
 Red. masses --      1.2090                 1.2344                 1.5082
 Frc consts  --      1.2745                 1.3775                 1.7019
 IR Inten    --     24.1941                14.4700                 2.4937

                     34                     35                     36
                      A                      A                      A
 Frequencies --   1407.6829              1414.6284              1477.6032
 Red. masses --      1.2568                 1.3127                 1.0766
 Frc consts  --      1.4673                 1.5477                 1.3849
 IR Inten    --      3.2465                 3.0394                 1.1593

                     37                     38                     39
                      A                      A                      A
 Frequencies --   1481.4454              1496.3883              1509.4991
 Red. masses --      1.0869                 1.0418                 1.0557
 Frc consts  --      1.4054                 1.3744                 1.4172
 IR Inten    --     12.6667                 6.1228                 4.4278

                     40                     41                     42
                      A                      A                      A
 Frequencies --   1844.4737              2230.8582              2899.0595
 Red. masses --     10.6550                 5.8876                 1.0843
 Frc consts  --     21.3574                17.2635                 5.3694
 IR Inten    --    170.9010                 2.6174                79.6770

                     43                     44                     45
                      A                      A                      A
 Frequencies --   2949.7260              2976.8608              3011.0200
 Red. masses --      1.0803                 1.0548                 1.1031
 Frc consts  --      5.5381                 5.5074                 5.8925
 IR Inten    --     29.8537                37.9131                17.2700

                     46                     47                     48
                      A                      A                      A
 Frequencies --   3039.3092              3050.3587              3088.1000
 Red. masses --      1.0388                 1.0597                 1.1007
 Frc consts  --      5.6535                 5.8093                 6.1844
 IR Inten    --     22.6798                16.8790                 6.4941

                     49                     50                     51
                      A                      A                      A
 Frequencies --   3107.5708              3130.9628              3500.7573
 Red. masses --      1.1008                 1.1012                 1.1629
 Frc consts  --      6.2634                 6.3600                 8.3966
 IR Inten    --     34.9208                23.3737                64.5005

 - Thermochemistry -
 -------------------
 Temperature   298.150 Kelvin.  Pressure   1.00000 Atm.
 Atom     1 has atomic number  6 and mass  12.00000

 Molecular mass:   126.06808 amu.
 Principal axes and moments of inertia in atomic units:
                           1         2         3
     Eigenvalues --   861.999311911.756162660.72725
           X            0.99922   0.03961   0.00031
           Y           -0.03961   0.99921  -0.00057
           Z           -0.00033   0.00055   1.00000
 This molecule is an asymmetric top.
 Rotational symmetry number  1.
 Warning -- assumption of classical behavior for rotation
           may cause significant error
 Rotational temperatures (Kelvin)      0.10048     0.04531     0.03255
 Rotational constants (GHZ):           2.09367     0.94402     0.67829
 Zero-point vibrational energy     404720.4 (Joules/Mol)
                                   96.73049 (Kcal/Mol)
 Warning -- explicit consideration of  14 degrees of freedom as
           vibrations may cause significant error
 Vibrational temperatures:     71.29    81.25   145.90   160.26   184.93
          (Kelvin)            209.54   310.22   350.75   435.04   518.72
                              589.29   729.44   812.18   869.31   911.61
                              980.07  1069.87  1118.96  1257.05  1383.13
                             1416.24  1511.13  1523.11  1602.48  1605.18
                             1653.77  1676.98  1781.38  1850.07  1894.23
                             1924.56  1980.11  1991.12  2025.34  2035.33
                             2125.94  2131.47  2152.97  2171.83  2653.78
                             3209.70  4171.09  4243.99  4283.03  4332.18
                             4372.88  4388.78  4443.08  4471.10  4504.75
                             5036.80

 Zero-point correction=                           0.154150 (Hartree/Particle)
 Thermal correction to Energy=                    0.164904
 Thermal correction to Enthalpy=                  0.165848
 Thermal correction to Gibbs Free Energy=         0.116886
 Sum of electronic and zero-point Energies=           -422.989821
 Sum of electronic and thermal Energies=              -422.979066
 Sum of electronic and thermal Enthalpies=            -422.978122
 Sum of electronic and thermal Free Energies=         -423.027085

                     E (Thermal)             CV                S
                      KCal/Mol        Cal/Mol-Kelvin    Cal/Mol-Kelvin
 Total                  103.479             36.901            103.050
 Electronic               0.000              0.000              0.000
 Translational            0.889              2.981             40.409
 Rotational               0.889              2.981             29.862
 Vibrational            101.701             30.939             32.779
 Vibration     1          0.595              1.978              4.835
 Vibration     2          0.596              1.975              4.577
 Vibration     3          0.604              1.948              3.427
 Vibration     4          0.607              1.940              3.245
 Vibration     5          0.611              1.925              2.968
 Vibration     6          0.617              1.907              2.728
 Vibration     7          0.645              1.817              1.996
 Vibration     8          0.659              1.773              1.775
 Vibration     9          0.694              1.669              1.404
 Vibration    10          0.735              1.554              1.120
 Vibration    11          0.774              1.449              0.928
 Vibration    12          0.862              1.235              0.641
 Vibration    13          0.920              1.108              0.515
 Vibration    14          0.963              1.023              0.442

 Optimization completed.
    -- Stationary point found.
 Normal termination of Gaussian 09 at Tue Jan 28 08:56:53 2020.
