 Gaussian 09, Revision D.01,
 Gaussian 09:  ES64L-G09RevD.01 24-Apr-2013

 -----------------------------
 # b3lyp 6-31G(2df,p) opt Freq
 -----------------------------

 -----
 titel
 -----
 Symbolic Z-matrix:
 Charge =  0 Multiplicity = 1

 SCF Done:  E(RB3LYP) =  -423.203685383     A.U. after   14 cycles
 Optimization completed.
    -- Stationary point found.
 Normal termination of Gaussian 09 at Mon Jan 27 15:34:50 2020.

 ----------------------------------------------------------------------
 #N Geom=AllCheck Guess=TCheck SCRF=Check GenChk RB3LYP/6-31G(2df,p) Fr
 eq
 ----------------------------------------------------------------------

 Structure from the checkpoint file:  "/scratch/puck/g09_d5c1fc8f-839c-4b50-bb2e-c25f684e3074/Gau-28410.chk"
 -----
 titel
 -----
 Charge =  0 Multiplicity = 1

                         Standard orientation:
 ---------------------------------------------------------------------
 Center     Atomic      Atomic             Coordinates (Angstroms)
 Number     Number       Type             X           Y           Z
 ---------------------------------------------------------------------
      1          6           0        2.219407   -1.392572    0.213643
      2          6           0        1.260035   -0.221979    0.418290
      3          6           0        1.720648    1.025460   -0.328575
      4          8           0        1.468316    2.155170    0.002657
      5          6           0       -0.177130   -0.568532   -0.041539
      6          8           0       -0.407930   -1.604732   -0.625740
      7          6           0       -1.230558    0.424457    0.291140
      8          6           0       -2.595674   -0.125453    0.694098
      9          6           0       -2.431873    0.508693   -0.641459
     10          1           0        2.280014   -1.662619   -0.843960
     11          1           0        3.222979   -1.141393    0.569648
     12          1           0        1.868500   -2.275145    0.752100
     13          1           0        1.184661    0.069674    1.472989
     14          1           0        2.314803    0.812270   -1.245759
     15          1           0       -0.893694    1.339504    0.761215
     16          1           0       -2.674648   -1.205944    0.729112
     17          1           0       -3.127245    0.409876    1.472180
     18          1           0       -2.400771   -0.145378   -1.505075
     19          1           0       -2.846818    1.495211   -0.811380
 ---------------------------------------------------------------------

 SCF Done:  E(RB3LYP) =  -423.203685383     A.U. after    1 cycles

 The electronic state is 1-A.
 Alpha  occ. eigenvalues --  -19.15151 -19.13590 -10.28301 -10.27804 -10.21013
 Alpha  occ. eigenvalues --  -10.20301 -10.20220 -10.20013 -10.18807  -1.05885
 Alpha  occ. eigenvalues --   -1.04726  -0.86832  -0.80621  -0.69333  -0.64256
 Alpha  occ. eigenvalues --   -0.61050  -0.58816  -0.53560  -0.51721  -0.48360
 Alpha  occ. eigenvalues --   -0.46949  -0.45786  -0.45017  -0.40596  -0.40038
 Alpha  occ. eigenvalues --   -0.39322  -0.38783  -0.38033  -0.37062  -0.36219
 Alpha  occ. eigenvalues --   -0.31580  -0.29779  -0.26821  -0.25077
 Alpha virt. eigenvalues --   -0.04866  -0.00393   0.09287   0.10354   0.11608
 Alpha virt. eigenvalues --    0.12040   0.13551   0.14155   0.15668   0.16093
 Alpha virt. eigenvalues --    0.16665   0.18981   0.20612   0.22177   0.22839

 Mulliken charges:
               1
     1  C   -0.410230
     2  C   -0.171830
     3  C    0.151184
     4  O   -0.245097
     5  C    0.358711
     6  O   -0.325769
     7  C   -0.096457
     8  C   -0.256021
     9  C   -0.251764
    10  H    0.138836
    11  H    0.117646
    12  H    0.137483
    13  H    0.120020
    14  H    0.091846
    15  H    0.116173
    16  H    0.138003
    17  H    0.123270
    18  H    0.139108
    19  H    0.124890
 Sum of Mulliken charges =   0.00000

 Dipole moment (field-independent basis, Debye):
    X=             -0.0276    Y=             -0.1888    Z=              0.8639  Tot=              0.8848
 Quadrupole moment (field-independent basis, Debye-Ang):
   XX=            -48.5333   YY=            -62.0801   ZZ=            -51.6727
   XY=             -5.1459   XZ=             -1.3683   YZ=             -2.2272

  Exact polarizability:  91.713  -2.401  78.849  -2.548   1.676  64.503
 Approx polarizability: 115.454   0.964 129.673  -2.446  10.293 101.350

                      1                      2                      3
                      A                      A                      A
 Frequencies --     51.3277                63.2105                80.5736
 Red. masses --      4.8103                 2.8231                 4.5327
 Frc consts  --      0.0075                 0.0066                 0.0173
 IR Inten    --      4.2431                 0.9916                11.4019

                      4                      5                      6
                      A                      A                      A
 Frequencies --    158.9289               173.8173               220.9245
 Red. masses --      1.1241                 2.4665                 2.9117
 Frc consts  --      0.0167                 0.0439                 0.0837
 IR Inten    --      0.0854                 0.2468                 0.8628

                      7                      8                      9
                      A                      A                      A
 Frequencies --    257.3897               304.7069               323.0434
 Red. masses --      2.8977                 3.5812                 3.1979
 Frc consts  --      0.1131                 0.1959                 0.1966
 IR Inten    --      2.8074                 9.8131                 7.0226

                     10                     11                     12
                      A                      A                      A
 Frequencies --    371.3658               503.5857               642.3032
 Red. masses --      4.2461                 5.0660                 3.1329
 Frc consts  --      0.3450                 0.7569                 0.7615
 IR Inten    --      3.6559                 6.2972                 5.2620

                     13                     14                     15
                      A                      A                      A
 Frequencies --    710.3341               757.0163               808.4667
 Red. masses --      3.5566                 1.8151                 1.2392
 Frc consts  --      1.0573                 0.6128                 0.4772
 IR Inten    --     11.1161                 7.0285                 0.5832

                     16                     17                     18
                      A                      A                      A
 Frequencies --    831.6904               874.7726               893.7021
 Red. masses --      2.3606                 1.8194                 3.1353
 Frc consts  --      0.9620                 0.8203                 1.4754
 IR Inten    --      4.6765                24.1074                 3.8310

                     19                     20                     21
                      A                      A                      A
 Frequencies --    913.5277               969.7997              1024.6106
 Red. masses --      1.9822                 1.6186                 3.3390
 Frc consts  --      0.9746                 0.8969                 2.0653
 IR Inten    --     25.6647                 4.3885               162.9149

                     22                     23                     24
                      A                      A                      A
 Frequencies --   1067.7904              1075.6626              1096.0643
 Red. masses --      1.3547                 1.5536                 1.3644
 Frc consts  --      0.9101                 1.0591                 0.9658
 IR Inten    --     20.1561                 1.9766                 2.1178

                     25                     26                     27
                      A                      A                      A
 Frequencies --   1112.2823              1135.7788              1138.8194
 Red. masses --      1.6715                 1.1264                 2.0353
 Frc consts  --      1.2184                 0.8561                 1.5552
 IR Inten    --     11.2538                 1.3530                25.8771

                     28                     29                     30
                      A                      A                      A
 Frequencies --   1152.3611              1210.6116              1222.8813
 Red. masses --      2.1714                 1.3632                 2.0607
 Frc consts  --      1.6989                 1.1771                 1.8156
 IR Inten    --     48.5346                 0.7674                 7.6534

                     31                     32                     33
                      A                      A                      A
 Frequencies --   1234.9477              1326.7724              1407.2440
 Red. masses --      1.4753                 1.4342                 1.5942
 Frc consts  --      1.3257                 1.4875                 1.8600
 IR Inten    --     17.4051                 8.1492                80.8238

                     34                     35                     36
                      A                      A                      A
 Frequencies --   1410.3904              1422.9348              1454.5810
 Red. masses --      1.2743                 1.2477                 1.0891
 Frc consts  --      1.4935                 1.4884                 1.3577
 IR Inten    --      3.5871                 8.8043                 2.6865

                     37                     38                     39
                      A                      A                      A
 Frequencies --   1484.9099              1487.3788              1491.8739
 Red. masses --      1.3568                 1.0490                 1.0396
 Frc consts  --      1.7626                 1.3673                 1.3633
 IR Inten    --     11.6615                 8.2854                 7.3598

                     40                     41                     42
                      A                      A                      A
 Frequencies --   1781.7256              1822.9296              2879.9828
 Red. masses --     10.6958                10.6977                 1.0834
 Frc consts  --     20.0054                20.9449                 5.2945
 IR Inten    --    225.5081                66.9953                97.7542

                     43                     44                     45
                      A                      A                      A
 Frequencies --   3045.8170              3050.5149              3121.9739
 Red. masses --      1.0822                 1.0368                 1.1016
 Frc consts  --      5.9151                 5.6846                 6.3262
 IR Inten    --      9.9985                15.7928                14.3101

                     46                     47                     48
                      A                      A                      A
 Frequencies --   3135.1884              3141.9371              3144.3524
 Red. masses --      1.1009                 1.0504                 1.0562
 Frc consts  --      6.3755                 6.1094                 6.1528
 IR Inten    --     10.2879                12.9288                 8.6005

                     49                     50                     51
                      A                      A                      A
 Frequencies --   3199.0893              3229.7893              3244.7307
 Red. masses --      1.0905                 1.1191                 1.1167
 Frc consts  --      6.5757                 6.8782                 6.9267
 IR Inten    --      0.4276                 0.3213                 4.4274

 - Thermochemistry -
 -------------------
 Temperature   298.150 Kelvin.  Pressure   1.00000 Atm.
 Atom     1 has atomic number  6 and mass  12.00000

 Molecular mass:   126.06808 amu.
 Principal axes and moments of inertia in atomic units:
                           1         2         3
     Eigenvalues --   748.906151476.352741985.77912
           X            0.99801  -0.06293  -0.00274
           Y            0.06289   0.99791  -0.01454
           Z            0.00365   0.01434   0.99989
 This molecule is an asymmetric top.
 Rotational symmetry number  1.
 Warning -- assumption of classical behavior for rotation
           may cause significant error
 Rotational temperatures (Kelvin)      0.11565     0.05867     0.04362
 Rotational constants (GHZ):           2.40984     1.22243     0.90883
 Zero-point vibrational energy     410716.4 (Joules/Mol)
                                   98.16357 (Kcal/Mol)
 Warning -- explicit consideration of  11 degrees of freedom as
           vibrations may cause significant error
 Vibrational temperatures:     73.85    90.95   115.93   228.66   250.08
          (Kelvin)            317.86   370.33   438.40   464.79   534.31
                              724.55   924.13  1022.01  1089.18  1163.20
                             1196.62  1258.60  1285.84  1314.36  1395.32
                             1474.18  1536.31  1547.64  1576.99  1600.32
                             1634.13  1638.51  1657.99  1741.80  1759.45
                             1776.81  1908.93  2024.71  2029.23  2047.28
                             2092.81  2136.45  2140.00  2146.47  2563.50
                             2622.79  4143.65  4382.25  4389.01  4491.82
                             4510.83  4520.54  4524.02  4602.77  4646.94
                             4668.44

 Zero-point correction=                           0.156434 (Hartree/Particle)
 Thermal correction to Energy=                    0.166275
 Thermal correction to Enthalpy=                  0.167219
 Thermal correction to Gibbs Free Energy=         0.120576
 Sum of electronic and zero-point Energies=           -423.047252
 Sum of electronic and thermal Energies=              -423.037411
 Sum of electronic and thermal Enthalpies=            -423.036467
 Sum of electronic and thermal Free Energies=         -423.083110

                     E (Thermal)             CV                S
                      KCal/Mol        Cal/Mol-Kelvin    Cal/Mol-Kelvin
 Total                  104.339             34.554             98.168
 Electronic               0.000              0.000              0.000
 Translational            0.889              2.981             40.409
 Rotational               0.889              2.981             29.175
 Vibrational            102.561             28.592             28.585
 Vibration     1          0.596              1.977              4.766
 Vibration     2          0.597              1.972              4.354
 Vibration     3          0.600              1.962              3.877
 Vibration     4          0.621              1.893              2.563
 Vibration     5          0.627              1.875              2.394
 Vibration     6          0.648              1.809              1.952
 Vibration     7          0.667              1.750              1.679
 Vibration     8          0.696              1.665              1.391
 Vibration     9          0.708              1.629              1.295
 Vibration    10          0.743              1.531              1.074
 Vibration    11          0.859              1.242              0.649

 Optimization completed.
    -- Stationary point found.
 Normal termination of Gaussian 09 at Mon Jan 27 16:15:54 2020.
