 Gaussian 09, Revision D.01,
 Gaussian 09:  ES64L-G09RevD.01 24-Apr-2013

 -----------------------------
 # b3lyp 6-31G(2df,p) opt Freq
 -----------------------------

 -----
 titel
 -----
 Symbolic Z-matrix:
 Charge =  0 Multiplicity = 1

 SCF Done:  E(RB3LYP) =  -423.181102665     A.U. after   13 cycles
 Optimization completed.
    -- Stationary point found.
 Normal termination of Gaussian 09 at Mon Jan 27 17:36:00 2020.

 ----------------------------------------------------------------------
 #N Geom=AllCheck Guess=TCheck SCRF=Check GenChk RB3LYP/6-31G(2df,p) Fr
 eq
 ----------------------------------------------------------------------

 Structure from the checkpoint file:  "/scratch/puck/g09_4ee406fa-89f6-4fe1-9082-da4baed29633/Gau-40403.chk"
 -----
 titel
 -----
 Charge =  0 Multiplicity = 1

                         Standard orientation:
 ---------------------------------------------------------------------
 Center     Atomic      Atomic             Coordinates (Angstroms)
 Number     Number       Type             X           Y           Z
 ---------------------------------------------------------------------
      1          6           0        2.013566    1.199492   -0.227035
      2          6           0        1.013074    0.133082    0.142396
      3          6           0        1.418535   -1.319699    0.218683
      4          6           0        0.423960   -0.882058   -0.827544
      5          6           0       -1.042170   -0.898345   -0.394889
      6          8           0       -1.654105    0.303117   -0.868503
      7          6           0       -1.176302    1.317350    0.035483
      8          6           0       -0.236307    0.503803    0.960440
      9          8           0       -0.977710   -0.726914    1.009965
     10          1           0        2.552705    1.558027    0.658107
     11          1           0        2.758111    0.809300   -0.927281
     12          1           0        1.542183    2.067454   -0.700466
     13          1           0        2.418959   -1.541391   -0.137968
     14          1           0        1.076949   -1.935546    1.042040
     15          1           0        0.661210   -0.887495   -1.884047
     16          1           0       -1.662218   -1.754411   -0.659191
     17          1           0       -0.670754    2.111522   -0.521525
     18          1           0       -2.021455    1.743248    0.587608
     19          1           0       -0.087306    0.897918    1.965823
 ---------------------------------------------------------------------

 SCF Done:  E(RB3LYP) =  -423.181102665     A.U. after    1 cycles

 The electronic state is 1-A.
 Alpha  occ. eigenvalues --  -19.14832 -19.13679 -10.27594 -10.24098 -10.22841
 Alpha  occ. eigenvalues --  -10.20133 -10.18863 -10.18620 -10.18555  -1.09502
 Alpha  occ. eigenvalues --   -0.98770  -0.86575  -0.76869  -0.71249  -0.65722
 Alpha  occ. eigenvalues --   -0.62669  -0.57506  -0.55568  -0.51579  -0.50951
 Alpha  occ. eigenvalues --   -0.46996  -0.44312  -0.42547  -0.41514  -0.40686
 Alpha  occ. eigenvalues --   -0.39463  -0.38416  -0.37313  -0.34378  -0.33636
 Alpha  occ. eigenvalues --   -0.29821  -0.28097  -0.26400  -0.24853
 Alpha virt. eigenvalues --    0.08788   0.10776   0.11463   0.11486   0.12555
 Alpha virt. eigenvalues --    0.13125   0.14549   0.15392   0.15942   0.17095
 Alpha virt. eigenvalues --    0.17527   0.19001   0.19797   0.21196   0.22341

 Mulliken charges:
               1
     1  C   -0.493667
     2  C    0.358038
     3  C   -0.356956
     4  C   -0.121326
     5  C    0.183517
     6  O   -0.275011
     7  C   -0.082722
     8  C   -0.046553
     9  O   -0.250423
    10  H    0.120754
    11  H    0.123169
    12  H    0.121042
    13  H    0.108367
    14  H    0.124612
    15  H    0.096507
    16  H    0.093458
    17  H    0.104843
    18  H    0.105814
    19  H    0.086537
 Sum of Mulliken charges =   0.00000

 Dipole moment (field-independent basis, Debye):
    X=              1.7372    Y=              0.7847    Z=              0.0512  Tot=              1.9069
 Quadrupole moment (field-independent basis, Debye-Ang):
   XX=            -54.9461   YY=            -50.7885   ZZ=            -54.0285
   XY=              0.0790   XZ=             -1.1965   YZ=              2.9309

  Exact polarizability:  77.459  -1.282  77.005   0.300   2.757  64.633
 Approx polarizability: 106.635  -0.180 113.277   3.333   3.546 104.047

                      1                      2                      3
                      A                      A                      A
 Frequencies --    164.4843               195.5689               277.8131
 Red. masses --      1.5526                 1.5816                 2.6126
 Frc consts  --      0.0247                 0.0356                 0.1188
 IR Inten    --      0.4366                 0.8341                 0.4711

                      4                      5                      6
                      A                      A                      A
 Frequencies --    324.8238               375.0302               434.5623
 Red. masses --      2.4070                 3.0588                 2.5787
 Frc consts  --      0.1496                 0.2535                 0.2869
 IR Inten    --      1.9759                 1.5607                 1.4131

                      7                      8                      9
                      A                      A                      A
 Frequencies --    502.2108               551.3314               648.4344
 Red. masses --      3.7934                 4.1718                 5.0322
 Frc consts  --      0.5637                 0.7471                 1.2466
 IR Inten    --      2.6987                 1.8069                 7.3531

                     10                     11                     12
                      A                      A                      A
 Frequencies --    677.8286               788.2217               834.2986
 Red. masses --      3.8717                 4.0780                 2.0364
 Frc consts  --      1.0481                 1.4928                 0.8351
 IR Inten    --      2.1314                 2.8549                 1.3228

                     13                     14                     15
                      A                      A                      A
 Frequencies --    838.4061               880.9890               900.5360
 Red. masses --      4.9276                 2.3007                 2.5501
 Frc consts  --      2.0408                 1.0521                 1.2185
 IR Inten    --      2.8037                31.2105                 0.0837

                     16                     17                     18
                      A                      A                      A
 Frequencies --    912.3523               945.2692               962.4467
 Red. masses --      2.9057                 2.1070                 1.4318
 Frc consts  --      1.4250                 1.1092                 0.7814
 IR Inten    --     78.6439                11.9564                13.8309

                     19                     20                     21
                      A                      A                      A
 Frequencies --    982.3345              1002.6323              1026.9178
 Red. masses --      3.3827                 2.7679                 3.1609
 Frc consts  --      1.9232                 1.6394                 1.9640
 IR Inten    --     32.7651                28.7889                21.9345

                     22                     23                     24
                      A                      A                      A
 Frequencies --   1036.6466              1054.5919              1090.7231
 Red. masses --      1.5217                 1.4278                 1.3815
 Frc consts  --      0.9635                 0.9356                 0.9684
 IR Inten    --     18.0537                 4.2175                 4.5829

                     25                     26                     27
                      A                      A                      A
 Frequencies --   1091.1901              1107.0693              1132.7565
 Red. masses --      2.9730                 2.5761                 1.9591
 Frc consts  --      2.0857                 1.8602                 1.4811
 IR Inten    --     12.1799                44.8247                 4.7172

                     28                     29                     30
                      A                      A                      A
 Frequencies --   1192.1707              1241.9973              1258.7295
 Red. masses --      1.1122                 1.5323                 1.4341
 Frc consts  --      0.9313                 1.3927                 1.3387
 IR Inten    --      3.0627                 3.4195                 0.0556

                     31                     32                     33
                      A                      A                      A
 Frequencies --   1271.8637              1303.4117              1317.9667
 Red. masses --      1.6182                 1.4125                 2.1123
 Frc consts  --      1.5422                 1.4138                 2.1618
 IR Inten    --      0.4667                 3.9737                 2.6306

                     34                     35                     36
                      A                      A                      A
 Frequencies --   1328.7185              1368.8031              1387.9148
 Red. masses --      1.6639                 1.4845                 1.7861
 Frc consts  --      1.7307                 1.6387                 2.0271
 IR Inten    --     22.9987                 1.8821                 5.1368

                     37                     38                     39
                      A                      A                      A
 Frequencies --   1426.4603              1481.2139              1489.0495
 Red. masses --      1.3744                 1.3487                 1.0476
 Frc consts  --      1.6477                 1.7434                 1.3686
 IR Inten    --      3.3265                 4.2885                 2.6818

                     40                     41                     42
                      A                      A                      A
 Frequencies --   1500.3671              1520.7590              3026.1169
 Red. masses --      1.0714                 1.0892                 1.0377
 Frc consts  --      1.4210                 1.4842                 5.5988
 IR Inten    --      3.6426                 2.0792                27.9506

                     43                     44                     45
                      A                      A                      A
 Frequencies --   3037.8019              3082.1189              3089.1061
 Red. masses --      1.0589                 1.1018                 1.1037
 Frc consts  --      5.7576                 6.1667                 6.2055
 IR Inten    --     58.2646                23.4939                38.6072

                     46                     47                     48
                      A                      A                      A
 Frequencies --   3103.3984              3122.7216              3133.1104
 Red. masses --      1.1000                 1.0888                 1.0923
 Frc consts  --      6.2417                 6.2554                 6.3174
 IR Inten    --     17.2888                40.6072                28.1136

                     49                     50                     51
                      A                      A                      A
 Frequencies --   3137.3092              3194.2716              3226.7700
 Red. masses --      1.0542                 1.0928                 1.1155
 Frc consts  --      6.1137                 6.5698                 6.8434
 IR Inten    --     14.8484                 7.0544                 5.0334

 - Thermochemistry -
 -------------------
 Temperature   298.150 Kelvin.  Pressure   1.00000 Atm.
 Atom     1 has atomic number  6 and mass  12.00000

 Molecular mass:   126.06808 amu.
 Principal axes and moments of inertia in atomic units:
                           1         2         3
     Eigenvalues --   640.45430 964.908111160.03720
           X            0.99980   0.01222  -0.01587
           Y           -0.01178   0.99956   0.02730
           Z            0.01620  -0.02711   0.99950
 This molecule is an asymmetric top.
 Rotational symmetry number  1.
 Warning -- assumption of classical behavior for rotation
           may cause significant error
 Rotational temperatures (Kelvin)      0.13524     0.08976     0.07466
 Rotational constants (GHZ):           2.81791     1.87038     1.55576
 Zero-point vibrational energy     424564.4 (Joules/Mol)
                                  101.47332 (Kcal/Mol)
 Warning -- explicit consideration of   8 degrees of freedom as
           vibrations may cause significant error
 Vibrational temperatures:    236.66   281.38   399.71   467.35   539.58
          (Kelvin)            625.24   722.57   793.24   932.95   975.24
                             1134.07  1200.37  1206.28  1267.55  1295.67
                             1312.67  1360.03  1384.74  1413.36  1442.56
                             1477.50  1491.50  1517.32  1569.31  1569.98
                             1592.82  1629.78  1715.27  1786.95  1811.03
                             1829.93  1875.32  1896.26  1911.73  1969.40
                             1996.90  2052.36  2131.13  2142.41  2158.69
                             2188.03  4353.90  4370.71  4434.48  4444.53
                             4465.09  4492.89  4507.84  4513.88  4595.84
                             4642.60

 Zero-point correction=                           0.161708 (Hartree/Particle)
 Thermal correction to Energy=                    0.168716
 Thermal correction to Enthalpy=                  0.169660
 Thermal correction to Gibbs Free Energy=         0.130698
 Sum of electronic and zero-point Energies=           -423.019395
 Sum of electronic and thermal Energies=              -423.012387
 Sum of electronic and thermal Enthalpies=            -423.011442
 Sum of electronic and thermal Free Energies=         -423.050404

                     E (Thermal)             CV                S
                      KCal/Mol        Cal/Mol-Kelvin    Cal/Mol-Kelvin
 Total                  105.871             29.016             82.002
 Electronic               0.000              0.000              0.000
 Translational            0.889              2.981             40.409
 Rotational               0.889              2.981             28.063
 Vibrational            104.093             23.054             13.531
 Vibration     1          0.623              1.886              2.498
 Vibration     2          0.636              1.846              2.174
 Vibration     3          0.679              1.715              1.547
 Vibration     4          0.709              1.626              1.286
 Vibration     5          0.746              1.523              1.059
 Vibration     6          0.795              1.395              0.844
 Vibration     7          0.858              1.245              0.653
 Vibration     8          0.907              1.137              0.541

 Normal termination of Gaussian 09 at Mon Jan 27 18:33:51 2020.
