 Gaussian 09, Revision D.01,
 Gaussian 09:  ES64L-G09RevD.01 24-Apr-2013

 -----------------------------
 # b3lyp 6-31G(2df,p) opt Freq
 -----------------------------

 -----
 titel
 -----
 Symbolic Z-matrix:
 Charge =  0 Multiplicity = 1

 SCF Done:  E(RB3LYP) =  -423.157903258     A.U. after   14 cycles
 Optimization completed.
    -- Stationary point found.
 Normal termination of Gaussian 09 at Tue Jan 28 14:08:20 2020.

 ----------------------------------------------------------------------
 #N Geom=AllCheck Guess=TCheck SCRF=Check GenChk RB3LYP/6-31G(2df,p) Fr
 eq
 ----------------------------------------------------------------------

 Structure from the checkpoint file:  "/scratch/puck/g09_01e0f4b1-53f9-4e9f-9da3-5f9f9ceff518/Gau-144663.chk"
 -----
 titel
 -----
 Charge =  0 Multiplicity = 1

                         Standard orientation:
 ---------------------------------------------------------------------
 Center     Atomic      Atomic             Coordinates (Angstroms)
 Number     Number       Type             X           Y           Z
 ---------------------------------------------------------------------
      1          6           0       -2.490779   -1.144739    0.017734
      2          8           0       -1.811788   -0.026013   -0.506881
      3          6           0       -0.917731    0.575028    0.418748
      4          6           0       -0.338487    1.828754   -0.208938
      5          6           0        0.995461    1.827812   -0.207465
      6          6           0        1.546537    0.566954    0.364914
      7          6           0        1.180029   -0.698137   -0.400929
      8          8           0        1.910758   -1.864120   -0.170700
      9          6           0        0.327248   -0.259487    0.749684
     10          1           0       -3.061109   -0.884461    0.924289
     11          1           0       -3.188576   -1.489036   -0.749599
     12          1           0       -1.804039   -1.966805    0.266144
     13          1           0       -1.477993    0.807528    1.342315
     14          1           0       -0.980616    2.592425   -0.630331
     15          1           0        1.622441    2.615679   -0.610390
     16          1           0        2.449132    0.554818    0.964985
     17          1           0        0.779835   -0.573224   -1.406586
     18          1           0        2.702906   -1.830297   -0.717288
     19          1           0        0.352586   -0.882684    1.634624
 ---------------------------------------------------------------------

 SCF Done:  E(RB3LYP) =  -423.157903258     A.U. after    1 cycles

 The electronic state is 1-A.
 Alpha  occ. eigenvalues --  -19.14447 -19.13367 -10.23484 -10.23271 -10.21748
 Alpha  occ. eigenvalues --  -10.18898 -10.18578 -10.18312 -10.17643  -1.03075
 Alpha  occ. eigenvalues --   -1.02513  -0.87653  -0.76126  -0.71120  -0.65253
 Alpha  occ. eigenvalues --   -0.60622  -0.55566  -0.54458  -0.53564  -0.48777
 Alpha  occ. eigenvalues --   -0.47508  -0.45640  -0.43684  -0.42171  -0.40310
 Alpha  occ. eigenvalues --   -0.37912  -0.36763  -0.34959  -0.33794  -0.31147
 Alpha  occ. eigenvalues --   -0.28450  -0.27553  -0.25304  -0.22427
 Alpha virt. eigenvalues --    0.00992   0.07946   0.09880   0.11388   0.14000
 Alpha virt. eigenvalues --    0.14820   0.15118   0.16118   0.16336   0.16797
 Alpha virt. eigenvalues --    0.17607   0.18161   0.20027   0.20802   0.22985

 Mulliken charges:
               1
     1  C   -0.233905
     2  O   -0.246482
     3  C    0.078896
     4  C   -0.115955
     5  C   -0.083984
     6  C   -0.153232
     7  C    0.109161
     8  O   -0.435318
     9  C   -0.102373
    10  H    0.099222
    11  H    0.124160
    12  H    0.115595
    13  H    0.065909
    14  H    0.102868
    15  H    0.098769
    16  H    0.091620
    17  H    0.101356
    18  H    0.287087
    19  H    0.096604
 Sum of Mulliken charges =   0.00000

 Dipole moment (field-independent basis, Debye):
    X=              0.9813    Y=              0.3065    Z=              0.1021  Tot=              1.0331
 Quadrupole moment (field-independent basis, Debye-Ang):
   XX=            -46.9058   YY=            -53.8037   ZZ=            -52.6789
   XY=              1.6510   XZ=             -4.1033   YZ=              0.6878

  Exact polarizability:  92.142   0.731  79.517  -2.199  -2.052  59.838
 Approx polarizability: 134.135  -1.750 111.761  -3.116  -2.852  94.235

                      1                      2                      3
                      A                      A                      A
 Frequencies --     80.8213               141.6928               161.2357
 Red. masses --      3.0334                 1.9925                 2.9828
 Frc consts  --      0.0117                 0.0236                 0.0457
 IR Inten    --      2.3494                 4.2488                 0.6849

                      4                      5                      6
                      A                      A                      A
 Frequencies --    221.7494               267.8936               303.4726
 Red. masses --      1.5156                 3.1848                 2.1497
 Frc consts  --      0.0439                 0.1347                 0.1166
 IR Inten    --      4.3353                 1.0401                33.7535

                      7                      8                      9
                      A                      A                      A
 Frequencies --    321.4445               395.3117               440.5833
 Red. masses --      1.4622                 3.2997                 3.8828
 Frc consts  --      0.0890                 0.3038                 0.4441
 IR Inten    --     67.6596                 1.4549                16.9921

                     10                     11                     12
                      A                      A                      A
 Frequencies --    494.0960               560.0083               708.8947
 Red. masses --      3.2601                 4.6882                 4.4455
 Frc consts  --      0.4689                 0.8663                 1.3162
 IR Inten    --      0.9993                12.0924                 1.2732

                     13                     14                     15
                      A                      A                      A
 Frequencies --    749.6396               814.9966               865.5148
 Red. masses --      1.6027                 2.3039                 3.3838
 Frc consts  --      0.5307                 0.9016                 1.4935
 IR Inten    --     16.7561                 8.5087                 8.7539

                     16                     17                     18
                      A                      A                      A
 Frequencies --    873.4562               910.1949               951.3279
 Red. masses --      2.5607                 2.8483                 1.8344
 Frc consts  --      1.1510                 1.3903                 0.9782
 IR Inten    --     12.1318                 8.5050                 4.7837

                     19                     20                     21
                      A                      A                      A
 Frequencies --    971.5548               990.6374              1025.4171
 Red. masses --      1.5559                 2.4100                 2.7324
 Frc consts  --      0.8653                 1.3934                 1.6928
 IR Inten    --      2.3652                16.8792                 7.1985

                     22                     23                     24
                      A                      A                      A
 Frequencies --   1046.6053              1059.5944              1078.5444
 Red. masses --      1.7502                 1.4246                 1.1911
 Frc consts  --      1.1296                 0.9424                 0.8164
 IR Inten    --      7.7266                 5.1144                 8.5713

                     25                     26                     27
                      A                      A                      A
 Frequencies --   1129.3826              1140.0555              1153.9386
 Red. masses --      1.5259                 2.0311                 3.5588
 Frc consts  --      1.1467                 1.5554                 2.7920
 IR Inten    --     35.1974                89.6262               138.4149

                     28                     29                     30
                      A                      A                      A
 Frequencies --   1175.2603              1182.3000              1217.8969
 Red. masses --      2.1947                 1.3012                 1.5076
 Frc consts  --      1.7861                 1.0716                 1.3176
 IR Inten    --      7.6607                 1.6286                35.0383

                     31                     32                     33
                      A                      A                      A
 Frequencies --   1271.8157              1283.2325              1302.7200
 Red. masses --      1.3811                 1.3536                 1.7444
 Frc consts  --      1.3162                 1.3133                 1.7442
 IR Inten    --     29.8124                 1.7580                85.6451

                     34                     35                     36
                      A                      A                      A
 Frequencies --   1334.4627              1359.2212              1382.8061
 Red. masses --      1.5360                 1.2283                 1.7139
 Frc consts  --      1.6116                 1.3370                 1.9309
 IR Inten    --      2.5580                17.0351                31.9595

                     37                     38                     39
                      A                      A                      A
 Frequencies --   1453.3940              1477.5146              1486.8656
 Red. masses --      2.1687                 1.1317                 1.0691
 Frc consts  --      2.6991                 1.4555                 1.3925
 IR Inten    --     19.7801                 0.9489                 3.2810

                     40                     41                     42
                      A                      A                      A
 Frequencies --   1509.8528              1673.0931              2933.4871
 Red. masses --      1.0536                 6.5382                 1.0812
 Frc consts  --      1.4151                10.7832                 5.4819
 IR Inten    --      5.8010                 2.6051                60.1830

                     43                     44                     45
                      A                      A                      A
 Frequencies --   2971.7342              3026.6559              3111.0827
 Red. masses --      1.0413                 1.0974                 1.0881
 Frc consts  --      5.4183                 5.9228                 6.2053
 IR Inten    --     70.5296                44.2748                13.1498

                     46                     47                     48
                      A                      A                      A
 Frequencies --   3112.3375              3176.8131              3189.0906
 Red. masses --      1.0966                 1.0883                 1.0875
 Frc consts  --      6.2584                 6.4712                 6.5164
 IR Inten    --     34.1928                 9.0300                14.5034

                     49                     50                     51
                      A                      A                      A
 Frequencies --   3194.7453              3218.8158              3804.9288
 Red. masses --      1.0916                 1.1027                 1.0661
 Frc consts  --      6.5643                 6.7315                 9.0936
 IR Inten    --      6.8489                13.7078                27.6292

 - Thermochemistry -
 -------------------
 Temperature   298.150 Kelvin.  Pressure   1.00000 Atm.
 Atom     1 has atomic number  6 and mass  12.00000

 Molecular mass:   126.06808 amu.
 Principal axes and moments of inertia in atomic units:
                           1         2         3
     Eigenvalues --   784.816771167.701321751.32329
           X            0.99772   0.06624  -0.01265
           Y           -0.06634   0.99777  -0.00761
           Z            0.01211   0.00843   0.99989
 This molecule is an asymmetric top.
 Rotational symmetry number  1.
 Warning -- assumption of classical behavior for rotation
           may cause significant error
 Rotational temperatures (Kelvin)      0.11036     0.07417     0.04946
 Rotational constants (GHZ):           2.29957     1.54555     1.03050
 Zero-point vibrational energy     416947.6 (Joules/Mol)
                                   99.65286 (Kcal/Mol)
 Warning -- explicit consideration of  11 degrees of freedom as
           vibrations may cause significant error
 Vibrational temperatures:    116.28   203.86   231.98   319.05   385.44
          (Kelvin)            436.63   462.49   568.76   633.90   710.89
                              805.73  1019.94  1078.56  1172.60  1245.28
                             1256.71  1309.57  1368.75  1397.85  1425.30
                             1475.34  1505.83  1524.52  1551.78  1624.93
                             1640.28  1660.26  1690.94  1701.06  1752.28
                             1829.86  1846.28  1874.32  1919.99  1955.61
                             1989.55  2091.11  2125.81  2139.27  2172.34
                             2407.20  4220.63  4275.66  4354.68  4476.15
                             4477.95  4570.72  4588.38  4596.52  4631.15
                             5474.44

 Zero-point correction=                           0.158807 (Hartree/Particle)
 Thermal correction to Energy=                    0.167387
 Thermal correction to Enthalpy=                  0.168331
 Thermal correction to Gibbs Free Energy=         0.125558
 Sum of electronic and zero-point Energies=           -422.999096
 Sum of electronic and thermal Energies=              -422.990517
 Sum of electronic and thermal Enthalpies=            -422.989572
 Sum of electronic and thermal Free Energies=         -423.032345

                     E (Thermal)             CV                S
                      KCal/Mol        Cal/Mol-Kelvin    Cal/Mol-Kelvin
 Total                  105.037             32.646             90.023
 Electronic               0.000              0.000              0.000
 Translational            0.889              2.981             40.409
 Rotational               0.889              2.981             28.864
 Vibrational            103.259             26.684             20.751
 Vibration     1          0.600              1.962              3.871
 Vibration     2          0.615              1.912              2.781
 Vibration     3          0.622              1.890              2.535
 Vibration     4          0.648              1.808              1.945
 Vibration     5          0.673              1.732              1.610
 Vibration     6          0.695              1.667              1.398
 Vibration     7          0.707              1.632              1.303
 Vibration     8          0.762              1.480              0.980
 Vibration     9          0.800              1.382              0.825
 Vibration    10          0.850              1.263              0.673
 Vibration    11          0.916              1.118              0.524

 Optimization completed.
    -- Stationary point found.
 Normal termination of Gaussian 09 at Tue Jan 28 14:48:20 2020.
