 Gaussian 09, Revision D.01,
 Gaussian 09:  ES64L-G09RevD.01 24-Apr-2013

 -----------------------------
 # b3lyp 6-31G(2df,p) opt Freq
 -----------------------------

 -----
 titel
 -----
 Symbolic Z-matrix:
 Charge =  0 Multiplicity = 1

 SCF Done:  E(RB3LYP) =  -423.249235553     A.U. after   13 cycles
 Optimization completed.
    -- Stationary point found.
 Normal termination of Gaussian 09 at Mon Jan 27 22:03:09 2020.

 ----------------------------------------------------------------------
 #N Geom=AllCheck Guess=TCheck SCRF=Check GenChk RB3LYP/6-31G(2df,p) Fr
 eq
 ----------------------------------------------------------------------

 Structure from the checkpoint file:  "/scratch/puck/g09_dfdc2b13-e5fa-410e-9e61-da8b5e98a082/Gau-76251.chk"
 -----
 titel
 -----
 Charge =  0 Multiplicity = 1

                         Standard orientation:
 ---------------------------------------------------------------------
 Center     Atomic      Atomic             Coordinates (Angstroms)
 Number     Number       Type             X           Y           Z
 ---------------------------------------------------------------------
      1          6           0       -2.339741   -0.000140    0.194236
      2          6           0       -0.851139   -0.000048    0.515671
      3          6           0       -0.118873    1.258678    0.015808
      4          8           0       -0.701739    2.152551   -0.547008
      5          6           0        1.382128    1.274721    0.267047
      6          6           0        2.042933    0.000119   -0.289449
      7          6           0        1.382292   -1.274570    0.267057
      8          6           0       -0.118734   -1.258737    0.015916
      9          8           0       -0.701467   -2.152590   -0.547068
     10          1           0       -2.818277   -0.891262    0.605109
     11          1           0       -2.818370    0.890972    0.605025
     12          1           0       -2.498427   -0.000199   -0.886031
     13          1           0       -0.688395   -0.000004    1.606503
     14          1           0        1.798012    2.177960   -0.183955
     15          1           0        1.551391    1.326928    1.351605
     16          1           0        1.967060    0.000113   -1.383412
     17          1           0        3.109573    0.000191   -0.047579
     18          1           0        1.798271   -2.177750   -0.183977
     19          1           0        1.551613   -1.326775    1.351605
 ---------------------------------------------------------------------

 SCF Done:  E(RB3LYP) =  -423.249235553     A.U. after    1 cycles

 The electronic state is 1-A.
 Alpha  occ. eigenvalues --  -19.13919 -19.13918 -10.27836 -10.27836 -10.21201
 Alpha  occ. eigenvalues --  -10.20822 -10.20410 -10.20409 -10.17473  -1.05226
 Alpha  occ. eigenvalues --   -1.04810  -0.84002  -0.78336  -0.73694  -0.67791
 Alpha  occ. eigenvalues --   -0.61485  -0.56478  -0.53281  -0.48547  -0.47718
 Alpha  occ. eigenvalues --   -0.47261  -0.44958  -0.44426  -0.42129  -0.40883
 Alpha  occ. eigenvalues --   -0.38986  -0.38629  -0.36926  -0.36732  -0.35553
 Alpha  occ. eigenvalues --   -0.34989  -0.34780  -0.25761  -0.24660
 Alpha virt. eigenvalues --   -0.03565  -0.00441   0.08273   0.09748   0.12044
 Alpha virt. eigenvalues --    0.13175   0.13197   0.14995   0.15342   0.17075
 Alpha virt. eigenvalues --    0.17354   0.17475   0.18253   0.20129   0.22007

 Mulliken charges:
               1
     1  C   -0.395008
     2  C   -0.189937
     3  C    0.375099
     4  O   -0.293143
     5  C   -0.293942
     6  C   -0.221440
     7  C   -0.293939
     8  C    0.375074
     9  O   -0.293131
    10  H    0.123734
    11  H    0.123738
    12  H    0.139271
    13  H    0.113742
    14  H    0.126687
    15  H    0.116860
    16  H    0.125777
    17  H    0.117017
    18  H    0.126688
    19  H    0.116854
 Sum of Mulliken charges =   0.00000

 Dipole moment (field-independent basis, Debye):
    X=              2.7556    Y=              0.0001    Z=              2.2533  Tot=              3.5596
 Quadrupole moment (field-independent basis, Debye-Ang):
   XX=            -50.8701   YY=            -63.8024   ZZ=            -51.6713
   XY=              0.0009   XZ=             -1.6821   YZ=             -0.0004

  Exact polarizability:  84.572   0.000  82.473   1.949   0.000  61.659
 Approx polarizability: 111.780  -0.002 129.280   7.964   0.001 102.557

                      1                      2                      3
                      A                      A                      A
 Frequencies --     73.1199                99.8226               150.3200
 Red. masses --      6.0330                 3.3887                 1.0334
 Frc consts  --      0.0190                 0.0199                 0.0138
 IR Inten    --      4.2067                 0.0195                 0.0010

                      4                      5                      6
                      A                      A                      A
 Frequencies --    202.0743               276.3060               276.7888
 Red. masses --      2.5902                 3.0795                 3.0291
 Frc consts  --      0.0623                 0.1385                 0.1367
 IR Inten    --      1.0141                 3.8903                 3.3520

                      7                      8                      9
                      A                      A                      A
 Frequencies --    372.7279               387.8292               454.2367
 Red. masses --      4.3021                 3.0944                 2.2811
 Frc consts  --      0.3521                 0.2742                 0.2773
 IR Inten    --      9.8960                 1.5425                 5.5139

                     10                     11                     12
                      A                      A                      A
 Frequencies --    550.8750               566.9316               601.6488
 Red. masses --      4.3912                 2.6623                 4.1003
 Frc consts  --      0.7851                 0.5042                 0.8745
 IR Inten    --      5.6026                 0.3513                13.1651

                     13                     14                     15
                      A                      A                      A
 Frequencies --    637.6429               782.1408               809.0000
 Red. masses --      4.6508                 1.9776                 2.5476
 Frc consts  --      1.1141                 0.7128                 0.9824
 IR Inten    --      3.8681                 7.1413                 6.4128

                     16                     17                     18
                      A                      A                      A
 Frequencies --    854.8273               868.0641               899.0806
 Red. masses --      1.5246                 2.5975                 2.7223
 Frc consts  --      0.6564                 1.1532                 1.2965
 IR Inten    --      0.0672                14.7430                 0.2710

                     19                     20                     21
                      A                      A                      A
 Frequencies --    978.9214              1022.1186              1047.0963
 Red. masses --      1.2694                 1.6436                 1.5832
 Frc consts  --      0.7167                 1.0117                 1.0227
 IR Inten    --      0.9521                35.1020                 0.2998

                     22                     23                     24
                      A                      A                      A
 Frequencies --   1071.4724              1085.9364              1129.4246
 Red. masses --      3.0191                 1.9173                 2.5115
 Frc consts  --      2.0422                 1.3321                 1.8875
 IR Inten    --      8.8127                22.6447                 7.4359

                     25                     26                     27
                      A                      A                      A
 Frequencies --   1144.8715              1207.7738              1209.1507
 Red. masses --      1.6400                 1.3462                 1.9766
 Frc consts  --      1.2665                 1.1570                 1.7026
 IR Inten    --      6.7296                 0.6343                47.6081

                     28                     29                     30
                      A                      A                      A
 Frequencies --   1238.6763              1275.9667              1327.7007
 Red. masses --      1.7144                 1.2693                 1.5379
 Frc consts  --      1.5498                 1.2175                 1.5972
 IR Inten    --     31.6780                10.8997                 0.5398

                     31                     32                     33
                      A                      A                      A
 Frequencies --   1341.6327              1347.6240              1366.2011
 Red. masses --      1.2584                 2.4056                 1.4470
 Frc consts  --      1.3346                 2.5740                 1.5912
 IR Inten    --      0.3766                32.4523                11.8500

                     34                     35                     36
                      A                      A                      A
 Frequencies --   1414.0515              1464.7616              1473.1913
 Red. masses --      1.2286                 1.0950                 1.0873
 Frc consts  --      1.4474                 1.3842                 1.3903
 IR Inten    --      5.2959                 4.2417                 8.3496

                     37                     38                     39
                      A                      A                      A
 Frequencies --   1483.3910              1487.3977              1499.2924
 Red. masses --      1.0417                 1.0462                 1.0873
 Frc consts  --      1.3505                 1.3637                 1.4400
 IR Inten    --      7.6085                 4.8530                 3.3304

                     40                     41                     42
                      A                      A                      A
 Frequencies --   1802.7348              1833.8954              2980.6820
 Red. masses --     11.2744                11.7894                 1.0795
 Frc consts  --     21.5878                23.3611                 5.6509
 IR Inten    --    256.3728               119.6720                 8.7325

                     43                     44                     45
                      A                      A                      A
 Frequencies --   3020.2742              3020.5117              3041.5966
 Red. masses --      1.0685                 1.0671                 1.0613
 Frc consts  --      5.7428                 5.7361                 5.7848
 IR Inten    --     12.0839                 4.3424                27.5231

                     46                     47                     48
                      A                      A                      A
 Frequencies --   3064.7030              3089.6358              3114.4445
 Red. masses --      1.0346                 1.1008                 1.0947
 Frc consts  --      5.7255                 6.1910                 6.2561
 IR Inten    --     13.6627                21.6005                15.1871

                     49                     50                     51
                      A                      A                      A
 Frequencies --   3116.0533              3141.1852              3142.2266
 Red. masses --      1.0965                 1.1017                 1.1032
 Frc consts  --      6.2729                 6.4046                 6.4174
 IR Inten    --     11.6563                11.5463                11.3679

 - Thermochemistry -
 -------------------
 Temperature   298.150 Kelvin.  Pressure   1.00000 Atm.
 Atom     1 has atomic number  6 and mass  12.00000

 Molecular mass:   126.06808 amu.
 Principal axes and moments of inertia in atomic units:
                           1         2         3
     Eigenvalues --   927.83567 948.586481693.03146
           X           -0.00031   0.99997  -0.00747
           Y            1.00000   0.00031   0.00000
           Z            0.00000   0.00747   0.99997
 This molecule is an asymmetric top.
 Rotational symmetry number  1.
 Warning -- assumption of classical behavior for rotation
           may cause significant error
 Rotational temperatures (Kelvin)      0.09335     0.09131     0.05116
 Rotational constants (GHZ):           1.94511     1.90256     1.06598
 Zero-point vibrational energy     417784.0 (Joules/Mol)
                                   99.85277 (Kcal/Mol)
 Warning -- explicit consideration of  12 degrees of freedom as
           vibrations may cause significant error
 Vibrational temperatures:    105.20   143.62   216.28   290.74   397.54
          (Kelvin)            398.24   536.27   558.00   653.54   792.59
                              815.69   865.64   917.42  1125.32  1163.97
                             1229.90  1248.95  1293.57  1408.45  1470.60
                             1506.54  1541.61  1562.42  1624.99  1647.21
                             1737.71  1739.70  1782.18  1835.83  1910.26
                             1930.31  1938.93  1965.66  2034.50  2107.46
                             2119.59  2134.27  2140.03  2157.14  2593.73
                             2638.56  4288.53  4345.50  4345.84  4376.17
                             4409.42  4445.29  4480.99  4483.30  4519.46
                             4520.96

 Zero-point correction=                           0.159126 (Hartree/Particle)
 Thermal correction to Energy=                    0.167840
 Thermal correction to Enthalpy=                  0.168784
 Thermal correction to Gibbs Free Energy=         0.125508
 Sum of electronic and zero-point Energies=           -423.090110
 Sum of electronic and thermal Energies=              -423.081395
 Sum of electronic and thermal Enthalpies=            -423.080451
 Sum of electronic and thermal Free Energies=         -423.123728

                     E (Thermal)             CV                S
                      KCal/Mol        Cal/Mol-Kelvin    Cal/Mol-Kelvin
 Total                  105.321             32.554             91.083
 Electronic               0.000              0.000              0.000
 Translational            0.889              2.981             40.409
 Rotational               0.889              2.981             28.790
 Vibrational            103.544             26.593             21.885
 Vibration     1          0.599              1.967              4.068
 Vibration     2          0.604              1.949              3.458
 Vibration     3          0.618              1.902              2.668
 Vibration     4          0.639              1.837              2.114
 Vibration     5          0.678              1.717              1.556
 Vibration     6          0.678              1.716              1.553
 Vibration     7          0.744              1.528              1.069
 Vibration     8          0.756              1.496              1.008
 Vibration     9          0.813              1.352              0.783
 Vibration    10          0.906              1.138              0.542
 Vibration    11          0.923              1.103              0.510
 Vibration    12          0.960              1.028              0.447

 Optimization completed.
    -- Stationary point found.
 Normal termination of Gaussian 09 at Mon Jan 27 22:44:09 2020.
