 Gaussian 09, Revision D.01,
 Gaussian 09:  ES64L-G09RevD.01 24-Apr-2013

 -----------------------------
 # b3lyp 6-31G(2df,p) opt Freq
 -----------------------------

 -----
 titel
 -----
 Symbolic Z-matrix:
 Charge =  0 Multiplicity = 1

 SCF Done:  E(RB3LYP) =  -423.192075775     A.U. after   13 cycles
 SCF Done:  E(RB3LYP) =  -423.192076355     A.U. after    7 cycles
 Optimization completed.
    -- Stationary point found.
 Normal termination of Gaussian 09 at Mon Jan 27 12:43:10 2020.

 ----------------------------------------------------------------------
 #N Geom=AllCheck Guess=TCheck SCRF=Check GenChk RB3LYP/6-31G(2df,p) Fr
 eq
 ----------------------------------------------------------------------

 Structure from the checkpoint file:  "/scratch/puck/g09_ec7c4cba-4eb9-4952-a791-de34542aa581/Gau-26318.chk"
 -----
 titel
 -----
 Charge =  0 Multiplicity = 1

                         Standard orientation:
 ---------------------------------------------------------------------
 Center     Atomic      Atomic             Coordinates (Angstroms)
 Number     Number       Type             X           Y           Z
 ---------------------------------------------------------------------
      1          6           0        1.346372   -0.769115   -0.813198
      2          6           0        1.337734    0.780574   -0.814966
      3          6           0        0.245669    1.349179    0.111467
      4          8           0       -1.041490    1.178801   -0.520618
      5          6           0       -1.730518   -0.008128   -0.217986
      6          8           0       -1.029485   -1.187581   -0.521962
      7          6           0        0.258196   -1.346985    0.111956
      8          6           0        0.338035   -0.664847    1.462218
      9          6           0        0.332238    0.668474    1.461934
     10          1           0        1.173394   -1.163654   -1.818172
     11          1           0        2.318282   -1.147119   -0.478817
     12          1           0        2.306407    1.170075   -0.484424
     13          1           0        1.157467    1.170871   -1.820317
     14          1           0        0.366931    2.431489    0.205728
     15          1           0       -2.038460   -0.010300    0.836693
     16          1           0       -2.615912   -0.012237   -0.857994
     17          1           0        0.388681   -2.428167    0.206975
     18          1           0        0.377843   -1.255309    2.371483
     19          1           0        0.366805    1.259679    2.370932
 ---------------------------------------------------------------------

 SCF Done:  E(RB3LYP) =  -423.192076355     A.U. after    1 cycles

 The electronic state is 1-A.
 Alpha  occ. eigenvalues --  -19.13577 -19.13575 -10.26168 -10.23608 -10.23606
 Alpha  occ. eigenvalues --  -10.19124 -10.19035 -10.18015 -10.17997  -1.05721
 Alpha  occ. eigenvalues --   -0.99443  -0.83450  -0.75100  -0.72635  -0.68809
 Alpha  occ. eigenvalues --   -0.60284  -0.57466  -0.54248  -0.52830  -0.49215
 Alpha  occ. eigenvalues --   -0.45907  -0.44184  -0.44131  -0.41849  -0.40594
 Alpha  occ. eigenvalues --   -0.40032  -0.37073  -0.34579  -0.34434  -0.32152
 Alpha  occ. eigenvalues --   -0.29908  -0.26634  -0.25689  -0.25021
 Alpha virt. eigenvalues --   -0.00811   0.08426   0.11508   0.12598   0.13791
 Alpha virt. eigenvalues --    0.14677   0.15594   0.16036   0.16682   0.16734
 Alpha virt. eigenvalues --    0.17956   0.19542   0.20291   0.22153   0.22298

 Mulliken charges:
               1
     1  C   -0.206020
     2  C   -0.206016
     3  C    0.073818
     4  O   -0.274202
     5  C    0.030788
     6  O   -0.274231
     7  C    0.073836
     8  C   -0.091942
     9  C   -0.091740
    10  H    0.110115
    11  H    0.097217
    12  H    0.097230
    13  H    0.110219
    14  H    0.077011
    15  H    0.084995
    16  H    0.113699
    17  H    0.076991
    18  H    0.099101
    19  H    0.099131
 Sum of Mulliken charges =   0.00000

 Dipole moment (field-independent basis, Debye):
    X=              1.3452    Y=              0.0050    Z=              1.4449  Tot=              1.9742
 Quadrupole moment (field-independent basis, Debye-Ang):
   XX=            -52.6822   YY=            -53.2388   ZZ=            -51.9632
   XY=              0.0081   XZ=             -1.0400   YZ=             -0.0076

  Exact polarizability:  71.943  -0.034  78.730   0.312  -0.002  71.753
 Approx polarizability: 102.051  -0.114 126.440   4.408   0.014 104.732

                      1                      2                      3
                      A                      A                      A
 Frequencies --     89.2206               293.0043               316.2298
 Red. masses --      2.6694                 2.5807                 5.3755
 Frc consts  --      0.0125                 0.1305                 0.3167
 IR Inten    --      0.8823                 1.1998                 1.3090

                      4                      5                      6
                      A                      A                      A
 Frequencies --    335.3184               356.8062               451.1362
 Red. masses --      2.3007                 2.2384                 3.0908
 Frc consts  --      0.1524                 0.1679                 0.3706
 IR Inten    --      2.5403                 1.0787                12.0315

                      7                      8                      9
                      A                      A                      A
 Frequencies --    533.8379               546.1205               658.9057
 Red. masses --      4.0807                 6.4172                 4.1440
 Frc consts  --      0.6852                 1.1276                 1.0600
 IR Inten    --      1.4003                 0.5639                 0.0002

                     10                     11                     12
                      A                      A                      A
 Frequencies --    709.4374               743.4532               771.0470
 Red. masses --      4.1395                 1.7469                 1.8452
 Frc consts  --      1.2275                 0.5689                 0.6463
 IR Inten    --     14.9091                 8.2576                 1.2916

                     13                     14                     15
                      A                      A                      A
 Frequencies --    798.1747               828.8716               918.8795
 Red. masses --      3.1633                 2.7463                 2.3926
 Frc consts  --      1.1874                 1.1117                 1.1902
 IR Inten    --      4.8143                 2.6535                 7.2884

                     16                     17                     18
                      A                      A                      A
 Frequencies --    929.2840               954.1170               969.6774
 Red. masses --      2.8284                 2.3781                 2.2771
 Frc consts  --      1.4391                 1.2755                 1.2615
 IR Inten    --     21.7177                 8.4883                 1.3468

                     19                     20                     21
                      A                      A                      A
 Frequencies --    990.0354              1010.0735              1062.8432
 Red. masses --      2.0178                 2.4838                 5.7302
 Frc consts  --      1.1653                 1.4931                 3.8138
 IR Inten    --      4.4825                26.7006                58.7459

                     22                     23                     24
                      A                      A                      A
 Frequencies --   1076.0446              1082.7837              1119.3506
 Red. masses --      2.6631                 2.0200                 2.8863
 Frc consts  --      1.8168                 1.3954                 2.1307
 IR Inten    --      1.2237                31.2995               132.1521

                     25                     26                     27
                      A                      A                      A
 Frequencies --   1158.5744              1179.9888              1206.7221
 Red. masses --      1.1387                 1.9888                 1.2429
 Frc consts  --      0.9005                 1.6316                 1.0664
 IR Inten    --     25.6403                51.9988                40.4870

                     28                     29                     30
                      A                      A                      A
 Frequencies --   1268.7565              1269.1558              1306.2067
 Red. masses --      1.4366                 1.1488                 1.0749
 Frc consts  --      1.3625                 1.0903                 1.0805
 IR Inten    --      3.1840                 0.4737                 0.1665

                     31                     32                     33
                      A                      A                      A
 Frequencies --   1332.6987              1344.7658              1372.8902
 Red. masses --      1.4931                 1.3775                 1.2289
 Frc consts  --      1.5624                 1.4677                 1.3647
 IR Inten    --      0.7297                 0.0245                 3.6150

                     34                     35                     36
                      A                      A                      A
 Frequencies --   1376.5088              1385.7177              1402.0125
 Red. masses --      1.2803                 1.4401                 1.6396
 Frc consts  --      1.4293                 1.6293                 1.8989
 IR Inten    --      6.1190                 1.4441                10.6911

                     37                     38                     39
                      A                      A                      A
 Frequencies --   1444.9376              1468.7987              1490.0147
 Red. masses --      1.1746                 1.0772                 1.0971
 Frc consts  --      1.4448                 1.3693                 1.4351
 IR Inten    --      7.2147                 0.0263                 4.7398

                     40                     41                     42
                      A                      A                      A
 Frequencies --   1513.6082              1688.9718              3002.9296
 Red. masses --      1.0842                 6.1691                 1.0675
 Frc consts  --      1.4635                10.3685                 5.6716
 IR Inten    --      0.8341                 0.3817                73.9515

                     43                     44                     45
                      A                      A                      A
 Frequencies --   3040.4220              3051.6467              3071.6106
 Red. masses --      1.0626                 1.0639                 1.0860
 Frc consts  --      5.7876                 5.8374                 6.0369
 IR Inten    --      9.1988                27.3605                89.7024

                     46                     47                     48
                      A                      A                      A
 Frequencies --   3075.2412              3085.1598              3104.1088
 Red. masses --      1.0860                 1.1018                 1.0992
 Frc consts  --      6.0511                 6.1789                 6.2400
 IR Inten    --     12.2609                 1.6464                 2.1990

                     49                     50                     51
                      A                      A                      A
 Frequencies --   3104.4971              3171.5143              3194.5167
 Red. masses --      1.1001                 1.0850                 1.1012
 Frc consts  --      6.2471                 6.4300                 6.6210
 IR Inten    --     64.2833                 6.0653                19.9122

 - Thermochemistry -
 -------------------
 Temperature   298.150 Kelvin.  Pressure   1.00000 Atm.
 Atom     1 has atomic number  6 and mass  12.00000

 Molecular mass:   126.06808 amu.
 Principal axes and moments of inertia in atomic units:
                           1         2         3
     Eigenvalues --   822.97182 855.32501 989.52772
           X            0.99637   0.00176  -0.08510
           Y           -0.00182   1.00000  -0.00067
           Z            0.08510   0.00082   0.99637
 This molecule is an asymmetric top.
 Rotational symmetry number  1.
 Warning -- assumption of classical behavior for rotation
           may cause significant error
 Rotational temperatures (Kelvin)      0.10525     0.10126     0.08753
 Rotational constants (GHZ):           2.19296     2.11001     1.82384
 Zero-point vibrational energy     428601.8 (Joules/Mol)
                                  102.43829 (Kcal/Mol)
 Warning -- explicit consideration of   8 degrees of freedom as
           vibrations may cause significant error
 Vibrational temperatures:    128.37   421.57   454.98   482.45   513.36
          (Kelvin)            649.08   768.07   785.74   948.02  1020.72
                             1069.66  1109.36  1148.39  1192.56  1322.06
                             1337.03  1372.76  1395.15  1424.44  1453.27
                             1529.19  1548.19  1557.88  1610.49  1666.93
                             1697.74  1736.20  1825.46  1826.03  1879.34
                             1917.45  1934.82  1975.28  1980.49  1993.74
                             2017.18  2078.94  2113.27  2143.80  2177.74
                             2430.05  4320.54  4374.48  4390.63  4419.36
                             4424.58  4438.85  4466.11  4466.67  4563.10
                             4596.19

 Zero-point correction=                           0.163246 (Hartree/Particle)
 Thermal correction to Energy=                    0.170151
 Thermal correction to Enthalpy=                  0.171095
 Thermal correction to Gibbs Free Energy=         0.132103
 Sum of electronic and zero-point Energies=           -423.028831
 Sum of electronic and thermal Energies=              -423.021925
 Sum of electronic and thermal Enthalpies=            -423.020981
 Sum of electronic and thermal Free Energies=         -423.059973

                     E (Thermal)             CV                S
                      KCal/Mol        Cal/Mol-Kelvin    Cal/Mol-Kelvin
 Total                  106.771             28.424             82.066
 Electronic               0.000              0.000              0.000
 Translational            0.889              2.981             40.409
 Rotational               0.889              2.981             28.034
 Vibrational            104.994             22.463             13.623
 Vibration     1          0.602              1.957              3.677
 Vibration     2          0.688              1.687              1.457
 Vibration     3          0.703              1.643              1.330
 Vibration     4          0.716              1.605              1.234
 Vibration     5          0.732              1.561              1.136
 Vibration     6          0.810              1.358              0.792
 Vibration     7          0.889              1.175              0.579
 Vibration     8          0.901              1.148              0.552

 Normal termination of Gaussian 09 at Mon Jan 27 13:36:29 2020.
