 Gaussian 09, Revision D.01,
 Gaussian 09:  ES64L-G09RevD.01 24-Apr-2013

 -----------------------------
 # b3lyp 6-31G(2df,p) opt Freq
 -----------------------------

 -----
 titel
 -----
 Symbolic Z-matrix:
 Charge =  0 Multiplicity = 1

 SCF Done:  E(RB3LYP) =  -423.213606450     A.U. after   14 cycles
 Optimization completed.
    -- Stationary point found.
 Normal termination of Gaussian 09 at Tue Jan 28 00:03:20 2020.

 ----------------------------------------------------------------------
 #N Geom=AllCheck Guess=TCheck SCRF=Check GenChk RB3LYP/6-31G(2df,p) Fr
 eq
 ----------------------------------------------------------------------

 Structure from the checkpoint file:  "/scratch/puck/g09_86aa9cf2-dc59-4d1b-9476-bb994e256853/Gau-116676.chk"
 -----
 titel
 -----
 Charge =  0 Multiplicity = 1

                         Standard orientation:
 ---------------------------------------------------------------------
 Center     Atomic      Atomic             Coordinates (Angstroms)
 Number     Number       Type             X           Y           Z
 ---------------------------------------------------------------------
      1          6           0        1.859326    0.144976    1.271561
      2          6           0        1.039174    0.118792   -0.039416
      3          6           0        1.879779   -0.473164   -1.180767
      4          6           0        0.438395    1.473910   -0.365892
      5          6           0       -0.878841    1.544037   -0.164334
      6          6           0       -1.432624    0.262416    0.399577
      7          8           0       -2.603505   -0.202769   -0.232522
      8          6           0       -0.248239   -0.695373    0.177652
      9          8           0       -0.377504   -1.890161    0.085746
     10          1           0        1.272296    0.534676    2.108494
     11          1           0        2.202901   -0.862313    1.527048
     12          1           0        2.738388    0.786415    1.151004
     13          1           0        1.330655   -0.458394   -2.126444
     14          1           0        2.804340    0.098331   -1.312275
     15          1           0        2.141780   -1.510913   -0.957120
     16          1           0        1.056119    2.291316   -0.724247
     17          1           0       -1.502524    2.413270   -0.334828
     18          1           0       -1.603381    0.365390    1.488288
     19          1           0       -2.534323   -1.167894   -0.235997
 ---------------------------------------------------------------------

 SCF Done:  E(RB3LYP) =  -423.213606450     A.U. after    1 cycles

 The electronic state is 1-A.
 Alpha  occ. eigenvalues --  -19.14926 -19.13688 -10.27305 -10.24147 -10.21274
 Alpha  occ. eigenvalues --  -10.19607 -10.19324 -10.19161 -10.18312  -1.06178
 Alpha  occ. eigenvalues --   -1.01760  -0.85904  -0.77310  -0.69801  -0.68554
 Alpha  occ. eigenvalues --   -0.64129  -0.55773  -0.54156  -0.49408  -0.49038
 Alpha  occ. eigenvalues --   -0.46714  -0.44050  -0.43249  -0.42497  -0.40277
 Alpha  occ. eigenvalues --   -0.40043  -0.38226  -0.37410  -0.35340  -0.34976
 Alpha  occ. eigenvalues --   -0.34353  -0.27932  -0.26514  -0.24651
 Alpha virt. eigenvalues --   -0.02774   0.00281   0.08496   0.10688   0.12039
 Alpha virt. eigenvalues --    0.12981   0.14084   0.14883   0.16543   0.17314
 Alpha virt. eigenvalues --    0.18323   0.18921   0.19131   0.20546   0.22895

 Mulliken charges:
               1
     1  C   -0.422603
     2  C    0.116716
     3  C   -0.422282
     4  C   -0.094610
     5  C   -0.111966
     6  C    0.011952
     7  O   -0.441980
     8  C    0.344528
     9  O   -0.336221
    10  H    0.122415
    11  H    0.133143
    12  H    0.122680
    13  H    0.125144
    14  H    0.113705
    15  H    0.136507
    16  H    0.102765
    17  H    0.112855
    18  H    0.094311
    19  H    0.292942
 Sum of Mulliken charges =   0.00000

 Dipole moment (field-independent basis, Debye):
    X=              1.8842    Y=              1.5627    Z=              0.6084  Tot=              2.5224
 Quadrupole moment (field-independent basis, Debye-Ang):
   XX=            -55.0164   YY=            -54.8032   ZZ=            -52.6244
   XY=              1.3399   XZ=             -1.3586   YZ=             -0.0535

  Exact polarizability:  91.140  -0.453  76.602  -2.000  -0.760  61.826
 Approx polarizability: 132.601   0.859 119.045  -3.409  -0.822  91.313

                      1                      2                      3
                      A                      A                      A
 Frequencies --     56.4185               176.0947               190.5707
 Red. masses --      5.7122                 3.0964                 2.6430
 Frc consts  --      0.0107                 0.0566                 0.0566
 IR Inten    --      1.5558                 1.0366                 7.8963

                      4                      5                      6
                      A                      A                      A
 Frequencies --    205.4682               233.8626               270.2386
 Red. masses --      1.1275                 1.1974                 2.9396
 Frc consts  --      0.0280                 0.0386                 0.1265
 IR Inten    --      0.8346                 1.3349                 9.2873

                      7                      8                      9
                      A                      A                      A
 Frequencies --    293.9430               329.8295               349.7640
 Red. masses --      3.1015                 2.4067                 2.3692
 Frc consts  --      0.1579                 0.1543                 0.1708
 IR Inten    --     10.4794                 0.3854                28.4916

                     10                     11                     12
                      A                      A                      A
 Frequencies --    357.7568               518.1219               540.9513
 Red. masses --      1.2575                 4.1582                 3.3592
 Frc consts  --      0.0948                 0.6577                 0.5792
 IR Inten    --     56.3991                 3.8185                 3.4160

                     13                     14                     15
                      A                      A                      A
 Frequencies --    580.7842               681.4461               702.1610
 Red. masses --      3.3915                 5.0315                 4.8511
 Frc consts  --      0.6740                 1.3766                 1.4092
 IR Inten    --      1.5294                 2.5639                 1.5301

                     16                     17                     18
                      A                      A                      A
 Frequencies --    756.8127               858.5600               865.0090
 Red. masses --      1.5621                 4.3075                 2.5058
 Frc consts  --      0.5272                 1.8708                 1.1047
 IR Inten    --     22.6899                 9.2788                 5.3007

                     19                     20                     21
                      A                      A                      A
 Frequencies --    949.9619               955.2532               982.7991
 Red. masses --      1.9245                 1.6823                 1.3199
 Frc consts  --      1.0232                 0.9045                 0.7512
 IR Inten    --      4.4547                 4.4864                 1.2189

                     22                     23                     24
                      A                      A                      A
 Frequencies --    996.3544              1016.4932              1050.5759
 Red. masses --      2.3249                 1.5349                 2.2124
 Frc consts  --      1.3598                 0.9344                 1.4387
 IR Inten    --     20.2205                 7.5633                75.0442

                     25                     26                     27
                      A                      A                      A
 Frequencies --   1104.8439              1157.2189              1169.3011
 Red. masses --      1.2790                 2.6966                 2.6395
 Frc consts  --      0.9199                 2.1276                 2.1263
 IR Inten    --     10.1811                62.6714                11.7380

                     28                     29                     30
                      A                      A                      A
 Frequencies --   1219.9419              1240.1374              1256.3477
 Red. masses --      1.3863                 2.3622                 2.7813
 Frc consts  --      1.2156                 2.1405                 2.5865
 IR Inten    --     32.8014                 8.6454                 8.7028

                     31                     32                     33
                      A                      A                      A
 Frequencies --   1334.5879              1373.7669              1391.1984
 Red. masses --      1.2405                 1.6548                 1.2113
 Frc consts  --      1.3018                 1.8400                 1.3813
 IR Inten    --     20.5179                13.9098                 2.9143

                     34                     35                     36
                      A                      A                      A
 Frequencies --   1410.3777              1420.7787              1482.1461
 Red. masses --      1.3887                 1.4655                 1.0484
 Frc consts  --      1.6276                 1.7429                 1.3569
 IR Inten    --     14.6025                10.1060                 3.6621

                     37                     38                     39
                      A                      A                      A
 Frequencies --   1484.5976              1499.2827              1507.8866
 Red. masses --      1.0451                 1.0609                 1.0564
 Frc consts  --      1.3572                 1.4050                 1.4152
 IR Inten    --      0.0707                 4.6613                 8.2041

                     40                     41                     42
                      A                      A                      A
 Frequencies --   1671.9030              1840.9114              2915.9141
 Red. masses --      6.8978                12.6945                 1.0780
 Frc consts  --     11.3601                25.3473                 5.4003
 IR Inten    --      2.1147               149.7098                37.6376

                     43                     44                     45
                      A                      A                      A
 Frequencies --   3032.5610              3038.7742              3105.0082
 Red. masses --      1.0336                 1.0349                 1.1020
 Frc consts  --      5.6004                 5.6303                 6.2598
 IR Inten    --     21.4710                20.0889                10.9449

                     46                     47                     48
                      A                      A                      A
 Frequencies --   3110.4993              3112.6041              3122.0159
 Red. masses --      1.1015                 1.1027                 1.1020
 Frc consts  --      6.2793                 6.2944                 6.3282
 IR Inten    --     22.9678                17.7604                16.4664

                     49                     50                     51
                      A                      A                      A
 Frequencies --   3179.4575              3213.8276              3743.8526
 Red. masses --      1.0878                 1.1006                 1.0654
 Frc consts  --      6.4787                 6.6978                 8.7986
 IR Inten    --      7.0470                10.0150                33.3334

 - Thermochemistry -
 -------------------
 Temperature   298.150 Kelvin.  Pressure   1.00000 Atm.
 Atom     1 has atomic number  6 and mass  12.00000

 Molecular mass:   126.06808 amu.
 Principal axes and moments of inertia in atomic units:
                           1         2         3
     Eigenvalues --   709.467191230.348841513.88342
           X            0.99994  -0.00873  -0.00614
           Y            0.00884   0.99981   0.01722
           Z            0.00599  -0.01728   0.99983
 This molecule is an asymmetric top.
 Rotational symmetry number  1.
 Warning -- assumption of classical behavior for rotation
           may cause significant error
 Rotational temperatures (Kelvin)      0.12208     0.07040     0.05721
 Rotational constants (GHZ):           2.54380     1.46685     1.19213
 Zero-point vibrational energy     413064.4 (Joules/Mol)
                                   98.72476 (Kcal/Mol)
 Warning -- explicit consideration of  13 degrees of freedom as
           vibrations may cause significant error
 Vibrational temperatures:     81.17   253.36   274.19   295.62   336.48
          (Kelvin)            388.81   422.92   474.55   503.23   514.73
                              745.46   778.31   835.62   980.45  1010.25
                             1088.88  1235.27  1244.55  1366.78  1374.39
                             1414.03  1433.53  1462.51  1511.54  1589.62
                             1664.98  1682.36  1755.22  1784.28  1807.60
                             1920.17  1976.54  2001.62  2029.22  2044.18
                             2132.48  2136.00  2157.13  2169.51  2405.49
                             2648.66  4195.34  4363.17  4372.11  4467.41
                             4475.31  4478.34  4491.88  4574.52  4623.98
                             5386.56

 Zero-point correction=                           0.157328 (Hartree/Particle)
 Thermal correction to Energy=                    0.166629
 Thermal correction to Enthalpy=                  0.167574
 Thermal correction to Gibbs Free Energy=         0.123551
 Sum of electronic and zero-point Energies=           -423.056279
 Sum of electronic and thermal Energies=              -423.046977
 Sum of electronic and thermal Enthalpies=            -423.046033
 Sum of electronic and thermal Free Energies=         -423.090056

                     E (Thermal)             CV                S
                      KCal/Mol        Cal/Mol-Kelvin    Cal/Mol-Kelvin
 Total                  104.562             34.946             92.654
 Electronic               0.000              0.000              0.000
 Translational            0.889              2.981             40.409
 Rotational               0.889              2.981             28.671
 Vibrational            102.784             28.984             23.575
 Vibration     1          0.596              1.975              4.579
 Vibration     2          0.628              1.872              2.369
 Vibration     3          0.634              1.853              2.222
 Vibration     4          0.640              1.832              2.084
 Vibration     5          0.654              1.789              1.849
 Vibration     6          0.674              1.728              1.595
 Vibration     7          0.689              1.685              1.451
 Vibration     8          0.713              1.616              1.261
 Vibration     9          0.727              1.576              1.167
 Vibration    10          0.733              1.559              1.132
 Vibration    11          0.873              1.210              0.614
 Vibration    12          0.896              1.160              0.563
 Vibration    13          0.937              1.073              0.484

 Optimization completed.
    -- Stationary point found.
 Normal termination of Gaussian 09 at Tue Jan 28 00:57:19 2020.
