 Gaussian 09, Revision D.01,
 Gaussian 09:  ES64L-G09RevD.01 24-Apr-2013

 -----------------------------
 # b3lyp 6-31G(2df,p) opt Freq
 -----------------------------

 -----
 titel
 -----
 Symbolic Z-matrix:
 Charge =  0 Multiplicity = 1

 SCF Done:  E(RB3LYP) =  -423.143969511     A.U. after   13 cycles
 Optimization completed.
    -- Stationary point found.
 Normal termination of Gaussian 09 at Mon Jan 27 12:15:57 2020.

 ----------------------------------------------------------------------
 #N Geom=AllCheck Guess=TCheck SCRF=Check GenChk RB3LYP/6-31G(2df,p) Fr
 eq
 ----------------------------------------------------------------------

 Structure from the checkpoint file:  "/scratch/puck/g09_19019543-97c3-4aa9-a464-e52d7d011270/Gau-153289.chk"
 -----
 titel
 -----
 Charge =  0 Multiplicity = 1

                         Standard orientation:
 ---------------------------------------------------------------------
 Center     Atomic      Atomic             Coordinates (Angstroms)
 Number     Number       Type             X           Y           Z
 ---------------------------------------------------------------------
      1          6           0       -2.007371    0.629318    0.126885
      2          8           0       -1.863678   -0.817786   -0.034978
      3          6           0       -0.439245   -0.665059   -0.074467
      4          6           0        0.675239   -1.313090   -0.901898
      5          6           0        1.581779   -0.561595    0.146280
      6          6           0        0.447812   -0.795950    1.180573
      7          6           0        1.666413    0.966992   -0.108270
      8          8           0        0.405303    1.621382    0.116513
      9          6           0       -0.589423    0.806867   -0.444636
     10          1           0       -2.848408    1.022586   -0.449119
     11          1           0       -2.102499    0.910510    1.182366
     12          1           0        0.767886   -2.396588   -0.787587
     13          1           0        0.744564   -1.034805   -1.957614
     14          1           0        2.570889   -0.979672    0.336478
     15          1           0        0.449439   -1.816891    1.568677
     16          1           0        0.324548   -0.072432    1.987939
     17          1           0        2.368967    1.430568    0.590032
     18          1           0        2.016787    1.167080   -1.133341
     19          1           0       -0.636394    0.935980   -1.536916
 ---------------------------------------------------------------------

 SCF Done:  E(RB3LYP) =  -423.143969511     A.U. after    1 cycles

 The electronic state is 1-A.
 Alpha  occ. eigenvalues --  -19.14683 -19.13867 -10.23610 -10.23517 -10.23346
 Alpha  occ. eigenvalues --  -10.23134 -10.20379 -10.18958 -10.18166  -1.05601
 Alpha  occ. eigenvalues --   -1.02701  -0.85813  -0.74727  -0.69403  -0.67065
 Alpha  occ. eigenvalues --   -0.63472  -0.58866  -0.53299  -0.51194  -0.49081
 Alpha  occ. eigenvalues --   -0.48920  -0.45094  -0.43634  -0.41014  -0.40408
 Alpha  occ. eigenvalues --   -0.38397  -0.37312  -0.35821  -0.34189  -0.33093
 Alpha  occ. eigenvalues --   -0.30990  -0.28489  -0.25751  -0.24475
 Alpha virt. eigenvalues --    0.07204   0.09532   0.10394   0.12252   0.12902
 Alpha virt. eigenvalues --    0.13316   0.14336   0.14708   0.15638   0.16850
 Alpha virt. eigenvalues --    0.17583   0.18694   0.19759   0.20920   0.22336

 Mulliken charges:
               1
     1  C   -0.163516
     2  O   -0.352151
     3  C    0.450269
     4  C   -0.314687
     5  C   -0.049786
     6  C   -0.288727
     7  C   -0.087738
     8  O   -0.261373
     9  C    0.063206
    10  H    0.112609
    11  H    0.112669
    12  H    0.106179
    13  H    0.095254
    14  H    0.078993
    15  H    0.102191
    16  H    0.108251
    17  H    0.115115
    18  H    0.096406
    19  H    0.076837
 Sum of Mulliken charges =   0.00000

 Dipole moment (field-independent basis, Debye):
    X=              1.5236    Y=              0.0518    Z=             -0.2830  Tot=              1.5505
 Quadrupole moment (field-independent basis, Debye-Ang):
   XX=            -52.0388   YY=            -56.2175   ZZ=            -51.9908
   XY=             -4.2106   XZ=             -0.0571   YZ=             -0.8680

  Exact polarizability:  82.874  -4.073  70.527  -0.287   0.018  68.862
 Approx polarizability: 114.928  -2.615 105.506   0.071   1.733 104.504

                      1                      2                      3
                      A                      A                      A
 Frequencies --    200.8429               246.4000               371.6391
 Red. masses --      2.7388                 2.6214                 2.1951
 Frc consts  --      0.0651                 0.0938                 0.1786
 IR Inten    --      4.9240                 0.9624                 0.8726

                      4                      5                      6
                      A                      A                      A
 Frequencies --    374.9322               389.7985               453.3258
 Red. masses --      3.2820                 3.3097                 2.7083
 Frc consts  --      0.2718                 0.2963                 0.3279
 IR Inten    --      5.0398                 5.3083                 6.1165

                      7                      8                      9
                      A                      A                      A
 Frequencies --    525.9964               533.2180               627.4146
 Red. masses --      4.4881                 3.4377                 2.6961
 Frc consts  --      0.7316                 0.5759                 0.6253
 IR Inten    --      0.6772                 0.8227                 3.0331

                     10                     11                     12
                      A                      A                      A
 Frequencies --    734.9179               791.5945               845.6379
 Red. masses --      3.6620                 2.8003                 3.1456
 Frc consts  --      1.1653                 1.0338                 1.3253
 IR Inten    --      8.3366                 2.5291                 3.2218

                     13                     14                     15
                      A                      A                      A
 Frequencies --    850.5059               896.7683               925.4801
 Red. masses --      2.8772                 1.4147                 2.3088
 Frc consts  --      1.2262                 0.6703                 1.1651
 IR Inten    --      1.8516                 0.9791                21.0668

                     16                     17                     18
                      A                      A                      A
 Frequencies --    946.4940               979.6231               986.7932
 Red. masses --      5.4746                 2.1884                 2.4681
 Frc consts  --      2.8896                 1.2373                 1.4160
 IR Inten    --     38.8209                 5.3134                50.1211

                     19                     20                     21
                      A                      A                      A
 Frequencies --    997.5091              1003.5541              1056.9571
 Red. masses --      1.7424                 1.7135                 1.9656
 Frc consts  --      1.0215                 1.0167                 1.2937
 IR Inten    --     29.2167                10.6017                 9.9858

                     22                     23                     24
                      A                      A                      A
 Frequencies --   1098.4368              1112.9917              1130.6070
 Red. masses --      1.6189                 1.8351                 2.2268
 Frc consts  --      1.1509                 1.3393                 1.6771
 IR Inten    --      5.0729                 0.6184                 2.0763

                     25                     26                     27
                      A                      A                      A
 Frequencies --   1139.9939              1153.0349              1169.5169
 Red. masses --      2.2362                 1.2847                 1.8843
 Frc consts  --      1.7122                 1.0063                 1.5185
 IR Inten    --     17.0867                 5.4896                33.8166

                     28                     29                     30
                      A                      A                      A
 Frequencies --   1191.4645              1232.7130              1239.3598
 Red. masses --      2.2998                 1.4599                 1.5635
 Frc consts  --      1.9235                 1.3071                 1.4149
 IR Inten    --     64.4148                 4.4852                 4.0445

                     31                     32                     33
                      A                      A                      A
 Frequencies --   1280.2068              1289.7829              1309.1883
 Red. masses --      1.4195                 1.4289                 1.6862
 Frc consts  --      1.3707                 1.4005                 1.7028
 IR Inten    --      6.7128                27.6213                 9.0790

                     34                     35                     36
                      A                      A                      A
 Frequencies --   1324.2987              1334.1508              1379.0882
 Red. masses --      1.5876                 2.1042                 1.2708
 Frc consts  --      1.6405                 2.2067                 1.4241
 IR Inten    --     17.4792                 6.2200                 5.2235

                     37                     38                     39
                      A                      A                      A
 Frequencies --   1416.3180              1476.8493              1500.7400
 Red. masses --      1.4388                 1.1011                 1.1075
 Frc consts  --      1.7004                 1.4149                 1.4697
 IR Inten    --     18.7633                 3.4934                 2.2181

                     40                     41                     42
                      A                      A                      A
 Frequencies --   1511.8936              1514.6054              2978.8935
 Red. masses --      1.1388                 1.1176                 1.0766
 Frc consts  --      1.5337                 1.5105                 5.6288
 IR Inten    --      3.4794                 2.3114                28.6974

                     43                     44                     45
                      A                      A                      A
 Frequencies --   2985.4201              3034.6100              3049.6066
 Red. masses --      1.0772                 1.0594                 1.0564
 Frc consts  --      5.6567                 5.7482                 5.7887
 IR Inten    --     75.7953                50.1059                39.0987

                     46                     47                     48
                      A                      A                      A
 Frequencies --   3072.8703              3086.0013              3105.9439
 Red. masses --      1.0569                 1.0938                 1.0996
 Frc consts  --      5.8799                 6.1371                 6.2498
 IR Inten    --     18.1175                20.0228                44.4407

                     49                     50                     51
                      A                      A                      A
 Frequencies --   3106.8656              3110.7229              3135.6046
 Red. masses --      1.1032                 1.1024                 1.1096
 Frc consts  --      6.2739                 6.2851                 6.4275
 IR Inten    --     17.7550                46.4989                19.6227

 - Thermochemistry -
 -------------------
 Temperature   298.150 Kelvin.  Pressure   1.00000 Atm.
 Atom     1 has atomic number  6 and mass  12.00000

 Molecular mass:   126.06808 amu.
 Principal axes and moments of inertia in atomic units:
                           1         2         3
     Eigenvalues --   633.36276 935.214381236.86975
           X            0.99776  -0.06670  -0.00544
           Y            0.06665   0.99774  -0.00792
           Z            0.00595   0.00754   0.99995
 This molecule is an asymmetric top.
 Rotational symmetry number  1.
 Warning -- assumption of classical behavior for rotation
           may cause significant error
 Rotational temperatures (Kelvin)      0.13675     0.09261     0.07003
 Rotational constants (GHZ):           2.84946     1.92976     1.45912
 Zero-point vibrational energy     425937.5 (Joules/Mol)
                                  101.80150 (Kcal/Mol)
 Warning -- explicit consideration of   8 degrees of freedom as
           vibrations may cause significant error
 Vibrational temperatures:    288.97   354.51   534.71   539.44   560.83
          (Kelvin)            652.23   756.79   767.18   902.71  1057.38
                             1138.93  1216.68  1223.69  1290.25  1331.56
                             1361.79  1409.46  1419.77  1435.19  1443.89
                             1520.72  1580.40  1601.34  1626.69  1640.19
                             1658.96  1682.67  1714.25  1773.60  1783.16
                             1841.93  1855.71  1883.63  1905.37  1919.54
                             1984.20  2037.76  2124.85  2159.23  2175.27
                             2179.18  4285.96  4295.35  4366.12  4387.70
                             4421.17  4440.06  4468.75  4470.08  4475.63
                             4511.43

 Zero-point correction=                           0.162231 (Hartree/Particle)
 Thermal correction to Energy=                    0.168828
 Thermal correction to Enthalpy=                  0.169772
 Thermal correction to Gibbs Free Energy=         0.131666
 Sum of electronic and zero-point Energies=           -422.981739
 Sum of electronic and thermal Energies=              -422.975141
 Sum of electronic and thermal Enthalpies=            -422.974197
 Sum of electronic and thermal Free Energies=         -423.012304

                     E (Thermal)             CV                S
                      KCal/Mol        Cal/Mol-Kelvin    Cal/Mol-Kelvin
 Total                  105.941             27.993             80.202
 Electronic               0.000              0.000              0.000
 Translational            0.889              2.981             40.409
 Rotational               0.889              2.981             28.084
 Vibrational            104.164             22.032             11.709
 Vibration     1          0.638              1.839              2.125
 Vibration     2          0.661              1.769              1.756
 Vibration     3          0.743              1.530              1.073
 Vibration     4          0.746              1.523              1.060
 Vibration     5          0.758              1.492              1.001
 Vibration     6          0.812              1.354              0.786
 Vibration     7          0.881              1.192              0.596
 Vibration     8          0.888              1.177              0.580

 Optimization completed.
    -- Stationary point found.
 Normal termination of Gaussian 09 at Mon Jan 27 13:03:59 2020.
