 Gaussian 09, Revision D.01,
 Gaussian 09:  ES64L-G09RevD.01 24-Apr-2013

 -----------------------------
 # b3lyp 6-31G(2df,p) opt Freq
 -----------------------------

 -----
 titel
 -----
 Symbolic Z-matrix:
 Charge =  0 Multiplicity = 1

 SCF Done:  E(RB3LYP) =  -423.113230145     A.U. after   14 cycles
 Optimization completed.
    -- Stationary point found.
 Normal termination of Gaussian 09 at Mon Jan 27 16:58:58 2020.

 ----------------------------------------------------------------------
 #N Geom=AllCheck Guess=TCheck SCRF=Check GenChk RB3LYP/6-31G(2df,p) Fr
 eq
 ----------------------------------------------------------------------

 Structure from the checkpoint file:  "/scratch/puck/g09_f97f4c8f-f37a-404c-9b85-64b64943b79e/Gau-48714.chk"
 -----
 titel
 -----
 Charge =  0 Multiplicity = 1

                         Standard orientation:
 ---------------------------------------------------------------------
 Center     Atomic      Atomic             Coordinates (Angstroms)
 Number     Number       Type             X           Y           Z
 ---------------------------------------------------------------------
      1          6           0        1.869478    0.266572    1.009366
      2          6           0        0.815699   -0.220251    0.015560
      3          6           0        1.440431   -0.791828   -1.253326
      4          6           0       -0.286982   -1.081626    0.719962
      5          8           0       -1.223194   -1.433160   -0.342321
      6          6           0       -1.606958   -0.057953   -0.328076
      7          6           0       -1.094639    0.229306    1.046559
      8          6           0       -0.332654    0.795770   -0.136041
      9          8           0       -0.247583    2.129276   -0.473903
     10          1           0        2.446410    1.094885    0.585160
     11          1           0        1.415172    0.623458    1.939081
     12          1           0        2.571104   -0.537668    1.257464
     13          1           0        1.979007   -0.010906   -1.803301
     14          1           0        2.165407   -1.579104   -1.016906
     15          1           0        0.674814   -1.216060   -1.905990
     16          1           0       -0.043595   -1.907906    1.385728
     17          1           0       -2.495051    0.261871   -0.858107
     18          1           0       -1.527955    0.660218    1.937494
     19          1           0       -0.245340    2.202351   -1.434851
 ---------------------------------------------------------------------

 SCF Done:  E(RB3LYP) =  -423.113230145     A.U. after    1 cycles

 The electronic state is 1-A.
 Alpha  occ. eigenvalues --  -19.15784 -19.13633 -10.24200 -10.24050 -10.23738
 Alpha  occ. eigenvalues --  -10.19515 -10.19163 -10.17361 -10.16754  -1.06528
 Alpha  occ. eigenvalues --   -1.03659  -0.85652  -0.77649  -0.68709  -0.67574
 Alpha  occ. eigenvalues --   -0.61546  -0.57755  -0.54250  -0.52132  -0.47132
 Alpha  occ. eigenvalues --   -0.45651  -0.45360  -0.42465  -0.41356  -0.38893
 Alpha  occ. eigenvalues --   -0.37979  -0.37338  -0.36773  -0.34739  -0.32889
 Alpha  occ. eigenvalues --   -0.30474  -0.28562  -0.25885  -0.21750
 Alpha virt. eigenvalues --    0.06554   0.08201   0.09461   0.11903   0.13305
 Alpha virt. eigenvalues --    0.13667   0.14339   0.15082   0.16640   0.17515
 Alpha virt. eigenvalues --    0.17950   0.19529   0.20229   0.20901   0.22135

 Mulliken charges:
               1
     1  C   -0.444663
     2  C    0.244407
     3  C   -0.469342
     4  C    0.028342
     5  O   -0.290118
     6  C   -0.012561
     7  C   -0.198348
     8  C    0.313587
     9  O   -0.461403
    10  H    0.121975
    11  H    0.117747
    12  H    0.109920
    13  H    0.106674
    14  H    0.111569
    15  H    0.131656
    16  H    0.082266
    17  H    0.110486
    18  H    0.106303
    19  H    0.291504
 Sum of Mulliken charges =   0.00000

 Dipole moment (field-independent basis, Debye):
    X=              0.4021    Y=              0.7139    Z=             -0.2666  Tot=              0.8616
 Quadrupole moment (field-independent basis, Debye-Ang):
   XX=            -52.7509   YY=            -57.2244   ZZ=            -49.0592
   XY=             -3.2161   XZ=              0.1669   YZ=             -4.8032

  Exact polarizability:  78.489  -1.724  70.585   0.088  -1.959  71.485
 Approx polarizability: 108.385   0.508 109.603   1.594  -3.115 108.828

                      1                      2                      3
                      A                      A                      A
 Frequencies --    180.2177               189.3947               204.2398
 Red. masses --      1.3644                 1.8474                 1.4628
 Frc consts  --      0.0261                 0.0390                 0.0360
 IR Inten    --      1.2463                 0.8803                 0.3262

                      4                      5                      6
                      A                      A                      A
 Frequencies --    229.3527               257.8743               288.5877
 Red. masses --      2.5776                 1.6576                 1.6116
 Frc consts  --      0.0799                 0.0649                 0.0791
 IR Inten    --      3.1913                 0.1345                63.3249

                      7                      8                      9
                      A                      A                      A
 Frequencies --    339.8678               353.9536               421.9362
 Red. masses --      2.4255                 2.1363                 3.1567
 Frc consts  --      0.1651                 0.1577                 0.3311
 IR Inten    --      4.9811                37.0511                 5.9393

                     10                     11                     12
                      A                      A                      A
 Frequencies --    540.7677               588.7480               621.6749
 Red. masses --      4.8260                 3.5750                 3.8031
 Frc consts  --      0.8315                 0.7301                 0.8660
 IR Inten    --      1.7048                 5.0864                 1.0396

                     13                     14                     15
                      A                      A                      A
 Frequencies --    652.1255               780.0626               797.7868
 Red. masses --      3.1267                 2.7168                 2.9729
 Frc consts  --      0.7834                 0.9740                 1.1148
 IR Inten    --      8.4204                 5.8954                11.7023

                     16                     17                     18
                      A                      A                      A
 Frequencies --    837.3706               842.9003               915.0064
 Red. masses --      1.3835                 2.4229                 2.9067
 Frc consts  --      0.5715                 1.0142                 1.4339
 IR Inten    --      5.7507                 5.8816                25.8431

                     19                     20                     21
                      A                      A                      A
 Frequencies --    926.8826               950.6773               954.2797
 Red. masses --      2.8611                 1.9449                 1.4665
 Frc consts  --      1.4482                 1.0356                 0.7868
 IR Inten    --      5.2551                24.7978                 1.8527

                     22                     23                     24
                      A                      A                      A
 Frequencies --    977.4116              1010.1952              1023.1177
 Red. masses --      2.9417                 2.0616                 1.7133
 Frc consts  --      1.6558                 1.2396                 1.0567
 IR Inten    --     25.2246                15.6868                 8.6861

                     25                     26                     27
                      A                      A                      A
 Frequencies --   1050.1013              1119.9953              1137.2559
 Red. masses --      2.2419                 1.7496                 1.8003
 Frc consts  --      1.4566                 1.2930                 1.3719
 IR Inten    --      1.0351                 4.3725                 2.7265

                     28                     29                     30
                      A                      A                      A
 Frequencies --   1177.5398              1198.2234              1221.0557
 Red. masses --      1.6421                 2.0258                 2.8339
 Frc consts  --      1.3415                 1.7137                 2.4895
 IR Inten    --      5.3958                13.0120                24.3692

                     31                     32                     33
                      A                      A                      A
 Frequencies --   1240.4946              1281.1748              1303.7340
 Red. masses --      2.7612                 1.9238                 1.5491
 Frc consts  --      2.5034                 1.8605                 1.5514
 IR Inten    --     12.5517               114.2772                 3.1739

                     34                     35                     36
                      A                      A                      A
 Frequencies --   1330.8063              1395.2403              1416.7866
 Red. masses --      3.4257                 1.2825                 1.2823
 Frc consts  --      3.5747                 1.4709                 1.5165
 IR Inten    --     23.5070                10.6494                 2.2809

                     37                     38                     39
                      A                      A                      A
 Frequencies --   1437.1718              1484.8658              1485.2793
 Red. masses --      2.9923                 1.0510                 1.0469
 Frc consts  --      3.6415                 1.3653                 1.3608
 IR Inten    --     19.3916                 2.6021                 0.7401

                     40                     41                     42
                      A                      A                      A
 Frequencies --   1504.2062              1509.5223              3025.5928
 Red. masses --      1.0814                 1.0574                 1.0372
 Frc consts  --      1.4416                 1.4196                 5.5941
 IR Inten    --      1.7127                13.4108                20.2774

                     43                     44                     45
                      A                      A                      A
 Frequencies --   3030.9575              3082.5825              3094.9471
 Red. masses --      1.0363                 1.1001                 1.1009
 Frc consts  --      5.6093                 6.1592                 6.2130
 IR Inten    --     35.1680                14.6583                28.8813

                     46                     47                     48
                      A                      A                      A
 Frequencies --   3103.5681              3129.9615              3136.0035
 Red. masses --      1.1008                 1.0982                 1.0927
 Frc consts  --      6.2471                 6.3390                 6.3313
 IR Inten    --     24.2911                11.4181                30.2619

                     49                     50                     51
                      A                      A                      A
 Frequencies --   3201.4893              3221.6423              3794.5688
 Red. masses --      1.0913                 1.1020                 1.0661
 Frc consts  --      6.5904                 6.7386                 9.0440
 IR Inten    --     12.8631                 5.9304                27.1880

 - Thermochemistry -
 -------------------
 Temperature   298.150 Kelvin.  Pressure   1.00000 Atm.
 Atom     1 has atomic number  6 and mass  12.00000

 Molecular mass:   126.06808 amu.
 Principal axes and moments of inertia in atomic units:
                           1         2         3
     Eigenvalues --   823.67196 927.950641182.64705
           X            0.98946  -0.14482  -0.00189
           Y            0.14483   0.98944   0.00514
           Z            0.00113  -0.00536   0.99999
 This molecule is an asymmetric top.
 Rotational symmetry number  1.
 Warning -- assumption of classical behavior for rotation
           may cause significant error
 Rotational temperatures (Kelvin)      0.10516     0.09334     0.07324
 Rotational constants (GHZ):           2.19109     1.94487     1.52602
 Zero-point vibrational energy     412706.9 (Joules/Mol)
                                   98.63931 (Kcal/Mol)
 Warning -- explicit consideration of  11 degrees of freedom as
           vibrations may cause significant error
 Vibrational temperatures:    259.29   272.50   293.86   329.99   371.02
          (Kelvin)            415.21   488.99   509.26   607.07   778.04
                              847.08   894.45   938.26  1122.33  1147.84
                             1204.79  1212.74  1316.49  1333.58  1367.81
                             1372.99  1406.28  1453.44  1472.04  1510.86
                             1611.42  1636.26  1694.21  1723.97  1756.82
                             1784.79  1843.32  1875.78  1914.73  2007.44
                             2038.44  2067.77  2136.39  2136.98  2164.21
                             2171.86  4353.15  4360.87  4435.14  4452.93
                             4465.34  4503.31  4512.00  4606.22  4635.22
                             5459.53

 Zero-point correction=                           0.157192 (Hartree/Particle)
 Thermal correction to Energy=                    0.165646
 Thermal correction to Enthalpy=                  0.166591
 Thermal correction to Gibbs Free Energy=         0.125000
 Sum of electronic and zero-point Energies=           -422.956038
 Sum of electronic and thermal Energies=              -422.947584
 Sum of electronic and thermal Enthalpies=            -422.946640
 Sum of electronic and thermal Free Energies=         -422.988230

                     E (Thermal)             CV                S
                      KCal/Mol        Cal/Mol-Kelvin    Cal/Mol-Kelvin
 Total                  103.945             33.590             87.535
 Electronic               0.000              0.000              0.000
 Translational            0.889              2.981             40.409
 Rotational               0.889              2.981             28.293
 Vibrational            102.167             27.628             18.833
 Vibration     1          0.629              1.867              2.326
 Vibration     2          0.633              1.854              2.234
 Vibration     3          0.640              1.834              2.095
 Vibration     4          0.652              1.796              1.884
 Vibration     5          0.667              1.749              1.676
 Vibration     6          0.685              1.695              1.482
 Vibration     7          0.720              1.596              1.213
 Vibration     8          0.730              1.567              1.149
 Vibration     9          0.784              1.423              0.885
 Vibration    10          0.896              1.160              0.564
 Vibration    11          0.946              1.056              0.469

 Normal termination of Gaussian 09 at Mon Jan 27 17:44:50 2020.
