 Gaussian 09, Revision D.01,
 Gaussian 09:  ES64L-G09RevD.01 24-Apr-2013

 -----------------------------
 # b3lyp 6-31G(2df,p) opt Freq
 -----------------------------

 -----
 titel
 -----
 Symbolic Z-matrix:
 Charge =  0 Multiplicity = 1

 SCF Done:  E(RB3LYP) =  -423.101680882     A.U. after   14 cycles
 Optimization completed.
    -- Stationary point found.
 Normal termination of Gaussian 09 at Mon Jan 27 15:59:13 2020.

 ----------------------------------------------------------------------
 #N Geom=AllCheck Guess=TCheck SCRF=Check GenChk RB3LYP/6-31G(2df,p) Fr
 eq
 ----------------------------------------------------------------------

 Structure from the checkpoint file:  "/scratch/puck/g09_c7184f5f-0938-406d-a05b-55ec0e5f1222/Gau-163933.chk"
 -----
 titel
 -----
 Charge =  0 Multiplicity = 1

                         Standard orientation:
 ---------------------------------------------------------------------
 Center     Atomic      Atomic             Coordinates (Angstroms)
 Number     Number       Type             X           Y           Z
 ---------------------------------------------------------------------
      1          6           0       -1.649701    1.308562   -0.630024
      2          6           0       -1.290118   -0.053796   -0.080159
      3          8           0       -2.420850   -0.904888   -0.034617
      4          6           0       -0.423504   -0.410392    1.095381
      5          6           0        0.944907    0.319629    1.189753
      6          8           0        1.103974    1.257365    0.110239
      7          6           0        1.336747   -0.140772   -0.142741
      8          6           0        2.632672   -0.550066   -0.757794
      9          6           0       -0.031776   -0.877506   -0.320036
     10          1           0       -2.456898    1.736401   -0.026282
     11          1           0       -0.801897    1.986276   -0.641223
     12          1           0       -2.023813    1.199822   -1.657256
     13          1           0       -2.779460   -0.948396   -0.928158
     14          1           0       -0.820135   -1.020769    1.896132
     15          1           0        1.515256    0.503901    2.093253
     16          1           0        2.624672   -0.365948   -1.838447
     17          1           0        3.456867    0.017624   -0.317976
     18          1           0        2.815158   -1.618175   -0.600839
     19          1           0       -0.110111   -1.884507   -0.710458
 ---------------------------------------------------------------------

 SCF Done:  E(RB3LYP) =  -423.101680882     A.U. after    1 cycles

 The electronic state is 1-A.
 Alpha  occ. eigenvalues --  -19.14897 -19.13874 -10.24749 -10.24375 -10.23611
 Alpha  occ. eigenvalues --  -10.19047 -10.18827 -10.18743 -10.16608  -1.07516
 Alpha  occ. eigenvalues --   -1.02613  -0.85428  -0.75024  -0.71877  -0.66144
 Alpha  occ. eigenvalues --   -0.62658  -0.55125  -0.54185  -0.51724  -0.47192
 Alpha  occ. eigenvalues --   -0.46479  -0.44118  -0.42472  -0.41099  -0.40549
 Alpha  occ. eigenvalues --   -0.39551  -0.37246  -0.36258  -0.34736  -0.33200
 Alpha  occ. eigenvalues --   -0.30293  -0.25836  -0.25736  -0.22392
 Alpha virt. eigenvalues --    0.05852   0.08050   0.10367   0.11504   0.12257
 Alpha virt. eigenvalues --    0.13537   0.14599   0.14834   0.15444   0.16625
 Alpha virt. eigenvalues --    0.18364   0.19276   0.19728   0.20318   0.23303

 Mulliken charges:
               1
     1  C   -0.477447
     2  C    0.408370
     3  O   -0.465706
     4  C   -0.139049
     5  C   -0.068245
     6  O   -0.294022
     7  C    0.406844
     8  C   -0.498984
     9  C   -0.223019
    10  H    0.120729
    11  H    0.158255
    12  H    0.097216
    13  H    0.279211
    14  H    0.101967
    15  H    0.107114
    16  H    0.131196
    17  H    0.135072
    18  H    0.128423
    19  H    0.092073
 Sum of Mulliken charges =   0.00000

 Dipole moment (field-independent basis, Debye):
    X=              0.7301    Y=             -1.1778    Z=             -0.7084  Tot=              1.5563
 Quadrupole moment (field-independent basis, Debye-Ang):
   XX=            -51.4411   YY=            -55.4744   ZZ=            -49.2025
   XY=             -2.6535   XZ=              4.0852   YZ=              1.7440

  Exact polarizability:  87.654  -1.420  67.422   0.953   1.937  72.234
 Approx polarizability: 113.124   1.611 104.811  -0.996   4.164 115.362

                      1                      2                      3
                      A                      A                      A
 Frequencies --    138.4834               177.9438               200.6789
 Red. masses --      2.8018                 1.1382                 1.0611
 Frc consts  --      0.0317                 0.0212                 0.0252
 IR Inten    --      1.1116                 0.7649                 0.1833

                      4                      5                      6
                      A                      A                      A
 Frequencies --    225.9194               247.4187               281.7580
 Red. masses --      2.3156                 3.3963                 1.1531
 Frc consts  --      0.0696                 0.1225                 0.0539
 IR Inten    --      4.7765                 4.4162                83.5388

                      7                      8                      9
                      A                      A                      A
 Frequencies --    326.3805               379.4080               417.6151
 Red. masses --      3.2886                 5.5446                 3.3901
 Frc consts  --      0.2064                 0.4703                 0.3484
 IR Inten    --     10.9634                 0.4404                10.5984

                     10                     11                     12
                      A                      A                      A
 Frequencies --    424.4903               499.8204               568.9506
 Red. masses --      3.3493                 2.5471                 4.0067
 Frc consts  --      0.3556                 0.3749                 0.7642
 IR Inten    --      3.7955                 3.6288                10.3094

                     13                     14                     15
                      A                      A                      A
 Frequencies --    656.9931               684.3022               746.0167
 Red. masses --      3.1990                 5.6554                 5.8738
 Frc consts  --      0.8136                 1.5603                 1.9260
 IR Inten    --      2.8276                 9.3705                 0.5913

                     16                     17                     18
                      A                      A                      A
 Frequencies --    795.1071               848.9665               862.4110
 Red. masses --      1.4369                 2.3052                 2.3865
 Frc consts  --      0.5352                 0.9789                 1.0458
 IR Inten    --     13.3966                 9.3142                32.9731

                     19                     20                     21
                      A                      A                      A
 Frequencies --    885.3115               931.7764               958.4461
 Red. masses --      2.4940                 2.3228                 2.0057
 Frc consts  --      1.1517                 1.1882                 1.0856
 IR Inten    --      9.4561                 1.6854                 8.9328

                     22                     23                     24
                      A                      A                      A
 Frequencies --    986.8667               998.0738              1010.5818
 Red. masses --      1.7088                 2.3466                 1.7934
 Frc consts  --      0.9805                 1.3772                 1.0791
 IR Inten    --      6.4528                10.1486                 4.3555

                     25                     26                     27
                      A                      A                      A
 Frequencies --   1059.3484              1090.5902              1097.5962
 Red. masses --      2.0125                 1.5949                 1.5893
 Frc consts  --      1.3307                 1.1176                 1.1281
 IR Inten    --      2.8337                13.5889                17.2196

                     28                     29                     30
                      A                      A                      A
 Frequencies --   1136.8487              1173.3188              1230.4160
 Red. masses --      1.8152                 1.8270                 1.7022
 Frc consts  --      1.3822                 1.4819                 1.5184
 IR Inten    --     78.8315                 4.0194                16.2030

                     31                     32                     33
                      A                      A                      A
 Frequencies --   1241.2286              1283.0942              1285.2614
 Red. masses --      1.9902                 1.7180                 2.0818
 Frc consts  --      1.8066                 1.6664                 2.0262
 IR Inten    --      3.2657                27.8331                76.6494

                     34                     35                     36
                      A                      A                      A
 Frequencies --   1394.7004              1405.5168              1423.2409
 Red. masses --      1.3448                 1.2721                 2.4232
 Frc consts  --      1.5413                 1.4806                 2.8920
 IR Inten    --      1.3092                 5.0469                18.0474

                     37                     38                     39
                      A                      A                      A
 Frequencies --   1471.1040              1484.0990              1490.3417
 Red. masses --      1.4488                 1.1427                 1.1245
 Frc consts  --      1.8473                 1.4828                 1.4716
 IR Inten    --      7.2199                 5.9734                15.4678

                     40                     41                     42
                      A                      A                      A
 Frequencies --   1500.9650              1507.6984              3017.4711
 Red. masses --      1.6127                 1.1822                 1.0489
 Frc consts  --      2.1407                 1.5834                 5.6271
 IR Inten    --     11.5862                11.6010                46.0501

                     43                     44                     45
                      A                      A                      A
 Frequencies --   3031.9163              3084.7737              3094.1552
 Red. masses --      1.0365                 1.0930                 1.0993
 Frc consts  --      5.6138                 6.1280                 6.2008
 IR Inten    --     22.7561                22.7147                15.5465

                     46                     47                     48
                      A                      A                      A
 Frequencies --   3122.2410              3178.2534              3191.1251
 Red. masses --      1.1011                 1.0932                 1.0900
 Frc consts  --      6.3240                 6.5064                 6.5398
 IR Inten    --     12.1297                18.0880                10.0911

                     49                     50                     51
                      A                      A                      A
 Frequencies --   3199.3117              3205.0558              3796.1043
 Red. masses --      1.0936                 1.0949                 1.0659
 Frc consts  --      6.5952                 6.6268                 9.0498
 IR Inten    --      1.0825                 5.5786                16.5332

 - Thermochemistry -
 -------------------
 Temperature   298.150 Kelvin.  Pressure   1.00000 Atm.
 Atom     1 has atomic number  6 and mass  12.00000

 Molecular mass:   126.06808 amu.
 Principal axes and moments of inertia in atomic units:
                           1         2         3
     Eigenvalues --   547.140491405.319151515.28064
           X            0.99926  -0.03833   0.00243
           Y            0.03835   0.99920  -0.01093
           Z           -0.00201   0.01102   0.99994
 This molecule is an asymmetric top.
 Rotational symmetry number  1.
 Warning -- assumption of classical behavior for rotation
           may cause significant error
 Rotational temperatures (Kelvin)      0.15830     0.06163     0.05716
 Rotational constants (GHZ):           3.29850     1.28422     1.19103
 Zero-point vibrational energy     409418.9 (Joules/Mol)
                                   97.85347 (Kcal/Mol)
 Warning -- explicit consideration of  12 degrees of freedom as
           vibrations may cause significant error
 Vibrational temperatures:    199.25   256.02   288.73   325.05   355.98
          (Kelvin)            405.39   469.59   545.88   600.85   610.75
                              719.13   818.59   945.27   984.56  1073.35
                             1143.98  1221.47  1240.82  1273.76  1340.62
                             1378.99  1419.88  1436.00  1454.00  1524.16
                             1569.11  1579.19  1635.67  1688.14  1770.29
                             1785.85  1846.08  1849.20  2006.66  2022.22
                             2047.72  2116.59  2135.28  2144.27  2159.55
                             2169.24  4341.46  4362.25  4438.30  4451.79
                             4492.20  4572.79  4591.31  4603.09  4611.35
                             5461.74

 Zero-point correction=                           0.155939 (Hartree/Particle)
 Thermal correction to Energy=                    0.164779
 Thermal correction to Enthalpy=                  0.165723
 Thermal correction to Gibbs Free Energy=         0.123248
 Sum of electronic and zero-point Energies=           -422.945741
 Sum of electronic and thermal Energies=              -422.936902
 Sum of electronic and thermal Enthalpies=            -422.935958
 Sum of electronic and thermal Free Energies=         -422.978433

                     E (Thermal)             CV                S
                      KCal/Mol        Cal/Mol-Kelvin    Cal/Mol-Kelvin
 Total                  103.400             34.773             89.395
 Electronic               0.000              0.000              0.000
 Translational            0.889              2.981             40.409
 Rotational               0.889              2.981             28.545
 Vibrational            101.623             28.811             20.441
 Vibration     1          0.614              1.915              2.825
 Vibration     2          0.628              1.869              2.350
 Vibration     3          0.638              1.839              2.127
 Vibration     4          0.650              1.802              1.911
 Vibration     5          0.661              1.767              1.749
 Vibration     6          0.681              1.707              1.523
 Vibration     7          0.710              1.623              1.278
 Vibration     8          0.749              1.514              1.042
 Vibration     9          0.781              1.432              0.900
 Vibration    10          0.786              1.417              0.877
 Vibration    11          0.855              1.250              0.659
 Vibration    12          0.925              1.098              0.506

 Optimization completed.
    -- Stationary point found.
 Normal termination of Gaussian 09 at Mon Jan 27 16:41:57 2020.
