 Gaussian 09, Revision D.01,
 Gaussian 09:  ES64L-G09RevD.01 24-Apr-2013

 -----------------------------
 # b3lyp 6-31G(2df,p) opt Freq
 -----------------------------

 -----
 titel
 -----
 Symbolic Z-matrix:
 Charge =  0 Multiplicity = 1

 SCF Done:  E(RB3LYP) =  -423.177783018     A.U. after   14 cycles
 Optimization completed.
    -- Stationary point found.
 Normal termination of Gaussian 09 at Tue Jan 28 02:51:24 2020.

 ----------------------------------------------------------------------
 #N Geom=AllCheck Guess=TCheck SCRF=Check GenChk RB3LYP/6-31G(2df,p) Fr
 eq
 ----------------------------------------------------------------------

 Structure from the checkpoint file:  "/scratch/puck/g09_eb5321fe-94ff-4a89-aec3-dccb2f97f71b/Gau-60105.chk"
 -----
 titel
 -----
 Charge =  0 Multiplicity = 1

                         Standard orientation:
 ---------------------------------------------------------------------
 Center     Atomic      Atomic             Coordinates (Angstroms)
 Number     Number       Type             X           Y           Z
 ---------------------------------------------------------------------
      1          6           0        2.502903    0.843279   -0.000015
      2          6           0        1.851806   -0.536836    0.000047
      3          6           0        0.749152   -0.725188    1.087026
      4          6           0       -0.320672   -0.468409   -0.000020
      5          6           0        0.749193   -0.725268   -1.086998
      6          8           0       -1.554724   -1.216263   -0.000031
      7          6           0       -2.394159   -0.042852    0.000025
      8          6           0       -1.131938    0.827046   -0.000008
      9          8           0       -0.882236    1.995198   -0.000038
     10          1           0        3.133925    0.977758   -0.885216
     11          1           0        1.747989    1.637108   -0.000004
     12          1           0        3.133976    0.977806    0.885144
     13          1           0        2.619523   -1.314313    0.000086
     14          1           0        0.672469   -1.757986    1.437210
     15          1           0        0.760885   -0.050361    1.947070
     16          1           0        0.672544   -1.758074   -1.437152
     17          1           0        0.760975   -0.050484   -1.947079
     18          1           0       -3.022230    0.038212   -0.895733
     19          1           0       -3.022088    0.038222    0.895889
 ---------------------------------------------------------------------

 SCF Done:  E(RB3LYP) =  -423.177783018     A.U. after    1 cycles

 The electronic state is 1-A.
 Alpha  occ. eigenvalues --  -19.15508 -19.14910 -10.28072 -10.24524 -10.24315
 Alpha  occ. eigenvalues --  -10.19582 -10.18966 -10.18966 -10.17296  -1.07080
 Alpha  occ. eigenvalues --   -1.04490  -0.85273  -0.72366  -0.71519  -0.67378
 Alpha  occ. eigenvalues --   -0.65413  -0.56435  -0.51545  -0.50488  -0.48795
 Alpha  occ. eigenvalues --   -0.47330  -0.44704  -0.43884  -0.42387  -0.40161
 Alpha  occ. eigenvalues --   -0.39290  -0.37794  -0.36693  -0.34781  -0.33180
 Alpha  occ. eigenvalues --   -0.32176  -0.31299  -0.26112  -0.25306
 Alpha virt. eigenvalues --   -0.03202   0.05947   0.09228   0.10582   0.12323
 Alpha virt. eigenvalues --    0.13744   0.14665   0.15742   0.16375   0.17178
 Alpha virt. eigenvalues --    0.17628   0.18472   0.19512   0.19682   0.21746

 Mulliken charges:
               1
     1  C   -0.407493
     2  C    0.027434
     3  C   -0.304442
     4  C    0.340979
     5  C   -0.304451
     6  O   -0.325678
     7  C   -0.193710
     8  C    0.282666
     9  O   -0.283143
    10  H    0.113287
    11  H    0.145106
    12  H    0.113284
    13  H    0.074141
    14  H    0.118853
    15  H    0.108853
    16  H    0.118856
    17  H    0.108854
    18  H    0.133304
    19  H    0.133300
 Sum of Mulliken charges =   0.00000

 Dipole moment (field-independent basis, Debye):
    X=              0.2622    Y=             -1.0542    Z=              0.0001  Tot=              1.0863
 Quadrupole moment (field-independent basis, Debye-Ang):
   XX=            -49.3016   YY=            -60.7265   ZZ=            -51.2094
   XY=             -1.7443   XZ=             -0.0002   YZ=              0.0001

  Exact polarizability:  90.283  -0.032  72.223   0.000   0.000  65.848
 Approx polarizability: 114.165   0.957 116.207   0.000   0.000  97.775

                      1                      2                      3
                      A                      A                      A
 Frequencies --     92.8811               100.8874               154.5404
 Red. masses --      3.4628                 3.1378                 2.9820
 Frc consts  --      0.0176                 0.0188                 0.0420
 IR Inten    --      0.6516                 6.2527                 0.2434

                      4                      5                      6
                      A                      A                      A
 Frequencies --    234.1626               272.1013               299.3361
 Red. masses --      4.3650                 1.1601                 2.3450
 Frc consts  --      0.1410                 0.0506                 0.1238
 IR Inten    --      0.8360                 0.9468                 2.7042

                      7                      8                      9
                      A                      A                      A
 Frequencies --    359.1330               382.4316               481.9149
 Red. masses --      2.3271                 2.4774                 2.7171
 Frc consts  --      0.1768                 0.2135                 0.3718
 IR Inten    --      3.4597                 4.2880                 5.7093

                     10                     11                     12
                      A                      A                      A
 Frequencies --    536.7417               542.7595               703.0188
 Red. masses --      4.3638                 2.0801                 4.2547
 Frc consts  --      0.7407                 0.3610                 1.2389
 IR Inten    --      2.8743                 0.5681                 0.2286

                     13                     14                     15
                      A                      A                      A
 Frequencies --    781.7876               815.5841               824.4509
 Red. masses --      3.0406                 3.3076                 1.4225
 Frc consts  --      1.0949                 1.2963                 0.5697
 IR Inten    --      1.8338                 7.2920                 0.3760

                     16                     17                     18
                      A                      A                      A
 Frequencies --    892.8474               912.7542               918.0391
 Red. masses --      2.3651                 2.7590                 2.2662
 Frc consts  --      1.1108                 1.3543                 1.1253
 IR Inten    --      0.0393                13.3715                 1.1429

                     19                     20                     21
                      A                      A                      A
 Frequencies --    943.7396              1008.7811              1036.9949
 Red. masses --      1.6717                 7.6414                 1.1755
 Frc consts  --      0.8772                 4.5816                 0.7448
 IR Inten    --      2.1407               130.8802                 0.2895

                     22                     23                     24
                      A                      A                      A
 Frequencies --   1043.4352              1054.6436              1091.6501
 Red. masses --      2.4572                 2.4615                 3.9026
 Frc consts  --      1.5762                 1.6131                 2.7401
 IR Inten    --     46.6815                30.0048                 4.5853

                     25                     26                     27
                      A                      A                      A
 Frequencies --   1134.9803              1138.7154              1160.3213
 Red. masses --      1.2530                 1.1389                 3.2163
 Frc consts  --      0.9510                 0.8701                 2.5513
 IR Inten    --      1.2172                 0.0044                48.8110

                     28                     29                     30
                      A                      A                      A
 Frequencies --   1210.8398              1214.7204              1268.0015
 Red. masses --      2.3458                 1.4388                 1.6023
 Frc consts  --      2.0264                 1.2508                 1.5179
 IR Inten    --      2.1063                 0.1776                19.6857

                     31                     32                     33
                      A                      A                      A
 Frequencies --   1272.0086              1288.3422              1302.0391
 Red. masses --      1.5020                 2.2711                 1.5218
 Frc consts  --      1.4319                 2.2210                 1.5200
 IR Inten    --      0.6360                 7.2821                 1.4938

                     34                     35                     36
                      A                      A                      A
 Frequencies --   1365.8763              1419.9414              1456.0418
 Red. masses --      1.4354                 1.2433                 1.0857
 Frc consts  --      1.5777                 1.4769                 1.3561
 IR Inten    --      3.2108                 3.5309                 5.1000

                     37                     38                     39
                      A                      A                      A
 Frequencies --   1477.4315              1483.8557              1503.0065
 Red. masses --      1.1105                 1.1074                 1.0459
 Frc consts  --      1.4282                 1.4365                 1.3921
 IR Inten    --      0.0222                 3.4171                 3.5958

                     40                     41                     42
                      A                      A                      A
 Frequencies --   1507.9158              1910.8937              3020.9512
 Red. masses --      1.0498                12.7725                 1.0548
 Frc consts  --      1.4064                27.4788                 5.6714
 IR Inten    --      1.4226               214.0413                34.7569

                     43                     44                     45
                      A                      A                      A
 Frequencies --   3027.4960              3055.8783              3058.1286
 Red. masses --      1.0349                 1.0566                 1.0627
 Frc consts  --      5.5890                 5.8136                 5.8555
 IR Inten    --     26.4529                36.5629                 2.3247

                     46                     47                     48
                      A                      A                      A
 Frequencies --   3069.1391              3070.4170              3095.4456
 Red. masses --      1.1083                 1.0841                 1.1015
 Frc consts  --      6.1508                 6.0214                 6.2183
 IR Inten    --     18.9845                22.6329                24.8166

                     49                     50                     51
                      A                      A                      A
 Frequencies --   3104.8721              3116.5340              3117.9998
 Red. masses --      1.1022                 1.1083                 1.1068
 Frc consts  --      6.2602                 6.3425                 6.3396
 IR Inten    --     21.9879                 7.1726                24.9820

 - Thermochemistry -
 -------------------
 Temperature   298.150 Kelvin.  Pressure   1.00000 Atm.
 Atom     1 has atomic number  6 and mass  12.00000

 Molecular mass:   126.06808 amu.
 Principal axes and moments of inertia in atomic units:
                           1         2         3
     Eigenvalues --   638.232981283.977311612.52764
           X            0.99988   0.01538   0.00000
           Y           -0.01538   0.99988   0.00000
           Z            0.00000   0.00000   1.00000
 This molecule is an asymmetric top.
 Rotational symmetry number  1.
 Warning -- assumption of classical behavior for rotation
           may cause significant error
 Rotational temperatures (Kelvin)      0.13571     0.06746     0.05371
 Rotational constants (GHZ):           2.82772     1.40559     1.11920
 Zero-point vibrational energy     414723.8 (Joules/Mol)
                                   99.12137 (Kcal/Mol)
 Warning -- explicit consideration of  11 degrees of freedom as
           vibrations may cause significant error
 Vibrational temperatures:    133.64   145.15   222.35   336.91   391.49
          (Kelvin)            430.68   516.71   550.23   693.37   772.25
                              780.91  1011.49  1124.82  1173.44  1186.20
                             1284.61  1313.25  1320.85  1357.83  1451.41
                             1492.00  1501.27  1517.40  1570.64  1632.98
                             1638.36  1669.44  1742.13  1747.71  1824.37
                             1830.13  1853.63  1873.34  1965.19  2042.98
                             2094.92  2125.69  2134.93  2162.49  2169.55
                             2749.35  4346.47  4355.89  4396.72  4399.96
                             4415.80  4417.64  4453.65  4467.21  4483.99
                             4486.10

 Zero-point correction=                           0.157960 (Hartree/Particle)
 Thermal correction to Energy=                    0.166488
 Thermal correction to Enthalpy=                  0.167432
 Thermal correction to Gibbs Free Energy=         0.124742
 Sum of electronic and zero-point Energies=           -423.019823
 Sum of electronic and thermal Energies=              -423.011295
 Sum of electronic and thermal Enthalpies=            -423.010351
 Sum of electronic and thermal Free Energies=         -423.053041

                     E (Thermal)             CV                S
                      KCal/Mol        Cal/Mol-Kelvin    Cal/Mol-Kelvin
 Total                  104.473             32.312             89.848
 Electronic               0.000              0.000              0.000
 Translational            0.889              2.981             40.409
 Rotational               0.889              2.981             28.671
 Vibrational            102.695             26.350             20.768
 Vibration     1          0.602              1.954              3.598
 Vibration     2          0.604              1.948              3.437
 Vibration     3          0.620              1.898              2.616
 Vibration     4          0.654              1.789              1.847
 Vibration     5          0.675              1.725              1.583
 Vibration     6          0.692              1.675              1.421
 Vibration     7          0.734              1.556              1.126
 Vibration     8          0.752              1.508              1.030
 Vibration     9          0.838              1.290              0.705
 Vibration    10          0.892              1.169              0.572
 Vibration    11          0.898              1.156              0.559

 Optimization completed.
    -- Stationary point found.
 Normal termination of Gaussian 09 at Tue Jan 28 03:36:55 2020.
